 # Na10125 Cl3375 O3375
 
       16875  atoms
           3  atom types
 
      0.000000000000      67.515000000000  xlo xhi
      0.000000000000      67.515000000000  ylo yhi
      0.000000000000      67.515000000000  zlo zhi
 
Masses
 
            1   22.98976928             # Na
            2   15.99900000             # O
            3   35.45000000             # Cl
 
Atoms # charge
 
         1    1   1.000000        2.250499774950       2.250499774950       0.000000000000
         2    1   1.000000        2.250499774950       2.250499774950       4.501000225050
         3    1   1.000000        2.250499774950       2.250499774950       9.001999774950
         4    1   1.000000        2.250499774950       2.250499774950      13.503000000000
         5    1   1.000000        2.250499774950       2.250499774950      18.004000225050
         6    1   1.000000        2.250499774950       2.250499774950      22.504999774950
         7    1   1.000000        2.250499774950       2.250499774950      27.006000000000
         8    1   1.000000        2.250499774950       2.250499774950      31.507000225050
         9    1   1.000000        2.250499774950       2.250499774950      36.007999774950
        10    1   1.000000        2.250499774950       2.250499774950      40.509000000000
        11    1   1.000000        2.250499774950       2.250499774950      45.010000225050
        12    1   1.000000        2.250499774950       2.250499774950      49.510999774950
        13    1   1.000000        2.250499774950       2.250499774950      54.012000000000
        14    1   1.000000        2.250499774950       2.250499774950      58.513000225050
        15    1   1.000000        2.250499774950       2.250499774950      63.013999774950
        16    1   1.000000        2.250499774950       6.751500000000       0.000000000000
        17    1   1.000000        2.250499774950       6.751500000000       4.501000225050
        18    1   1.000000        2.250499774950       6.751500000000       9.001999774950
        19    1   1.000000        2.250499774950       6.751500000000      13.503000000000
        20    1   1.000000        2.250499774950       6.751500000000      18.004000225050
        21    1   1.000000        2.250499774950       6.751500000000      22.504999774950
        22    1   1.000000        2.250499774950       6.751500000000      27.006000000000
        23    1   1.000000        2.250499774950       6.751500000000      31.507000225050
        24    1   1.000000        2.250499774950       6.751500000000      36.007999774950
        25    1   1.000000        2.250499774950       6.751500000000      40.509000000000
        26    1   1.000000        2.250499774950       6.751500000000      45.010000225050
        27    1   1.000000        2.250499774950       6.751500000000      49.510999774950
        28    1   1.000000        2.250499774950       6.751500000000      54.012000000000
        29    1   1.000000        2.250499774950       6.751500000000      58.513000225050
        30    1   1.000000        2.250499774950       6.751500000000      63.013999774950
        31    1   1.000000        2.250499774950      11.252500225050       0.000000000000
        32    1   1.000000        2.250499774950      11.252500225050       4.501000225050
        33    1   1.000000        2.250499774950      11.252500225050       9.001999774950
        34    1   1.000000        2.250499774950      11.252500225050      13.503000000000
        35    1   1.000000        2.250499774950      11.252500225050      18.004000225050
        36    1   1.000000        2.250499774950      11.252500225050      22.504999774950
        37    1   1.000000        2.250499774950      11.252500225050      27.006000000000
        38    1   1.000000        2.250499774950      11.252500225050      31.507000225050
        39    1   1.000000        2.250499774950      11.252500225050      36.007999774950
        40    1   1.000000        2.250499774950      11.252500225050      40.509000000000
        41    1   1.000000        2.250499774950      11.252500225050      45.010000225050
        42    1   1.000000        2.250499774950      11.252500225050      49.510999774950
        43    1   1.000000        2.250499774950      11.252500225050      54.012000000000
        44    1   1.000000        2.250499774950      11.252500225050      58.513000225050
        45    1   1.000000        2.250499774950      11.252500225050      63.013999774950
        46    1   1.000000        2.250499774950      15.753499774950       0.000000000000
        47    1   1.000000        2.250499774950      15.753499774950       4.501000225050
        48    1   1.000000        2.250499774950      15.753499774950       9.001999774950
        49    1   1.000000        2.250499774950      15.753499774950      13.503000000000
        50    1   1.000000        2.250499774950      15.753499774950      18.004000225050
        51    1   1.000000        2.250499774950      15.753499774950      22.504999774950
        52    1   1.000000        2.250499774950      15.753499774950      27.006000000000
        53    1   1.000000        2.250499774950      15.753499774950      31.507000225050
        54    1   1.000000        2.250499774950      15.753499774950      36.007999774950
        55    1   1.000000        2.250499774950      15.753499774950      40.509000000000
        56    1   1.000000        2.250499774950      15.753499774950      45.010000225050
        57    1   1.000000        2.250499774950      15.753499774950      49.510999774950
        58    1   1.000000        2.250499774950      15.753499774950      54.012000000000
        59    1   1.000000        2.250499774950      15.753499774950      58.513000225050
        60    1   1.000000        2.250499774950      15.753499774950      63.013999774950
        61    1   1.000000        2.250499774950      20.254500000000       0.000000000000
        62    1   1.000000        2.250499774950      20.254500000000       4.501000225050
        63    1   1.000000        2.250499774950      20.254500000000       9.001999774950
        64    1   1.000000        2.250499774950      20.254500000000      13.503000000000
        65    1   1.000000        2.250499774950      20.254500000000      18.004000225050
        66    1   1.000000        2.250499774950      20.254500000000      22.504999774950
        67    1   1.000000        2.250499774950      20.254500000000      27.006000000000
        68    1   1.000000        2.250499774950      20.254500000000      31.507000225050
        69    1   1.000000        2.250499774950      20.254500000000      36.007999774950
        70    1   1.000000        2.250499774950      20.254500000000      40.509000000000
        71    1   1.000000        2.250499774950      20.254500000000      45.010000225050
        72    1   1.000000        2.250499774950      20.254500000000      49.510999774950
        73    1   1.000000        2.250499774950      20.254500000000      54.012000000000
        74    1   1.000000        2.250499774950      20.254500000000      58.513000225050
        75    1   1.000000        2.250499774950      20.254500000000      63.013999774950
        76    1   1.000000        2.250499774950      24.755500225050       0.000000000000
        77    1   1.000000        2.250499774950      24.755500225050       4.501000225050
        78    1   1.000000        2.250499774950      24.755500225050       9.001999774950
        79    1   1.000000        2.250499774950      24.755500225050      13.503000000000
        80    1   1.000000        2.250499774950      24.755500225050      18.004000225050
        81    1   1.000000        2.250499774950      24.755500225050      22.504999774950
        82    1   1.000000        2.250499774950      24.755500225050      27.006000000000
        83    1   1.000000        2.250499774950      24.755500225050      31.507000225050
        84    1   1.000000        2.250499774950      24.755500225050      36.007999774950
        85    1   1.000000        2.250499774950      24.755500225050      40.509000000000
        86    1   1.000000        2.250499774950      24.755500225050      45.010000225050
        87    1   1.000000        2.250499774950      24.755500225050      49.510999774950
        88    1   1.000000        2.250499774950      24.755500225050      54.012000000000
        89    1   1.000000        2.250499774950      24.755500225050      58.513000225050
        90    1   1.000000        2.250499774950      24.755500225050      63.013999774950
        91    1   1.000000        2.250499774950      29.256499774950       0.000000000000
        92    1   1.000000        2.250499774950      29.256499774950       4.501000225050
        93    1   1.000000        2.250499774950      29.256499774950       9.001999774950
        94    1   1.000000        2.250499774950      29.256499774950      13.503000000000
        95    1   1.000000        2.250499774950      29.256499774950      18.004000225050
        96    1   1.000000        2.250499774950      29.256499774950      22.504999774950
        97    1   1.000000        2.250499774950      29.256499774950      27.006000000000
        98    1   1.000000        2.250499774950      29.256499774950      31.507000225050
        99    1   1.000000        2.250499774950      29.256499774950      36.007999774950
       100    1   1.000000        2.250499774950      29.256499774950      40.509000000000
       101    1   1.000000        2.250499774950      29.256499774950      45.010000225050
       102    1   1.000000        2.250499774950      29.256499774950      49.510999774950
       103    1   1.000000        2.250499774950      29.256499774950      54.012000000000
       104    1   1.000000        2.250499774950      29.256499774950      58.513000225050
       105    1   1.000000        2.250499774950      29.256499774950      63.013999774950
       106    1   1.000000        2.250499774950      33.757500000000       0.000000000000
       107    1   1.000000        2.250499774950      33.757500000000       4.501000225050
       108    1   1.000000        2.250499774950      33.757500000000       9.001999774950
       109    1   1.000000        2.250499774950      33.757500000000      13.503000000000
       110    1   1.000000        2.250499774950      33.757500000000      18.004000225050
       111    1   1.000000        2.250499774950      33.757500000000      22.504999774950
       112    1   1.000000        2.250499774950      33.757500000000      27.006000000000
       113    1   1.000000        2.250499774950      33.757500000000      31.507000225050
       114    1   1.000000        2.250499774950      33.757500000000      36.007999774950
       115    1   1.000000        2.250499774950      33.757500000000      40.509000000000
       116    1   1.000000        2.250499774950      33.757500000000      45.010000225050
       117    1   1.000000        2.250499774950      33.757500000000      49.510999774950
       118    1   1.000000        2.250499774950      33.757500000000      54.012000000000
       119    1   1.000000        2.250499774950      33.757500000000      58.513000225050
       120    1   1.000000        2.250499774950      33.757500000000      63.013999774950
       121    1   1.000000        2.250499774950      38.258500225050       0.000000000000
       122    1   1.000000        2.250499774950      38.258500225050       4.501000225050
       123    1   1.000000        2.250499774950      38.258500225050       9.001999774950
       124    1   1.000000        2.250499774950      38.258500225050      13.503000000000
       125    1   1.000000        2.250499774950      38.258500225050      18.004000225050
       126    1   1.000000        2.250499774950      38.258500225050      22.504999774950
       127    1   1.000000        2.250499774950      38.258500225050      27.006000000000
       128    1   1.000000        2.250499774950      38.258500225050      31.507000225050
       129    1   1.000000        2.250499774950      38.258500225050      36.007999774950
       130    1   1.000000        2.250499774950      38.258500225050      40.509000000000
       131    1   1.000000        2.250499774950      38.258500225050      45.010000225050
       132    1   1.000000        2.250499774950      38.258500225050      49.510999774950
       133    1   1.000000        2.250499774950      38.258500225050      54.012000000000
       134    1   1.000000        2.250499774950      38.258500225050      58.513000225050
       135    1   1.000000        2.250499774950      38.258500225050      63.013999774950
       136    1   1.000000        2.250499774950      42.759499774950       0.000000000000
       137    1   1.000000        2.250499774950      42.759499774950       4.501000225050
       138    1   1.000000        2.250499774950      42.759499774950       9.001999774950
       139    1   1.000000        2.250499774950      42.759499774950      13.503000000000
       140    1   1.000000        2.250499774950      42.759499774950      18.004000225050
       141    1   1.000000        2.250499774950      42.759499774950      22.504999774950
       142    1   1.000000        2.250499774950      42.759499774950      27.006000000000
       143    1   1.000000        2.250499774950      42.759499774950      31.507000225050
       144    1   1.000000        2.250499774950      42.759499774950      36.007999774950
       145    1   1.000000        2.250499774950      42.759499774950      40.509000000000
       146    1   1.000000        2.250499774950      42.759499774950      45.010000225050
       147    1   1.000000        2.250499774950      42.759499774950      49.510999774950
       148    1   1.000000        2.250499774950      42.759499774950      54.012000000000
       149    1   1.000000        2.250499774950      42.759499774950      58.513000225050
       150    1   1.000000        2.250499774950      42.759499774950      63.013999774950
       151    1   1.000000        2.250499774950      47.260500000000       0.000000000000
       152    1   1.000000        2.250499774950      47.260500000000       4.501000225050
       153    1   1.000000        2.250499774950      47.260500000000       9.001999774950
       154    1   1.000000        2.250499774950      47.260500000000      13.503000000000
       155    1   1.000000        2.250499774950      47.260500000000      18.004000225050
       156    1   1.000000        2.250499774950      47.260500000000      22.504999774950
       157    1   1.000000        2.250499774950      47.260500000000      27.006000000000
       158    1   1.000000        2.250499774950      47.260500000000      31.507000225050
       159    1   1.000000        2.250499774950      47.260500000000      36.007999774950
       160    1   1.000000        2.250499774950      47.260500000000      40.509000000000
       161    1   1.000000        2.250499774950      47.260500000000      45.010000225050
       162    1   1.000000        2.250499774950      47.260500000000      49.510999774950
       163    1   1.000000        2.250499774950      47.260500000000      54.012000000000
       164    1   1.000000        2.250499774950      47.260500000000      58.513000225050
       165    1   1.000000        2.250499774950      47.260500000000      63.013999774950
       166    1   1.000000        2.250499774950      51.761500225050       0.000000000000
       167    1   1.000000        2.250499774950      51.761500225050       4.501000225050
       168    1   1.000000        2.250499774950      51.761500225050       9.001999774950
       169    1   1.000000        2.250499774950      51.761500225050      13.503000000000
       170    1   1.000000        2.250499774950      51.761500225050      18.004000225050
       171    1   1.000000        2.250499774950      51.761500225050      22.504999774950
       172    1   1.000000        2.250499774950      51.761500225050      27.006000000000
       173    1   1.000000        2.250499774950      51.761500225050      31.507000225050
       174    1   1.000000        2.250499774950      51.761500225050      36.007999774950
       175    1   1.000000        2.250499774950      51.761500225050      40.509000000000
       176    1   1.000000        2.250499774950      51.761500225050      45.010000225050
       177    1   1.000000        2.250499774950      51.761500225050      49.510999774950
       178    1   1.000000        2.250499774950      51.761500225050      54.012000000000
       179    1   1.000000        2.250499774950      51.761500225050      58.513000225050
       180    1   1.000000        2.250499774950      51.761500225050      63.013999774950
       181    1   1.000000        2.250499774950      56.262499774950       0.000000000000
       182    1   1.000000        2.250499774950      56.262499774950       4.501000225050
       183    1   1.000000        2.250499774950      56.262499774950       9.001999774950
       184    1   1.000000        2.250499774950      56.262499774950      13.503000000000
       185    1   1.000000        2.250499774950      56.262499774950      18.004000225050
       186    1   1.000000        2.250499774950      56.262499774950      22.504999774950
       187    1   1.000000        2.250499774950      56.262499774950      27.006000000000
       188    1   1.000000        2.250499774950      56.262499774950      31.507000225050
       189    1   1.000000        2.250499774950      56.262499774950      36.007999774950
       190    1   1.000000        2.250499774950      56.262499774950      40.509000000000
       191    1   1.000000        2.250499774950      56.262499774950      45.010000225050
       192    1   1.000000        2.250499774950      56.262499774950      49.510999774950
       193    1   1.000000        2.250499774950      56.262499774950      54.012000000000
       194    1   1.000000        2.250499774950      56.262499774950      58.513000225050
       195    1   1.000000        2.250499774950      56.262499774950      63.013999774950
       196    1   1.000000        2.250499774950      60.763500000000       0.000000000000
       197    1   1.000000        2.250499774950      60.763500000000       4.501000225050
       198    1   1.000000        2.250499774950      60.763500000000       9.001999774950
       199    1   1.000000        2.250499774950      60.763500000000      13.503000000000
       200    1   1.000000        2.250499774950      60.763500000000      18.004000225050
       201    1   1.000000        2.250499774950      60.763500000000      22.504999774950
       202    1   1.000000        2.250499774950      60.763500000000      27.006000000000
       203    1   1.000000        2.250499774950      60.763500000000      31.507000225050
       204    1   1.000000        2.250499774950      60.763500000000      36.007999774950
       205    1   1.000000        2.250499774950      60.763500000000      40.509000000000
       206    1   1.000000        2.250499774950      60.763500000000      45.010000225050
       207    1   1.000000        2.250499774950      60.763500000000      49.510999774950
       208    1   1.000000        2.250499774950      60.763500000000      54.012000000000
       209    1   1.000000        2.250499774950      60.763500000000      58.513000225050
       210    1   1.000000        2.250499774950      60.763500000000      63.013999774950
       211    1   1.000000        2.250499774950      65.264500225050       0.000000000000
       212    1   1.000000        2.250499774950      65.264500225050       4.501000225050
       213    1   1.000000        2.250499774950      65.264500225050       9.001999774950
       214    1   1.000000        2.250499774950      65.264500225050      13.503000000000
       215    1   1.000000        2.250499774950      65.264500225050      18.004000225050
       216    1   1.000000        2.250499774950      65.264500225050      22.504999774950
       217    1   1.000000        2.250499774950      65.264500225050      27.006000000000
       218    1   1.000000        2.250499774950      65.264500225050      31.507000225050
       219    1   1.000000        2.250499774950      65.264500225050      36.007999774950
       220    1   1.000000        2.250499774950      65.264500225050      40.509000000000
       221    1   1.000000        2.250499774950      65.264500225050      45.010000225050
       222    1   1.000000        2.250499774950      65.264500225050      49.510999774950
       223    1   1.000000        2.250499774950      65.264500225050      54.012000000000
       224    1   1.000000        2.250499774950      65.264500225050      58.513000225050
       225    1   1.000000        2.250499774950      65.264500225050      63.013999774950
       226    1   1.000000        6.751500000000       2.250499774950       0.000000000000
       227    1   1.000000        6.751500000000       2.250499774950       4.501000225050
       228    1   1.000000        6.751500000000       2.250499774950       9.001999774950
       229    1   1.000000        6.751500000000       2.250499774950      13.503000000000
       230    1   1.000000        6.751500000000       2.250499774950      18.004000225050
       231    1   1.000000        6.751500000000       2.250499774950      22.504999774950
       232    1   1.000000        6.751500000000       2.250499774950      27.006000000000
       233    1   1.000000        6.751500000000       2.250499774950      31.507000225050
       234    1   1.000000        6.751500000000       2.250499774950      36.007999774950
       235    1   1.000000        6.751500000000       2.250499774950      40.509000000000
       236    1   1.000000        6.751500000000       2.250499774950      45.010000225050
       237    1   1.000000        6.751500000000       2.250499774950      49.510999774950
       238    1   1.000000        6.751500000000       2.250499774950      54.012000000000
       239    1   1.000000        6.751500000000       2.250499774950      58.513000225050
       240    1   1.000000        6.751500000000       2.250499774950      63.013999774950
       241    1   1.000000        6.751500000000       6.751500000000       0.000000000000
       242    1   1.000000        6.751500000000       6.751500000000       4.501000225050
       243    1   1.000000        6.751500000000       6.751500000000       9.001999774950
       244    1   1.000000        6.751500000000       6.751500000000      13.503000000000
       245    1   1.000000        6.751500000000       6.751500000000      18.004000225050
       246    1   1.000000        6.751500000000       6.751500000000      22.504999774950
       247    1   1.000000        6.751500000000       6.751500000000      27.006000000000
       248    1   1.000000        6.751500000000       6.751500000000      31.507000225050
       249    1   1.000000        6.751500000000       6.751500000000      36.007999774950
       250    1   1.000000        6.751500000000       6.751500000000      40.509000000000
       251    1   1.000000        6.751500000000       6.751500000000      45.010000225050
       252    1   1.000000        6.751500000000       6.751500000000      49.510999774950
       253    1   1.000000        6.751500000000       6.751500000000      54.012000000000
       254    1   1.000000        6.751500000000       6.751500000000      58.513000225050
       255    1   1.000000        6.751500000000       6.751500000000      63.013999774950
       256    1   1.000000        6.751500000000      11.252500225050       0.000000000000
       257    1   1.000000        6.751500000000      11.252500225050       4.501000225050
       258    1   1.000000        6.751500000000      11.252500225050       9.001999774950
       259    1   1.000000        6.751500000000      11.252500225050      13.503000000000
       260    1   1.000000        6.751500000000      11.252500225050      18.004000225050
       261    1   1.000000        6.751500000000      11.252500225050      22.504999774950
       262    1   1.000000        6.751500000000      11.252500225050      27.006000000000
       263    1   1.000000        6.751500000000      11.252500225050      31.507000225050
       264    1   1.000000        6.751500000000      11.252500225050      36.007999774950
       265    1   1.000000        6.751500000000      11.252500225050      40.509000000000
       266    1   1.000000        6.751500000000      11.252500225050      45.010000225050
       267    1   1.000000        6.751500000000      11.252500225050      49.510999774950
       268    1   1.000000        6.751500000000      11.252500225050      54.012000000000
       269    1   1.000000        6.751500000000      11.252500225050      58.513000225050
       270    1   1.000000        6.751500000000      11.252500225050      63.013999774950
       271    1   1.000000        6.751500000000      15.753499774950       0.000000000000
       272    1   1.000000        6.751500000000      15.753499774950       4.501000225050
       273    1   1.000000        6.751500000000      15.753499774950       9.001999774950
       274    1   1.000000        6.751500000000      15.753499774950      13.503000000000
       275    1   1.000000        6.751500000000      15.753499774950      18.004000225050
       276    1   1.000000        6.751500000000      15.753499774950      22.504999774950
       277    1   1.000000        6.751500000000      15.753499774950      27.006000000000
       278    1   1.000000        6.751500000000      15.753499774950      31.507000225050
       279    1   1.000000        6.751500000000      15.753499774950      36.007999774950
       280    1   1.000000        6.751500000000      15.753499774950      40.509000000000
       281    1   1.000000        6.751500000000      15.753499774950      45.010000225050
       282    1   1.000000        6.751500000000      15.753499774950      49.510999774950
       283    1   1.000000        6.751500000000      15.753499774950      54.012000000000
       284    1   1.000000        6.751500000000      15.753499774950      58.513000225050
       285    1   1.000000        6.751500000000      15.753499774950      63.013999774950
       286    1   1.000000        6.751500000000      20.254500000000       0.000000000000
       287    1   1.000000        6.751500000000      20.254500000000       4.501000225050
       288    1   1.000000        6.751500000000      20.254500000000       9.001999774950
       289    1   1.000000        6.751500000000      20.254500000000      13.503000000000
       290    1   1.000000        6.751500000000      20.254500000000      18.004000225050
       291    1   1.000000        6.751500000000      20.254500000000      22.504999774950
       292    1   1.000000        6.751500000000      20.254500000000      27.006000000000
       293    1   1.000000        6.751500000000      20.254500000000      31.507000225050
       294    1   1.000000        6.751500000000      20.254500000000      36.007999774950
       295    1   1.000000        6.751500000000      20.254500000000      40.509000000000
       296    1   1.000000        6.751500000000      20.254500000000      45.010000225050
       297    1   1.000000        6.751500000000      20.254500000000      49.510999774950
       298    1   1.000000        6.751500000000      20.254500000000      54.012000000000
       299    1   1.000000        6.751500000000      20.254500000000      58.513000225050
       300    1   1.000000        6.751500000000      20.254500000000      63.013999774950
       301    1   1.000000        6.751500000000      24.755500225050       0.000000000000
       302    1   1.000000        6.751500000000      24.755500225050       4.501000225050
       303    1   1.000000        6.751500000000      24.755500225050       9.001999774950
       304    1   1.000000        6.751500000000      24.755500225050      13.503000000000
       305    1   1.000000        6.751500000000      24.755500225050      18.004000225050
       306    1   1.000000        6.751500000000      24.755500225050      22.504999774950
       307    1   1.000000        6.751500000000      24.755500225050      27.006000000000
       308    1   1.000000        6.751500000000      24.755500225050      31.507000225050
       309    1   1.000000        6.751500000000      24.755500225050      36.007999774950
       310    1   1.000000        6.751500000000      24.755500225050      40.509000000000
       311    1   1.000000        6.751500000000      24.755500225050      45.010000225050
       312    1   1.000000        6.751500000000      24.755500225050      49.510999774950
       313    1   1.000000        6.751500000000      24.755500225050      54.012000000000
       314    1   1.000000        6.751500000000      24.755500225050      58.513000225050
       315    1   1.000000        6.751500000000      24.755500225050      63.013999774950
       316    1   1.000000        6.751500000000      29.256499774950       0.000000000000
       317    1   1.000000        6.751500000000      29.256499774950       4.501000225050
       318    1   1.000000        6.751500000000      29.256499774950       9.001999774950
       319    1   1.000000        6.751500000000      29.256499774950      13.503000000000
       320    1   1.000000        6.751500000000      29.256499774950      18.004000225050
       321    1   1.000000        6.751500000000      29.256499774950      22.504999774950
       322    1   1.000000        6.751500000000      29.256499774950      27.006000000000
       323    1   1.000000        6.751500000000      29.256499774950      31.507000225050
       324    1   1.000000        6.751500000000      29.256499774950      36.007999774950
       325    1   1.000000        6.751500000000      29.256499774950      40.509000000000