 # Na9936 Ga63 Cl3375 O3375
 
       16749  atoms
           4  atom types
 
      0.000000000000      67.515000000000  xlo xhi
      0.000000000000      67.515000000000  ylo yhi
      0.000000000000      67.515000000000  zlo zhi
 
Masses
 
            1   69.72300000             # Ga
            2   22.98976928             # Na
            3   15.99900000             # O
            4   35.45000000             # Cl
 
Atoms # charge
 
         1    1   3.000000        2.250499774950       2.250499774950       0.000000000000
         2    2   1.000000        2.250499774950       2.250499774950      13.503000000000
         3    1   3.000000        2.250499774950       2.250499774950      27.006000000000
         4    2   1.000000        2.250499774950       2.250499774950      40.509000000000
         5    1   3.000000        2.250499774950       2.250499774950      54.012000000000
         6    2   1.000000        2.250499774950      15.753499774950       0.000000000000
         7    1   3.000000        2.250499774950      15.753499774950      13.503000000000
         8    2   1.000000        2.250499774950      15.753499774950      27.006000000000
         9    1   3.000000        2.250499774950      15.753499774950      40.509000000000
        10    2   1.000000        2.250499774950      15.753499774950      54.012000000000
        11    1   3.000000        2.250499774950      29.256499774950       0.000000000000
        12    2   1.000000        2.250499774950      29.256499774950      13.503000000000
        13    1   3.000000        2.250499774950      29.256499774950      27.006000000000
        14    2   1.000000        2.250499774950      29.256499774950      40.509000000000
        15    1   3.000000        2.250499774950      29.256499774950      54.012000000000
        16    2   1.000000        2.250499774950      42.759499774950       0.000000000000
        17    1   3.000000        2.250499774950      42.759499774950      13.503000000000
        18    2   1.000000        2.250499774950      42.759499774950      27.006000000000
        19    1   3.000000        2.250499774950      42.759499774950      40.509000000000
        20    2   1.000000        2.250499774950      42.759499774950      54.012000000000
        21    1   3.000000        2.250499774950      56.262499774950       0.000000000000
        22    2   1.000000        2.250499774950      56.262499774950      13.503000000000
        23    1   3.000000        2.250499774950      56.262499774950      27.006000000000
        24    2   1.000000        2.250499774950      56.262499774950      40.509000000000
        25    1   3.000000        2.250499774950      56.262499774950      54.012000000000
        26    2   1.000000       15.753499774950       2.250499774950       0.000000000000
        27    1   3.000000       15.753499774950       2.250499774950      13.503000000000
        28    2   1.000000       15.753499774950       2.250499774950      27.006000000000
        29    1   3.000000       15.753499774950       2.250499774950      40.509000000000
        30    2   1.000000       15.753499774950       2.250499774950      54.012000000000
        31    1   3.000000       15.753499774950      15.753499774950       0.000000000000
        32    2   1.000000       15.753499774950      15.753499774950      13.503000000000
        33    1   3.000000       15.753499774950      15.753499774950      27.006000000000
        34    2   1.000000       15.753499774950      15.753499774950      40.509000000000
        35    1   3.000000       15.753499774950      15.753499774950      54.012000000000
        36    2   1.000000       15.753499774950      29.256499774950       0.000000000000
        37    1   3.000000       15.753499774950      29.256499774950      13.503000000000
        38    2   1.000000       15.753499774950      29.256499774950      27.006000000000
        39    1   3.000000       15.753499774950      29.256499774950      40.509000000000
        40    2   1.000000       15.753499774950      29.256499774950      54.012000000000
        41    1   3.000000       15.753499774950      42.759499774950       0.000000000000
        42    2   1.000000       15.753499774950      42.759499774950      13.503000000000
        43    1   3.000000       15.753499774950      42.759499774950      27.006000000000
        44    2   1.000000       15.753499774950      42.759499774950      40.509000000000
        45    1   3.000000       15.753499774950      42.759499774950      54.012000000000
        46    2   1.000000       15.753499774950      56.262499774950       0.000000000000
        47    1   3.000000       15.753499774950      56.262499774950      13.503000000000
        48    2   1.000000       15.753499774950      56.262499774950      27.006000000000
        49    1   3.000000       15.753499774950      56.262499774950      40.509000000000
        50    2   1.000000       15.753499774950      56.262499774950      54.012000000000
        51    1   3.000000       29.256499774950       2.250499774950       0.000000000000
        52    2   1.000000       29.256499774950       2.250499774950      13.503000000000
        53    1   3.000000       29.256499774950       2.250499774950      27.006000000000
        54    2   1.000000       29.256499774950       2.250499774950      40.509000000000
        55    1   3.000000       29.256499774950       2.250499774950      54.012000000000
        56    2   1.000000       29.256499774950      15.753499774950       0.000000000000
        57    1   3.000000       29.256499774950      15.753499774950      13.503000000000
        58    2   1.000000       29.256499774950      15.753499774950      27.006000000000
        59    1   3.000000       29.256499774950      15.753499774950      40.509000000000
        60    2   1.000000       29.256499774950      15.753499774950      54.012000000000
        61    1   3.000000       29.256499774950      29.256499774950       0.000000000000
        62    2   1.000000       29.256499774950      29.256499774950      13.503000000000
        63    1   3.000000       29.256499774950      29.256499774950      27.006000000000
        64    2   1.000000       29.256499774950      29.256499774950      40.509000000000
        65    1   3.000000       29.256499774950      29.256499774950      54.012000000000
        66    2   1.000000       29.256499774950      42.759499774950       0.000000000000
        67    1   3.000000       29.256499774950      42.759499774950      13.503000000000
        68    2   1.000000       29.256499774950      42.759499774950      27.006000000000
        69    1   3.000000       29.256499774950      42.759499774950      40.509000000000
        70    2   1.000000       29.256499774950      42.759499774950      54.012000000000
        71    1   3.000000       29.256499774950      56.262499774950       0.000000000000
        72    2   1.000000       29.256499774950      56.262499774950      13.503000000000
        73    1   3.000000       29.256499774950      56.262499774950      27.006000000000
        74    2   1.000000       29.256499774950      56.262499774950      40.509000000000
        75    1   3.000000       29.256499774950      56.262499774950      54.012000000000
        76    2   1.000000       42.759499774950       2.250499774950       0.000000000000
        77    1   3.000000       42.759499774950       2.250499774950      13.503000000000
        78    2   1.000000       42.759499774950       2.250499774950      27.006000000000
        79    1   3.000000       42.759499774950       2.250499774950      40.509000000000
        80    2   1.000000       42.759499774950       2.250499774950      54.012000000000
        81    1   3.000000       42.759499774950      15.753499774950       0.000000000000
        82    2   1.000000       42.759499774950      15.753499774950      13.503000000000
        83    1   3.000000       42.759499774950      15.753499774950      27.006000000000
        84    2   1.000000       42.759499774950      15.753499774950      40.509000000000
        85    1   3.000000       42.759499774950      15.753499774950      54.012000000000
        86    2   1.000000       42.759499774950      29.256499774950       0.000000000000
        87    1   3.000000       42.759499774950      29.256499774950      13.503000000000
        88    2   1.000000       42.759499774950      29.256499774950      27.006000000000
        89    1   3.000000       42.759499774950      29.256499774950      40.509000000000
        90    2   1.000000       42.759499774950      29.256499774950      54.012000000000
        91    1   3.000000       42.759499774950      42.759499774950       0.000000000000
        92    2   1.000000       42.759499774950      42.759499774950      13.503000000000
        93    1   3.000000       42.759499774950      42.759499774950      27.006000000000
        94    2   1.000000       42.759499774950      42.759499774950      40.509000000000
        95    1   3.000000       42.759499774950      42.759499774950      54.012000000000
        96    2   1.000000       42.759499774950      56.262499774950       0.000000000000
        97    1   3.000000       42.759499774950      56.262499774950      13.503000000000
        98    2   1.000000       42.759499774950      56.262499774950      27.006000000000
        99    1   3.000000       42.759499774950      56.262499774950      40.509000000000
       100    2   1.000000       42.759499774950      56.262499774950      54.012000000000
       101    1   3.000000       56.262499774950       2.250499774950       0.000000000000
       102    2   1.000000       56.262499774950       2.250499774950      13.503000000000
       103    1   3.000000       56.262499774950       2.250499774950      27.006000000000
       104    2   1.000000       56.262499774950       2.250499774950      40.509000000000
       105    1   3.000000       56.262499774950       2.250499774950      54.012000000000
       106    2   1.000000       56.262499774950      15.753499774950       0.000000000000
       107    1   3.000000       56.262499774950      15.753499774950      13.503000000000
       108    2   1.000000       56.262499774950      15.753499774950      27.006000000000
       109    1   3.000000       56.262499774950      15.753499774950      40.509000000000
       110    2   1.000000       56.262499774950      15.753499774950      54.012000000000
       111    1   3.000000       56.262499774950      29.256499774950       0.000000000000
       112    2   1.000000       56.262499774950      29.256499774950      13.503000000000
       113    1   3.000000       56.262499774950      29.256499774950      27.006000000000
       114    2   1.000000       56.262499774950      29.256499774950      40.509000000000
       115    1   3.000000       56.262499774950      29.256499774950      54.012000000000
       116    2   1.000000       56.262499774950      42.759499774950       0.000000000000
       117    1   3.000000       56.262499774950      42.759499774950      13.503000000000
       118    2   1.000000       56.262499774950      42.759499774950      27.006000000000
       119    1   3.000000       56.262499774950      42.759499774950      40.509000000000
       120    2   1.000000       56.262499774950      42.759499774950      54.012000000000
       121    1   3.000000       56.262499774950      56.262499774950       0.000000000000
       122    2   1.000000       56.262499774950      56.262499774950      13.503000000000
       123    1   3.000000       56.262499774950      56.262499774950      27.006000000000
       124    2   1.000000       56.262499774950      56.262499774950      40.509000000000
       125    1   3.000000       56.262499774950      56.262499774950      54.012000000000
       126    2   1.000000        2.250499774950       2.250499774950       4.501000225050
       127    2   1.000000        2.250499774950       2.250499774950      18.004000225050
       128    2   1.000000        2.250499774950       2.250499774950      31.507000225050
       129    2   1.000000        2.250499774950       2.250499774950      45.010000225050
       130    2   1.000000        2.250499774950       2.250499774950      58.513000225050
       131    2   1.000000        2.250499774950      15.753499774950       4.501000225050
       132    2   1.000000        2.250499774950      15.753499774950      18.004000225050
       133    2   1.000000        2.250499774950      15.753499774950      31.507000225050
       134    2   1.000000        2.250499774950      15.753499774950      45.010000225050
       135    2   1.000000        2.250499774950      15.753499774950      58.513000225050
       136    2   1.000000        2.250499774950      29.256499774950       4.501000225050
       137    2   1.000000        2.250499774950      29.256499774950      18.004000225050
       138    2   1.000000        2.250499774950      29.256499774950      31.507000225050
       139    2   1.000000        2.250499774950      29.256499774950      45.010000225050
       140    2   1.000000        2.250499774950      29.256499774950      58.513000225050
       141    2   1.000000        2.250499774950      42.759499774950       4.501000225050
       142    2   1.000000        2.250499774950      42.759499774950      18.004000225050
       143    2   1.000000        2.250499774950      42.759499774950      31.507000225050
       144    2   1.000000        2.250499774950      42.759499774950      45.010000225050
       145    2   1.000000        2.250499774950      42.759499774950      58.513000225050
       146    2   1.000000        2.250499774950      56.262499774950       4.501000225050
       147    2   1.000000        2.250499774950      56.262499774950      18.004000225050
       148    2   1.000000        2.250499774950      56.262499774950      31.507000225050
       149    2   1.000000        2.250499774950      56.262499774950      45.010000225050
       150    2   1.000000        2.250499774950      56.262499774950      58.513000225050
       151    2   1.000000       15.753499774950       2.250499774950       4.501000225050
       152    2   1.000000       15.753499774950       2.250499774950      18.004000225050
       153    2   1.000000       15.753499774950       2.250499774950      31.507000225050
       154    2   1.000000       15.753499774950       2.250499774950      45.010000225050
       155    2   1.000000       15.753499774950       2.250499774950      58.513000225050
       156    2   1.000000       15.753499774950      15.753499774950       4.501000225050
       157    2   1.000000       15.753499774950      15.753499774950      18.004000225050
       158    2   1.000000       15.753499774950      15.753499774950      31.507000225050
       159    2   1.000000       15.753499774950      15.753499774950      45.010000225050
       160    2   1.000000       15.753499774950      15.753499774950      58.513000225050
       161    2   1.000000       15.753499774950      29.256499774950       4.501000225050
       162    2   1.000000       15.753499774950      29.256499774950      18.004000225050
       163    2   1.000000       15.753499774950      29.256499774950      31.507000225050
       164    2   1.000000       15.753499774950      29.256499774950      45.010000225050
       165    2   1.000000       15.753499774950      29.256499774950      58.513000225050
       166    2   1.000000       15.753499774950      42.759499774950       4.501000225050
       167    2   1.000000       15.753499774950      42.759499774950      18.004000225050
       168    2   1.000000       15.753499774950      42.759499774950      31.507000225050
       169    2   1.000000       15.753499774950      42.759499774950      45.010000225050
       170    2   1.000000       15.753499774950      42.759499774950      58.513000225050
       171    2   1.000000       15.753499774950      56.262499774950       4.501000225050
       172    2   1.000000       15.753499774950      56.262499774950      18.004000225050
       173    2   1.000000       15.753499774950      56.262499774950      31.507000225050
       174    2   1.000000       15.753499774950      56.262499774950      45.010000225050
       175    2   1.000000       15.753499774950      56.262499774950      58.513000225050
       176    2   1.000000       29.256499774950       2.250499774950       4.501000225050
       177    2   1.000000       29.256499774950       2.250499774950      18.004000225050
       178    2   1.000000       29.256499774950       2.250499774950      31.507000225050
       179    2   1.000000       29.256499774950       2.250499774950      45.010000225050
       180    2   1.000000       29.256499774950       2.250499774950      58.513000225050
       181    2   1.000000       29.256499774950      15.753499774950       4.501000225050
       182    2   1.000000       29.256499774950      15.753499774950      18.004000225050
       183    2   1.000000       29.256499774950      15.753499774950      31.507000225050
       184    2   1.000000       29.256499774950      15.753499774950      45.010000225050
       185    2   1.000000       29.256499774950      15.753499774950      58.513000225050
       186    2   1.000000       29.256499774950      29.256499774950       4.501000225050
       187    2   1.000000       29.256499774950      29.256499774950      18.004000225050
       188    2   1.000000       29.256499774950      29.256499774950      31.507000225050
       189    2   1.000000       29.256499774950      29.256499774950      45.010000225050
       190    2   1.000000       29.256499774950      29.256499774950      58.513000225050
       191    2   1.000000       29.256499774950      42.759499774950       4.501000225050
       192    2   1.000000       29.256499774950      42.759499774950      18.004000225050
       193    2   1.000000       29.256499774950      42.759499774950      31.507000225050
       194    2   1.000000       29.256499774950      42.759499774950      45.010000225050
       195    2   1.000000       29.256499774950      42.759499774950      58.513000225050
       196    2   1.000000       29.256499774950      56.262499774950       4.501000225050
       197    2   1.000000       29.256499774950      56.262499774950      18.004000225050
       198    2   1.000000       29.256499774950      56.262499774950      31.507000225050
       199    2   1.000000       29.256499774950      56.262499774950      45.010000225050
       200    2   1.000000       29.256499774950      56.262499774950      58.513000225050
       201    2   1.000000       42.759499774950       2.250499774950       4.501000225050
       202    2   1.000000       42.759499774950       2.250499774950      18.004000225050
       203    2   1.000000       42.759499774950       2.250499774950      31.507000225050
       204    2   1.000000       42.759499774950       2.250499774950      58.513000225050
       205    2   1.000000       42.759499774950      15.753499774950       4.501000225050
       206    2   1.000000       42.759499774950      15.753499774950      18.004000225050
       207    2   1.000000       42.759499774950      15.753499774950      31.507000225050
       208    2   1.000000       42.759499774950      15.753499774950      45.010000225050
       209    2   1.000000       42.759499774950      15.753499774950      58.513000225050
       210    2   1.000000       42.759499774950      29.256499774950       4.501000225050
       211    2   1.000000       42.759499774950      29.256499774950      18.004000225050
       212    2   1.000000       42.759499774950      29.256499774950      31.507000225050
       213    2   1.000000       42.759499774950      29.256499774950      45.010000225050
       214    2   1.000000       42.759499774950      29.256499774950      58.513000225050
       215    2   1.000000       42.759499774950      42.759499774950       4.501000225050
       216    2   1.000000       42.759499774950      42.759499774950      18.004000225050
       217    2   1.000000       42.759499774950      42.759499774950      31.507000225050
       218    2   1.000000       42.759499774950      42.759499774950      45.010000225050
       219    2   1.000000       42.759499774950      42.759499774950      58.513000225050
       220    2   1.000000       42.759499774950      56.262499774950       4.501000225050
       221    2   1.000000       42.759499774950      56.262499774950      18.004000225050
       222    2   1.000000       42.759499774950      56.262499774950      31.507000225050
       223    2   1.000000       42.759499774950      56.262499774950      45.010000225050
       224    2   1.000000       42.759499774950      56.262499774950      58.513000225050
       225    2   1.000000       56.262499774950       2.250499774950       4.501000225050
       226    2   1.000000       56.262499774950       2.250499774950      18.004000225050
       227    2   1.000000       56.262499774950       2.250499774950      31.507000225050
       228    2   1.000000       56.262499774950       2.250499774950      45.010000225050
       229    2   1.000000       56.262499774950       2.250499774950      58.513000225050
       230    2   1.000000       56.262499774950      15.753499774950       4.501000225050
       231    2   1.000000       56.262499774950      15.753499774950      18.004000225050
       232    2   1.000000       56.262499774950      15.753499774950      31.507000225050
       233    2   1.000000       56.262499774950      15.753499774950      45.010000225050
       234    2   1.000000       56.262499774950      15.753499774950      58.513000225050
       235    2   1.000000       56.262499774950      29.256499774950       4.501000225050
       236    2   1.000000       56.262499774950      29.256499774950      18.004000225050
       237    2   1.000000       56.262499774950      29.256499774950      31.507000225050
       238    2   1.000000       56.262499774950      29.256499774950      45.010000225050
       239    2   1.000000       56.262499774950      29.256499774950      58.513000225050
       240    2   1.000000       56.262499774950      42.759499774950       4.501000225050
       241    2   1.000000       56.262499774950      42.759499774950      18.004000225050
       242    2   1.000000       56.262499774950      42.759499774950      31.507000225050
       243    2   1.000000       56.262499774950      42.759499774950      45.010000225050
       244    2   1.000000       56.262499774950      42.759499774950      58.513000225050
       245    2   1.000000       56.262499774950      56.262499774950       4.501000225050
       246    2   1.000000       56.262499774950      56.262499774950      18.004000225050
       247    2   1.000000       56.262499774950      56.262499774950      31.507000225050
       248    2   1.000000       56.262499774950      56.262499774950      45.010000225050
       249    2   1.000000       56.262499774950      56.262499774950      58.513000225050
       250    2   1.000000        2.250499774950       2.250499774950       9.001999774950
       251    2   1.000000        2.250499774950       2.250499774950      22.504999774950
       252    2   1.000000        2.250499774950       2.250499774950      36.007999774950
       253    2   1.000000        2.250499774950       2.250499774950      49.510999774950
       254    2   1.000000        2.250499774950       2.250499774950      63.013999774950
       255    2   1.000000        2.250499774950      15.753499774950       9.001999774950
       256    2   1.000000        2.250499774950      15.753499774950      22.504999774950
       257    2   1.000000        2.250499774950      15.753499774950      36.007999774950
       258    2   1.000000        2.250499774950      15.753499774950      49.510999774950
       259    2   1.000000        2.250499774950      15.753499774950      63.013999774950
       260    2   1.000000        2.250499774950      29.256499774950       9.001999774950
       261    2   1.000000        2.250499774950      29.256499774950      22.504999774950
       262    2   1.000000        2.250499774950      29.256499774950      36.007999774950
       263    2   1.000000        2.250499774950      29.256499774950      49.510999774950
       264    2   1.000000        2.250499774950      29.256499774950      63.013999774950
       265    2   1.000000        2.250499774950      42.759499774950       9.001999774950
       266    2   1.000000        2.250499774950      42.759499774950      22.504999774950
       267    2   1.000000        2.250499774950      42.759499774950      36.007999774950
       268    2   1.000000        2.250499774950      42.759499774950      49.510999774950
       269    2   1.000000        2.250499774950      42.759499774950      63.013999774950
       270    2   1.000000        2.250499774950      56.262499774950       9.001999774950
       271    2   1.000000        2.250499774950      56.262499774950      22.504999774950
       272    2   1.000000        2.250499774950      56.262499774950      36.007999774950
       273    2   1.000000        2.250499774950      56.262499774950      49.510999774950
       274    2   1.000000        2.250499774950      56.262499774950      63.013999774950
       275    2   1.000000       15.753499774950       2.250499774950       9.001999774950
       276    2   1.000000       15.753499774950       2.250499774950      22.504999774950
       277    2   1.000000       15.753499774950       2.250499774950      36.007999774950
       278    2   1.000000       15.753499774950       2.250499774950      49.510999774950
       279    2   1.000000       15.753499774950       2.250499774950      63.013999774950
       280    2   1.000000       15.753499774950      15.753499774950       9.001999774950
       281    2   1.000000       15.753499774950      15.753499774950      22.504999774950
       282    2   1.000000       15.753499774950      15.753499774950      36.007999774950
       283    2   1.000000       15.753499774950      15.753499774950      49.510999774950
       284    2   1.000000       15.753499774950      15.753499774950      63.013999774950
       285    2   1.000000       15.753499774950      29.256499774950       9.001999774950
       286    2   1.000000       15.753499774950      29.256499774950      22.504999774950
       287    2   1.000000       15.753499774950      29.256499774950      36.007999774950
       288    2   1.000000       15.753499774950      29.256499774950      49.510999774950
       289    2   1.000000       15.753499774950      29.256499774950      63.013999774950
       290    2   1.000000       15.753499774950      42.759499774950       9.001999774950
       291    2   1.000000       15.753499774950      42.759499774950      22.504999774950
       292    2   1.000000       15.753499774950      42.759499774950      36.007999774950
       293    2   1.000000       15.753499774950      42.759499774950      49.510999774950
       294    2   1.000000       15.753499774950      42.759499774950      63.013999774950
       295    2   1.000000       15.753499774950      56.262499774950       9.001999774950
       296    2   1.000000       15.753499774950      56.262499774950      22.504999774950
       297    2   1.000000       15.753499774950      56.262499774950      36.007999774950
       298    2   1.000000       15.753499774950      56.262499774950      49.510999774950
       299    2   1.000000       15.753499774950      56.262499774950      63.013999774950
       300    2   1.000000       29.256499774950       2.250499774950       9.001999774950
       301    2   1.000000       29.256499774950       2.250499774950      22.504999774950
       302    2   1.000000       29.256499774950       2.250499774950      36.007999774950
       303    2   1.000000       29.256499774950       2.250499774950      49.510999774950
       304    2   1.000000       29.256499774950       2.250499774950      63.013999774950
       305    2   1.000000       29.256499774950      15.753499774950       9.001999774950
       306    2   1.000000       29.256499774950      15.753499774950      22.504999774950
       307    2   1.000000       29.256499774950      15.753499774950      36.007999774950
       308    2   1.000000       29.256499774950      15.753499774950      49.510999774950
       309    2   1.000000       29.256499774950      15.753499774950      63.013999774950
       310    2   1.000000       29.256499774950      29.256499774950       9.001999774950
       311    2   1.000000       29.256499774950      29.256499774950      22.504999774950
       312    2   1.000000       29.256499774950      29.256499774950      36.007999774950
       313    2   1.000000       29.256499774950      29.256499774950      49.510999774950
       314    2   1.000000       29.256499774950      29.256499774950      63.013999774950
       315    2   1.000000       29.256499774950      42.759499774950       9.001999774950
       316    2   1.000000       29.256499774950      42.759499774950      22.504999774950
       317    2   1.000000       29.256499774950      42.759499774950      36.007999774950
       318    2   1.000000       29.256499774950      42.759499774950      49.510999774950
       319    2   1.000000       29.256499774950      42.759499774950      63.013999774950
       320    2   1.000000       29.256499774950      56.262499774950       9.001999774950
       321    2   1.000000       29.256499774950      56.262499774950      22.504999774950
       322    2   1.000000       29.256499774950      56.262499774950      36.007999774950
       323    2   1.000000       29.256499774950      56.262499774950      49.510999774950
       324    2   1.000000       29.256499774950      56.262499774950      63.013999774950