********************************************************************************
*                       GENERAL UTILITY LATTICE PROGRAM                        *
*                                 Julian Gale                                  *
*                       Curtin Institute for Computation                       *
*                    School of Molecular and Life Sciences                     *
*                    Curtin University, Western Australia                      *
********************************************************************************
* Version = 5.2.0 * Last modified =  10th September 2020                       *
********************************************************************************
*  optimise     - perform optimisation run                                     *
*  conp         - constant pressure calculation                                *
*  property     - calculate properties for final geometry                      *
*  defect       - perform defect calculation after bulk run                    *
*  compare      - compare initial and final structures                         *
********************************************************************************

  Job Started  at 10:42.46  4th December   2020                               

  Number of CPUs =     1


  Total number of configurations input =      1

********************************************************************************
*  Input for Configuration =   1                                               *
********************************************************************************

  Formula = ClONa3                                                      

  Number of irreducible atoms/shells =       5


  Total number atoms/shells =       7

  Dimensionality = 3               :  Bulk   


  Symmetry :

  Crystal family                   :  Cubic       
  Crystal class  (Groth - 1921)    :  Cubic Hexakisoctahedral              

  Space group (centrosymmetric)    :  P M 3 M         

  Patterson group                  :  P m -3 m 

  Cartesian lattice vectors (Angstroms) :

        4.504000    0.000000    0.000000
        0.000000    4.504000    0.000000
        0.000000    0.000000    4.504000

  Cell parameters (Angstroms/Degrees):

  a =       4.5040    alpha =  90.0000
  b =       4.5040    beta  =  90.0000
  c =       4.5040    gamma =  90.0000

  Initial cell volume =          91.368216 Angs**3

  Temperature of configuration =   0.00     K 

  Pressure of configuration =         0.000 GPa 

  Fractional coordinates of asymmetric unit :

--------------------------------------------------------------------------------
   No.  Atomic       x           y          z         Charge      Occupancy
        Label      (Frac)      (Frac)     (Frac)        (e)         (Frac)  
--------------------------------------------------------------------------------
      1 Cl    c    0.000000    0.000000    0.000000     1.48500    1.000000    
      2 O     c    0.500000    0.500000    0.500000     0.18300    1.000000    
      3 Na    c    0.500000    0.500000    0.000000     1.00000    1.000000    
      4 Cl    s    0.000000    0.000000    0.000000    -2.48500    1.000000    
      5 O     s    0.500000    0.500000    0.500000    -2.18300    1.000000    
--------------------------------------------------------------------------------


  Constraints : 

--------------------------------------------------------------------------------
  Constraint no.      Unconstrained     Constrained    Coefficient    Offset
                         Variable         Variable
--------------------------------------------------------------------------------
           1              Strain 1        Strain 2       1.00000      0.0000
           2              Strain 1        Strain 3       1.00000      0.0000
--------------------------------------------------------------------------------


********************************************************************************
*  General input information                                                   *
********************************************************************************

  Species output for all configurations : 

--------------------------------------------------------------------------------
  Species    Type    Atomic    Atomic    Charge       Radii (Angs)     Library
                     Number     Mass       (e)     Cova   Ionic  VDW   Symbol
--------------------------------------------------------------------------------
    Na       Core       11      22.99   1.000000   0.970  0.000  2.300          
    O        Core        8      16.00   0.183000   0.730  0.000  1.360          
    O        Shell       8       0.00  -2.183000   0.730  0.000  1.360          
    Cl       Core       17      35.45   1.485000   0.990  0.000  1.650          
    Cl       Shell      17       0.00  -2.485000   0.990  0.000  1.650          
    Mg       Core       12      24.31   0.415000   1.100  0.000  0.000          
    Mg       Shell      12       0.00   1.585000   1.100  0.000  0.000          
    Ca       Core       20      40.08  -1.135000   0.990  0.000  0.000          
    Ca       Shell      20       0.00   3.135000   0.990  0.000  0.000          
    Sr       Core       38      87.62  -1.251000   1.120  0.000  0.000          
    Sr       Shell      38       0.00   3.251000   1.120  0.000  0.000          
    Ba       Core       56     137.33  -7.203000   1.340  0.000  0.000          
    Ba       Shell      56       0.00   9.203000   1.340  0.000  0.000          
--------------------------------------------------------------------------------


  Lattice summation method               =    Ewald          (3-D)
                                         =    Parry          (2-D)
                                         =    Saunders et al (1-D)
  Accuracy factor for lattice sums       =   12.000


  Analytic derivatives to be used

  Time limit = Infinity

  Maximum range for interatomic potentials =    100000.000000 Angstroms

  General interatomic potentials :

--------------------------------------------------------------------------------
Atom  Types   Potential      Parameter       Value         Units   Cutoffs(Ang)
  1     2                                                            Min /  Max 
--------------------------------------------------------------------------------
O    c O    s Spring (c-s)  Spring k 2       593.71600    eV*Ang^-2 0.000  0.800
                            Spring k 4       0.0000000    eV*Ang^-4 
--------------------------------------------------------------------------------
Cl   c Cl   s Spring (c-s)  Spring k 2       29.380000    eV*Ang^-2 0.000  0.800
                            Spring k 4       0.0000000    eV*Ang^-4 
--------------------------------------------------------------------------------
Mg   c Mg   s Spring (c-s)  Spring k 2       361.60000    eV*Ang^-2 0.000  0.800
                            Spring k 4       0.0000000    eV*Ang^-4 
--------------------------------------------------------------------------------
Ca   c Ca   s Spring (c-s)  Spring k 2       110.20000    eV*Ang^-2 0.000  0.800
                            Spring k 4       0.0000000    eV*Ang^-4 
--------------------------------------------------------------------------------
Sr   c Sr   s Spring (c-s)  Spring k 2       71.700000    eV*Ang^-2 0.000  0.800
                            Spring k 4       0.0000000    eV*Ang^-4 
--------------------------------------------------------------------------------
Ba   c Ba   s Spring (c-s)  Spring k 2       495.20000    eV*Ang^-2 0.000  0.800
                            Spring k 4       0.0000000    eV*Ang^-4 
--------------------------------------------------------------------------------
Na   c Na   c Buckingham    Buckingham A     1788.1900    eV        0.000 12.000
                            Buckingham rho  0.15900000    Ang       
                            Buckingham C     0.0000000    eV*Ang^6  
--------------------------------------------------------------------------------
Na   c O    s Buckingham    Buckingham A     1226.8400    eV        0.000 12.000
                            Buckingham rho  0.30700000    Ang       
                            Buckingham C     0.0000000    eV*Ang^6  
--------------------------------------------------------------------------------
Na   c Cl   s Buckingham    Buckingham A     2314.7000    eV        0.000 12.000
                            Buckingham rho  0.29000000    Ang       
                            Buckingham C     0.0000000    eV*Ang^6  
--------------------------------------------------------------------------------
O    s O    s Buckingham    Buckingham A     22764.300    eV        0.000 12.000
                            Buckingham rho  0.14900000    Ang       
                            Buckingham C     13.190000    eV*Ang^6  
--------------------------------------------------------------------------------
O    s Cl   s Buckingham    Buckingham A     8286.9100    eV        0.000 12.000
                            Buckingham rho  0.25900000    Ang       
                            Buckingham C     62.200000    eV*Ang^6  
--------------------------------------------------------------------------------
Cl   s Cl   s Buckingham    Buckingham A     1227.2000    eV        0.000 12.000
                            Buckingham rho  0.32100000    Ang       
                            Buckingham C     14.530000    eV*Ang^6  
--------------------------------------------------------------------------------
O    s Mg   s Buckingham    Buckingham A     1428.5000    eV        0.000 12.000
                            Buckingham rho  0.29450000    Ang       
                            Buckingham C     0.0000000    eV*Ang^6  
--------------------------------------------------------------------------------
Mg   s Cl   s Buckingham    Buckingham A     4914.5400    eV        0.000 12.000
                            Buckingham rho  0.25700000    Ang       
                            Buckingham C     0.0000000    eV*Ang^6  
--------------------------------------------------------------------------------
O    s Ca   s Buckingham    Buckingham A     1090.4000    eV        0.000 12.000
                            Buckingham rho  0.34370000    Ang       
                            Buckingham C     0.0000000    eV*Ang^6  
--------------------------------------------------------------------------------
Cl   s Ca   s Buckingham    Buckingham A     2302.0000    eV        0.000 12.000
                            Buckingham rho  0.34020000    Ang       
                            Buckingham C     0.0000000    eV*Ang^6  
--------------------------------------------------------------------------------
O    s Sr   s Buckingham    Buckingham A     959.10000    eV        0.000 12.000
                            Buckingham rho  0.37210000    Ang       
                            Buckingham C     0.0000000    eV*Ang^6  
--------------------------------------------------------------------------------
Cl   s Sr   s Buckingham    Buckingham A     2191.0900    eV        0.000 12.000
                            Buckingham rho  0.34570000    Ang       
                            Buckingham C     0.0000000    eV*Ang^6  
--------------------------------------------------------------------------------
O    s Ba   s Buckingham    Buckingham A     905.70000    eV        0.000 12.000
                            Buckingham rho  0.39760000    Ang       
                            Buckingham C     0.0000000    eV*Ang^6  
--------------------------------------------------------------------------------
Cl   s Ba   s Buckingham    Buckingham A     2704.5500    eV        0.000 12.000
                            Buckingham rho  0.35280000    Ang       
                            Buckingham C     0.0000000    eV*Ang^6  
--------------------------------------------------------------------------------

********************************************************************************
*  Output for configuration   1                                                *
********************************************************************************


  Components of energy : 

--------------------------------------------------------------------------------
  Interatomic potentials     =           5.13022605 eV    
  Monopole - monopole (real) =         -10.03624526 eV    
  Monopole - monopole (recip)=         -29.53581274 eV    
  Monopole - monopole (total)=         -39.57205800 eV    
--------------------------------------------------------------------------------
  Total lattice energy       =         -34.44183194 eV    
--------------------------------------------------------------------------------
  Total lattice energy       =           -3323.1103 kJ/(mole unit cells)
--------------------------------------------------------------------------------


  Number of variables =        1

  Maximum number of calculations  =          1000
  Maximum Hessian update interval =            10
  Maximum step size               =   1.000000000
  Maximum parameter tolerance     =   0.000010000
  Maximum function  tolerance     =   0.000010000
  Maximum gradient  tolerance     =   0.001000000
  Maximum gradient  component     =   0.010000000

  Symmetry constrained optimisation

  Symmetry used for second derivatives

  Cell parameters to be optimised using strains

  Newton-Raphson optimiser to be used

  BFGS hessian update to be used

  Lower half triangular hessian to be used

  Start of bulk optimisation :

  Cycle:      0 Energy:       -34.441832  Gnorm:      0.196570  CPU:    0.005
  ** Hessian calculated **
  Cycle:      1 Energy:       -34.441914  Gnorm:      0.000103  CPU:    0.006


  **** Optimisation achieved ****


  Final energy =     -34.44191447 eV
  Final Gnorm  =       0.00000000

  Components of energy : 

--------------------------------------------------------------------------------
  Interatomic potentials     =           5.09689708 eV    
  Monopole - monopole (real) =         -10.02781331 eV    
  Monopole - monopole (recip)=         -29.51099824 eV    
  Monopole - monopole (total)=         -39.53881155 eV    
--------------------------------------------------------------------------------
  Total lattice energy       =         -34.44191447 eV    
--------------------------------------------------------------------------------
  Total lattice energy       =           -3323.1183 kJ/(mole unit cells)
--------------------------------------------------------------------------------

  Final asymmetric unit coordinates :

--------------------------------------------------------------------------------
   No.  Atomic        x           y           z         Radius
        Label       (Frac)      (Frac)      (Frac)       (Angs) 
--------------------------------------------------------------------------------
     1  Cl    c     0.000000    0.000000    0.000000    0.000000
     2  O     c     0.500000    0.500000    0.500000    0.000000
     3  Na    c     0.500000    0.500000    0.000000    0.000000
     4  Cl    s     0.000000    0.000000    0.000000    0.000000
     5  O     s     0.500000    0.500000    0.500000    0.000000
--------------------------------------------------------------------------------

  Final Cartesian lattice vectors (Angstroms) :

        4.507787    0.000000    0.000000
        0.000000    4.507787    0.000000
        0.000000    0.000000    4.507787


  Final cell parameters and derivatives :

--------------------------------------------------------------------------------
       a            4.507787 Angstrom     dE/de1(xx)     0.000000 eV/strain
       b            4.507787 Angstrom     dE/de2(yy)     0.000000 eV/strain
       c            4.507787 Angstrom     dE/de3(zz)     0.000000 eV/strain
       alpha       90.000000 Degrees      dE/de4(yz)     0.000000 eV/strain
       beta        90.000000 Degrees      dE/de5(xz)     0.000000 eV/strain
       gamma       90.000000 Degrees      dE/de6(xy)     0.000000 eV/strain
--------------------------------------------------------------------------------

  Primitive cell volume =            91.598892 Angs**3

  Density of cell =      2.183054 g/cm**3

  Non-primitive cell volume =            91.598892 Angs**3


  Final internal derivatives :

--------------------------------------------------------------------------------
   No.  Atomic          a             b             c           Radius
        Label          (eV)          (eV)          (eV)        (eV/Angs)
--------------------------------------------------------------------------------
      1 Cl    c       0.000000      0.000000      0.000000      0.000000
      2 O     c       0.000000      0.000000      0.000000      0.000000
      3 Na    c       0.000000      0.000000      0.000000      0.000000
      4 Cl    s       0.000000      0.000000      0.000000      0.000000
      5 O     s       0.000000      0.000000      0.000000      0.000000
--------------------------------------------------------------------------------
  Maximum abs         0.000000      0.000000      0.000000      0.000000
--------------------------------------------------------------------------------

  Comparison of initial and final structures : 

--------------------------------------------------------------------------------
  Parameter   Initial value   Final value   Difference    Units      Percent
--------------------------------------------------------------------------------
    Volume        91.368216     91.598892     0.230676    Angs**3      0.25
    a              4.504000      4.507787     0.003787    Angstroms    0.08
    b              4.504000      4.507787     0.003787    Angstroms    0.08
    c              4.504000      4.507787     0.003787    Angstroms    0.08
    alpha         90.000000     90.000000     0.000000    Degrees      0.00
    beta          90.000000     90.000000     0.000000    Degrees      0.00
    gamma         90.000000     90.000000     0.000000    Degrees      0.00
      1 x          0.000000      0.000000     0.000000    Fractional   0.00
      1 y          0.000000      0.000000     0.000000    Fractional   0.00
      1 z          0.000000      0.000000     0.000000    Fractional   0.00
      2 x          0.500000      0.500000     0.000000    Fractional   0.00
      2 y          0.500000      0.500000     0.000000    Fractional   0.00
      2 z          0.500000      0.500000     0.000000    Fractional   0.00
      3 x          0.500000      0.500000     0.000000    Fractional   0.00
      3 y          0.500000      0.500000     0.000000    Fractional   0.00
      3 z          0.000000      0.000000     0.000000    Fractional   0.00
      4 x          0.000000      0.000000     0.000000    Fractional   0.00
      4 y          0.000000      0.000000     0.000000    Fractional   0.00
      4 z          0.000000      0.000000     0.000000    Fractional   0.00
      5 x          0.500000      0.500000     0.000000    Fractional   0.00
      5 y          0.500000      0.500000     0.000000    Fractional   0.00
      5 z          0.500000      0.500000     0.000000    Fractional   0.00
--------------------------------------------------------------------------------


  Born effective charge tensors : 

-------------------------------------------------------------------------------
  Atom             x           y             z
-------------------------------------------------------------------------------
    1 Cl    x      -1.0181     -0.0000      0.0000
            y      -0.0000     -1.0181      0.0000
            z       0.0000      0.0000     -1.0181
-------------------------------------------------------------------------------
    2 O     x      -2.2647      0.0000     -0.0000
            y       0.0000     -2.2647     -0.0000
            z      -0.0000     -0.0000     -2.2647
-------------------------------------------------------------------------------
    3 Na    x       1.2258     -0.0000      0.0000
            y      -0.0000      1.2258     -0.0000
            z       0.0000     -0.0000      0.8313
-------------------------------------------------------------------------------




  Elastic Constant Matrix: (Units=GPa)

-------------------------------------------------------------------------------
  Indices      1         2         3         4         5         6    
-------------------------------------------------------------------------------
       1     95.8177   20.0737   20.0737   -0.0000   -0.0000    0.0000
       2     20.0737   95.8177   20.0737   -0.0000   -0.0000    0.0000
       3     20.0737   20.0737   95.8177   -0.0000   -0.0000    0.0000
       4     -0.0000   -0.0000   -0.0000   20.0737   -0.0000    0.0000
       5     -0.0000   -0.0000   -0.0000   -0.0000   20.0737    0.0000
       6      0.0000    0.0000    0.0000    0.0000    0.0000   20.0737
-------------------------------------------------------------------------------


  Elastic Compliance Matrix: (Units=1/GPa)

-------------------------------------------------------------------------------
  Indices      1         2         3         4         5         6    
-------------------------------------------------------------------------------
       1    0.011253 -0.001949 -0.001949  0.000000  0.000000 -0.000000
       2   -0.001949  0.011253 -0.001949  0.000000  0.000000  0.000000
       3   -0.001949 -0.001949  0.011253  0.000000  0.000000 -0.000000
       4    0.000000  0.000000  0.000000  0.049816  0.000000 -0.000000
       5    0.000000  0.000000  0.000000  0.000000  0.049816 -0.000000
       6   -0.000000  0.000000 -0.000000 -0.000000 -0.000000  0.049816
-------------------------------------------------------------------------------

  Mechanical properties :

-------------------------------------------------------------------------------
  Convention :                    Reuss         Voigt         Hill
-------------------------------------------------------------------------------
  Bulk  Modulus (GPa)     =      45.32174      45.32174      45.32174
  Shear Modulus (GPa)     =      24.72085      27.19304      25.95695
-------------------------------------------------------------------------------
  Velocity S-wave (km/s)  =       3.36511       3.52937       3.44822
  Velocity P-wave (km/s)  =       5.98827       6.11304       6.05098
-------------------------------------------------------------------------------
  Compressibility (1/GPa) =    0.02206447
-------------------------------------------------------------------------------
  Stress axis :                     x             y             z
-------------------------------------------------------------------------------
  Youngs Moduli (GPa)     =      88.86373      88.86373      88.86373
-------------------------------------------------------------------------------
  Poissons Ratio (x)      =                     0.17321       0.17321
  Poissons Ratio (y)      =       0.17321                     0.17321
  Poissons Ratio (z)      =       0.17321       0.17321
-------------------------------------------------------------------------------


  Piezoelectric Strain Matrix: (Units=C/m**2)

-------------------------------------------------------------------------------
  Indices      1         2         3         4         5         6    
-------------------------------------------------------------------------------
       x    -0.00000  -0.00000  -0.00000   0.00000  -0.00000  -0.00000
       y    -0.00000  -0.00000   0.00000  -0.00000   0.00000   0.00000
       z    -0.00000  -0.00000  -0.00000  -0.00000   0.00000   0.00000
-------------------------------------------------------------------------------


  Piezoelectric Stress Matrix: (Units=10**-11 C/N)

-------------------------------------------------------------------------------
  Indices      1         2         3         4         5         6    
-------------------------------------------------------------------------------
       x    -0.00000   0.00000   0.00000   0.00000  -0.00000  -0.00000
       y    -0.00000  -0.00000   0.00000  -0.00000   0.00000   0.00000
       z     0.00000   0.00000  -0.00000  -0.00000   0.00000   0.00000
-------------------------------------------------------------------------------


  Static dielectric constant tensor : 

-------------------------------------------------------------------------------
              x         y         z
-------------------------------------------------------------------------------
       x    22.84729   0.00000   0.00000
       y     0.00000  22.84729  -0.00000
       z     0.00000  -0.00000  22.84729
--------------------------------------------------------------------------------

  High frequency dielectric constant tensor : 

-------------------------------------------------------------------------------
              x         y         z
-------------------------------------------------------------------------------
       x     1.47557   0.00000  -0.00000
       y     0.00000   1.47557  -0.00000
       z    -0.00000  -0.00000   1.47557
-------------------------------------------------------------------------------

  Static refractive indices : 

-------------------------------------------------------------------------------
    1 =    4.77988      2 =    4.77988      3 =    4.77988
-------------------------------------------------------------------------------

  High frequency refractive indices : 

-------------------------------------------------------------------------------
    1 =    1.21473      2 =    1.21473      3 =    1.21473
-------------------------------------------------------------------------------


  Time to end of optimisation =       0.0093 seconds

********************************************************************************
*  Defect calculation for configuration   1 :                                  *
********************************************************************************

  Total number of defects =      3

  Total charge on defect  =  -1.00

  Defect centre is at   0.5000   0.4900   0.0100  Frac

  Region 1 radius =  12.0000      Number of ions =    540

  Number of symmetry inequivalent region 1 ions  =    314

  Region 2 radius =  16.0000      Number of ions =    805

  Number of symmetry inequivalent region 2a ions =    438

  Region 2a mode = 4 : screened electrostatics due to region 1 
                       neglect correction to region 1 forces from 2a
                       region 2a displacements based on defects only

  Region 2a ions will only interact with defects in region 1

  Vacancies:

--------------------------------------------------------------------------------
    Specification type     Symbol/Number         x          y          z
--------------------------------------------------------------------------------
    Fractional                               0.500000   0.500000   0.000000
    Fractional                               0.500000   0.000000   0.500000
--------------------------------------------------------------------------------

  Interstitials:

--------------------------------------------------------------------------------
    Specification type     Symbol/Number         x          y          z
--------------------------------------------------------------------------------
    Atom/Fractional         Na               0.500000   0.010000   0.490000
--------------------------------------------------------------------------------


  Symmetry reduced region 1 (Relative to defect centre) :

--------------------------------------------------------------------------------
   No.   Atomic       x            y             z       Radius  Multiplicity   
         Label      (Angs)       (Angs)        (Angs)    (Angs)     
--------------------------------------------------------------------------------
     1  O     c      0.0000       0.0451 *     2.2088 *  0.0000     1          
     2  O     c      0.0000       0.0451 *    -2.2990 *  0.0000     1          
     3  Na    c      0.0000      -2.1637       2.1637    0.0000     1    Defect
     4  Na    c      2.2539 *     0.0451 *     2.2088 *  0.0000     2          
     5  Cl    c      2.2539 *    -2.2088 *    -0.0451 *  0.0000     2          
     6  Na    c      0.0000       2.2990 *     2.2088 *  0.0000     1          
     7  Na    c      0.0000      -2.2088 *    -2.2990 *  0.0000     1          
     8  Cl    c      2.2539 *     2.2990 *    -0.0451 *  0.0000     2          
     9  Na    c      2.2539 *     0.0451 *    -2.2990 *  0.0000     2          
    10  Na    c      0.0000       2.2990 *    -2.2990 *  0.0000     1          
    11  Na    c      0.0000       0.0451 *     4.4627 *  0.0000     1          
    12  Na    c      0.0000      -4.4627 *    -0.0451 *  0.0000     1          
    13  Na    c     -4.5078 *     0.0451 *    -0.0451 *  0.0000     2          
    14  Na    c      0.0000       4.5529 *    -0.0451 *  0.0000     1          
    15  Na    c      0.0000       0.0451 *    -4.5529 *  0.0000     1          
    16  O     c      0.0000      -4.4627 *     2.2088 *  0.0000     1          
    17  O     c     -4.5078 *     0.0451 *     2.2088 *  0.0000     2          
    18  O     c      0.0000      -4.4627 *    -2.2990 *  0.0000     1          
    19  O     c      0.0000       4.5529 *     2.2088 *  0.0000     1          
    20  O     c     -4.5078 *     0.0451 *    -2.2990 *  0.0000     2          
    21  O     c      0.0000       4.5529 *    -2.2990 *  0.0000     1          
    22  Cl    c      2.2539 *    -2.2088 *     4.4627 *  0.0000     2          
    23  Na    c      2.2539 *    -4.4627 *     2.2088 *  0.0000     2          
    24  Na    c     -4.5078 *    -2.2088 *     2.2088 *  0.0000     2          
    25  Cl    c      2.2539 *     2.2990 *     4.4627 *  0.0000     2          
    26  Na    c      2.2539 *    -4.4627 *    -2.2990 *  0.0000     2          
    27  Na    c     -4.5078 *     2.2990 *     2.2088 *  0.0000     2          
    28  Na    c     -4.5078 *    -2.2088 *    -2.2990 *  0.0000     2          
    29  Na    c      2.2539 *     4.5529 *     2.2088 *  0.0000     2          
    30  Cl    c      2.2539 *    -2.2088 *    -4.5529 *  0.0000     2          
    31  Na    c     -4.5078 *     2.2990 *    -2.2990 *  0.0000     2          
    32  Na    c      2.2539 *     4.5529 *    -2.2990 *  0.0000     2          
    33  Cl    c      2.2539 *     2.2990 *    -4.5529 *  0.0000     2          
    34  Na    c      0.0000      -4.4627 *     4.4627 *  0.0000     1          
    35  Na    c     -4.5078 *     0.0451 *     4.4627 *  0.0000     2          
    36  Na    c     -4.5078 *    -4.4627 *    -0.0451 *  0.0000     2          
    37  Na    c      0.0000       4.5529 *     4.4627 *  0.0000     1          
    38  Na    c      0.0000      -4.4627 *    -4.5529 *  0.0000     1          
    39  Na    c     -4.5078 *     4.5529 *    -0.0451 *  0.0000     2          
    40  Na    c     -4.5078 *     0.0451 *    -4.5529 *  0.0000     2          
    41  Na    c      0.0000       4.5529 *    -4.5529 *  0.0000     1          
    42  O     c     -4.5078 *    -4.4627 *     2.2088 *  0.0000     2          
    43  O     c      0.0000       0.0451 *     6.7166 *  0.0000     1          
    44  O     c     -4.5078 *    -4.4627 *    -2.2990 *  0.0000     2          
    45  O     c     -4.5078 *     4.5529 *     2.2088 *  0.0000     2          
    46  O     c     -4.5078 *     4.5529 *    -2.2990 *  0.0000     2          
    47  O     c      0.0000       0.0451 *    -6.8068 *  0.0000     1          
    48  Na    c      0.0000      -2.2088 *     6.7166 *  0.0000     1          
    49  Na    c      0.0000      -6.7166 *     2.2088 *  0.0000     1          
    50  Cl    c      2.2539 *    -6.7166 *    -0.0451 *  0.0000     2          
    51  Na    c      2.2539 *     0.0451 *     6.7166 *  0.0000     2          
    52  Na    c      0.0000       2.2990 *     6.7166 *  0.0000     1          
    53  Na    c      0.0000      -6.7166 *    -2.2990 *  0.0000     1          
    54  Cl    c      6.7617 *    -2.2088 *    -0.0451 *  0.0000     2          
    55  Na    c      6.7617 *     0.0451 *     2.2088 *  0.0000     2          
    56  Cl    c      6.7617 *     2.2990 *    -0.0451 *  0.0000     2          
    57  Na    c      6.7617 *     0.0451 *    -2.2990 *  0.0000     2          
    58  Na    c      0.0000       6.8068 *     2.2088 *  0.0000     1          
    59  Na    c      0.0000      -2.2088 *    -6.8068 *  0.0000     1          
    60  Cl    c      2.2539 *     6.8068 *    -0.0451 *  0.0000     2          
    61  Na    c      2.2539 *     0.0451 *    -6.8068 *  0.0000     2          
    62  Na    c      0.0000       6.8068 *    -2.2990 *  0.0000     1          
    63  Na    c      0.0000       2.2990 *    -6.8068 *  0.0000     1          
    64  Na    c     -4.5078 *    -4.4627 *     4.4627 *  0.0000     2          
    65  Na    c     -4.5078 *     4.5529 *     4.4627 *  0.0000     2          
    66  Na    c     -4.5078 *    -4.4627 *    -4.5529 *  0.0000     2          
    67  Na    c     -4.5078 *     4.5529 *    -4.5529 *  0.0000     2          
    68  O     c      0.0000      -4.4627 *     6.7166 *  0.0000     1          
    69  O     c     -4.5078 *     0.0451 *     6.7166 *  0.0000     2          
    70  O     c      0.0000       4.5529 *     6.7166 *  0.0000     1          
    71  O     c      0.0000      -4.4627 *    -6.8068 *  0.0000     1          
    72  O     c     -4.5078 *     0.0451 *    -6.8068 *  0.0000     2          
    73  O     c      0.0000       4.5529 *    -6.8068 *  0.0000     1          
    74  Cl    c      2.2539 *    -6.7166 *     4.4627 *  0.0000     2          
    75  Na    c      2.2539 *    -4.4627 *     6.7166 *  0.0000     2          
    76  Na    c      4.5078 *    -2.2088 *     6.7166 *  0.0000     2          
    77  Na    c      4.5078 *    -6.7166 *     2.2088 *  0.0000     2          
    78  Cl    c      6.7617 *    -2.2088 *     4.4627 *  0.0000     2          
    79  Na    c      6.7617 *    -4.4627 *     2.2088 *  0.0000     2          
    80  Na    c     -4.5078 *     2.2990 *     6.7166 *  0.0000     2          
    81  Na    c      4.5078 *    -6.7166 *    -2.2990 *  0.0000     2          
    82  Cl    c      2.2539 *    -6.7166 *    -4.5529 *  0.0000     2          
    83  Cl    c      6.7617 *     2.2990 *     4.4627 *  0.0000     2          
    84  Na    c      2.2539 *     4.5529 *     6.7166 *  0.0000     2          
    85  Na    c      6.7617 *    -4.4627 *    -2.2990 *  0.0000     2          
    86  Cl    c      2.2539 *     6.8068 *     4.4627 *  0.0000     2          
    87  Na    c      6.7617 *     4.5529 *     2.2088 *  0.0000     2          
    88  Cl    c      6.7617 *    -2.2088 *    -4.5529 *  0.0000     2          
    89  Na    c      2.2539 *    -4.4627 *    -6.8068 *  0.0000     2          
    90  Na    c     -4.5078 *     6.8068 *     2.2088 *  0.0000     2          
    91  Na    c     -4.5078 *    -2.2088 *    -6.8068 *  0.0000     2          
    92  Cl    c      6.7617 *     2.2990 *    -4.5529 *  0.0000     2          
    93  Na    c      6.7617 *     4.5529 *    -2.2990 *  0.0000     2          
    94  Na    c     -4.5078 *     6.8068 *    -2.2990 *  0.0000     2          
    95  Na    c      4.5078 *     2.2990 *    -6.8068 *  0.0000     2          
    96  Cl    c      2.2539 *     6.8068 *    -4.5529 *  0.0000     2          
    97  Na    c      2.2539 *     4.5529 *    -6.8068 *  0.0000     2          
    98  Na    c      0.0000       0.0451 *     8.9705 *  0.0000     1          
    99  Na    c      0.0000      -8.9705 *    -0.0451 *  0.0000     1          
   100  Na    c      9.0156 *     0.0451 *    -0.0451 *  0.0000     2          
   101  Na    c      0.0000       9.0607 *    -0.0451 *  0.0000     1          
   102  Na    c      0.0000       0.0451 *    -9.0607 *  0.0000     1          
   103  O     c      4.5078 *    -4.4627 *     6.7166 *  0.0000     2          
   104  O     c      0.0000      -8.9705 *     2.2088 *  0.0000     1          
   105  O     c      0.0000      -8.9705 *    -2.2990 *  0.0000     1          
   106  O     c      4.5078 *     4.5529 *     6.7166 *  0.0000     2          
   107  O     c      9.0156 *     0.0451 *     2.2088 *  0.0000     2          
   108  O     c      9.0156 *     0.0451 *    -2.2990 *  0.0000     2          
   109  O     c     -4.5078 *    -4.4627 *    -6.8068 *  0.0000     2          
   110  O     c      0.0000       9.0607 *     2.2088 *  0.0000     1          
   111  O     c      0.0000       9.0607 *    -2.2990 *  0.0000     1          
   112  O     c     -4.5078 *     4.5529 *    -6.8068 *  0.0000     2          
   113  Na    c      0.0000      -6.7166 *     6.7166 *  0.0000     1          
   114  Cl    c      2.2539 *    -2.2088 *     8.9705 *  0.0000     2          
   115  Na    c      2.2539 *    -8.9705 *     2.2088 *  0.0000     2          
   116  Cl    c      2.2539 *     2.2990 *     8.9705 *  0.0000     2          
   117  Cl    c      6.7617 *    -6.7166 *    -0.0451 *  0.0000     2          
   118  Na    c      6.7617 *     0.0451 *     6.7166 *  0.0000     2          
   119  Na    c      2.2539 *    -8.9705 *    -2.2990 *  0.0000     2          
   120  Na    c      9.0156 *    -2.2088 *     2.2088 *  0.0000     2          
   121  Na    c      0.0000       6.8068 *     6.7166 *  0.0000     1          
   122  Na    c      9.0156 *     2.2990 *     2.2088 *  0.0000     2          
   123  Na    c      9.0156 *    -2.2088 *    -2.2990 *  0.0000     2          
   124  Na    c      0.0000      -6.7166 *    -6.8068 *  0.0000     1          
   125  Na    c      9.0156 *     2.2990 *    -2.2990 *  0.0000     2          
   126  Na    c      2.2539 *     9.0607 *     2.2088 *  0.0000     2          
   127  Cl    c      2.2539 *    -2.2088 *    -9.0607 *  0.0000     2          
   128  Cl    c      6.7617 *     6.8068 *    -0.0451 *  0.0000     2          
   129  Na    c      6.7617 *     0.0451 *    -6.8068 *  0.0000     2          
   130  Na    c      2.2539 *     9.0607 *    -2.2990 *  0.0000     2          
   131  Cl    c      2.2539 *     2.2990 *    -9.0607 *  0.0000     2          
   132  Na    c      0.0000       6.8068 *    -6.8068 *  0.0000     1          
   133  Na    c      0.0000      -4.4627 *     8.9705 *  0.0000     1          
   134  Na    c      0.0000      -8.9705 *     4.4627 *  0.0000     1          
   135  Na    c      4.5078 *     0.0451 *     8.9705 *  0.0000     2          
   136  Na    c     -4.5078 *    -8.9705 *    -0.0451 *  0.0000     2          
   137  Na    c      0.0000       4.5529 *     8.9705 *  0.0000     1          
   138  Na    c      9.0156 *     0.0451 *     4.4627 *  0.0000     2          
   139  Na    c      9.0156 *    -4.4627 *    -0.0451 *  0.0000     2          
   140  Na    c      0.0000      -8.9705 *    -4.5529 *  0.0000     1          
   141  Na    c      0.0000       9.0607 *     4.4627 *  0.0000     1          
   142  Na    c      9.0156 *     0.0451 *    -4.5529 *  0.0000     2          
   143  Na    c      9.0156 *     4.5529 *    -0.0451 *  0.0000     2          
   144  Na    c      0.0000      -4.4627 *    -9.0607 *  0.0000     1          
   145  Na    c     -4.5078 *     9.0607 *    -0.0451 *  0.0000     2          
   146  Na    c      4.5078 *     0.0451 *    -9.0607 *  0.0000     2          
   147  Na    c      0.0000       9.0607 *    -4.5529 *  0.0000     1          
   148  Na    c      0.0000       4.5529 *    -9.0607 *  0.0000     1          
   149  O     c     -4.5078 *    -8.9705 *     2.2088 *  0.0000     2          
   150  O     c      9.0156 *    -4.4627 *     2.2088 *  0.0000     2          
   151  O     c     -4.5078 *    -8.9705 *    -2.2990 *  0.0000     2          
   152  O     c      9.0156 *    -4.4627 *    -2.2990 *  0.0000     2          
   153  O     c      9.0156 *     4.5529 *     2.2088 *  0.0000     2          
   154  O     c     -4.5078 *     9.0607 *     2.2088 *  0.0000     2          
   155  O     c      9.0156 *     4.5529 *    -2.2990 *  0.0000     2          
   156  O     c     -4.5078 *     9.0607 *    -2.2990 *  0.0000     2          
   157  Na    c      4.5078 *    -6.7166 *     6.7166 *  0.0000     2          
   158  Cl    c      6.7617 *    -6.7166 *     4.4627 *  0.0000     2          
   159  Na    c      6.7617 *    -4.4627 *     6.7166 *  0.0000     2          
   160  Na    c      6.7617 *     4.5529 *     6.7166 *  0.0000     2          
   161  Cl    c      6.7617 *    -6.7166 *    -4.5529 *  0.0000     2          
   162  Na    c     -4.5078 *     6.8068 *     6.7166 *  0.0000     2          
   163  Na    c      4.5078 *    -6.7166 *    -6.8068 *  0.0000     2          
   164  Cl    c      6.7617 *     6.8068 *     4.4627 *  0.0000     2          
   165  Na    c      6.7617 *    -4.4627 *    -6.8068 *  0.0000     2          
   166  Cl    c      6.7617 *     6.8068 *    -4.5529 *  0.0000     2          
   167  Na    c      6.7617 *     4.5529 *    -6.8068 *  0.0000     2          
   168  Na    c     -4.5078 *     6.8068 *    -6.8068 *  0.0000     2          
   169  Na    c     -4.5078 *    -4.4627 *     8.9705 *  0.0000     2          
   170  Na    c     -4.5078 *    -8.9705 *     4.4627 *  0.0000     2          
   171  Na    c      9.0156 *    -4.4627 *     4.4627 *  0.0000     2          
   172  Na    c     -4.5078 *     4.5529 *     8.9705 *  0.0000     2          
   173  Na    c      4.5078 *    -8.9705 *    -4.5529 *  0.0000     2          
   174  Na    c      9.0156 *     4.5529 *     4.4627 *  0.0000     2          
   175  Na    c      9.0156 *    -4.4627 *    -4.5529 *  0.0000     2          
   176  Na    c      4.5078 *     9.0607 *     4.4627 *  0.0000     2          
   177  Na    c     -4.5078 *    -4.4627 *    -9.0607 *  0.0000     2          
   178  Na    c      9.0156 *     4.5529 *    -4.5529 *  0.0000     2          
   179  Na    c     -4.5078 *     9.0607 *    -4.5529 *  0.0000     2          
   180  Na    c     -4.5078 *     4.5529 *    -9.0607 *  0.0000     2          
   181  O     c      0.0000      -8.9705 *     6.7166 *  0.0000     1          
   182  O     c      0.0000       0.0451 *    11.2244 *  0.0000     1          
   183  O     c      9.0156 *     0.0451 *     6.7166 *  0.0000     2          
   184  O     c      0.0000      -8.9705 *    -6.8068 *  0.0000     1          
   185  O     c      0.0000       9.0607 *     6.7166 *  0.0000     1          
   186  O     c      9.0156 *     0.0451 *    -6.8068 *  0.0000     2          
   187  O     c      0.0000       0.0451 *   -11.3145 *  0.0000     1          
   188  O     c      0.0000       9.0607 *    -6.8068 *  0.0000     1          
   189  Cl    c      2.2539 *    -6.7166 *     8.9705 *  0.0000     2          
   190  Na    c      2.2539 *    -8.9705 *     6.7166 *  0.0000     2          
   191  Na    c      0.0000      -2.2088 *    11.2244 *  0.0000     1          
   192  Na    c      0.0000     -11.2244 *     2.2088 *  0.0000     1          
   193  Cl    c      2.2539 *   -11.2244 *    -0.0451 *  0.0000     2          
   194  Na    c      2.2539 *     0.0451 *    11.2244 *  0.0000     2          
   195  Cl    c      6.7617 *    -2.2088 *     8.9705 *  0.0000     2          
   196  Na    c      6.7617 *    -8.9705 *     2.2088 *  0.0000     2          
   197  Na    c      0.0000       2.2990 *    11.2244 *  0.0000     1          
   198  Na    c      0.0000     -11.2244 *    -2.2990 *  0.0000     1          
   199  Na    c      9.0156 *    -2.2088 *     6.7166 *  0.0000     2          
   200  Na    c      9.0156 *    -6.7166 *     2.2088 *  0.0000     2          
   201  Cl    c      6.7617 *     2.2990 *     8.9705 *  0.0000     2          
   202  Na    c      6.7617 *    -8.9705 *    -2.2990 *  0.0000     2          
   203  Na    c      9.0156 *     2.2990 *     6.7166 *  0.0000     2          
   204  Na    c      9.0156 *    -6.7166 *    -2.2990 *  0.0000     2          
   205  Cl    c      2.2539 *     6.8068 *     8.9705 *  0.0000     2          
   206  Cl    c     11.2695 *    -2.2088 *    -0.0451 *  0.0000     2          
   207  Na    c     11.2695 *     0.0451 *     2.2088 *  0.0000     2          
   208  Na    c      2.2539 *    -8.9705 *    -6.8068 *  0.0000     2          
   209  Cl    c     11.2695 *     2.2990 *    -0.0451 *  0.0000     2          
   210  Na    c      2.2539 *     9.0607 *     6.7166 *  0.0000     2          
   211  Na    c     11.2695 *     0.0451 *    -2.2990 *  0.0000     2          
   212  Cl    c      2.2539 *    -6.7166 *    -9.0607 *  0.0000     2          
   213  Na    c      9.0156 *     6.8068 *     2.2088 *  0.0000     2          
   214  Na    c      9.0156 *    -2.2088 *    -6.8068 *  0.0000     2          
   215  Na    c      6.7617 *     9.0607 *     2.2088 *  0.0000     2          
   216  Cl    c      6.7617 *    -2.2088 *    -9.0607 *  0.0000     2          
   217  Na    c      0.0000      11.3145 *     2.2088 *  0.0000     1          
   218  Na    c      0.0000      -2.2088 *   -11.3145 *  0.0000     1          
   219  Na    c      9.0156 *     2.2990 *    -6.8068 *  0.0000     2          
   220  Na    c      9.0156 *     6.8068 *    -2.2990 *  0.0000     2          
   221  Na    c      6.7617 *     9.0607 *    -2.2990 *  0.0000     2          
   222  Cl    c      2.2539 *    11.3145 *    -0.0451 *  0.0000     2          
   223  Na    c      2.2539 *     0.0451 *   -11.3145 *  0.0000     2          
   224  Cl    c      6.7617 *     2.2990 *    -9.0607 *  0.0000     2          
   225  Na    c      0.0000       2.2990 *   -11.3145 *  0.0000     1          
   226  Na    c      0.0000      11.3145 *    -2.2990 *  0.0000     1          
   227  Na    c      2.2539 *     9.0607 *    -6.8068 *  0.0000     2          
   228  Cl    c      2.2539 *     6.8068 *    -9.0607 *  0.0000     2          
   229  O     s      0.0000       0.0451 *     2.2088 *  0.0000     1          
   230  O     s      0.0000       0.0451 *    -2.2990 *  0.0000     1          
   231  Cl    s      2.2539 *    -2.2088 *    -0.0451 *  0.0000     2          
   232  Cl    s      2.2539 *     2.2990 *    -0.0451 *  0.0000     2          
   233  O     s      0.0000      -4.4627 *     2.2088 *  0.0000     1          
   234  O     s     -4.5078 *     0.0451 *     2.2088 *  0.0000     2          
   235  O     s      0.0000      -4.4627 *    -2.2990 *  0.0000     1          
   236  O     s      0.0000       4.5529 *     2.2088 *  0.0000     1          
   237  O     s     -4.5078 *     0.0451 *    -2.2990 *  0.0000     2          
   238  O     s      0.0000       4.5529 *    -2.2990 *  0.0000     1          
   239  Cl    s      2.2539 *    -2.2088 *     4.4627 *  0.0000     2          
   240  Cl    s      2.2539 *     2.2990 *     4.4627 *  0.0000     2          
   241  Cl    s      2.2539 *    -2.2088 *    -4.5529 *  0.0000     2          
   242  Cl    s      2.2539 *     2.2990 *    -4.5529 *  0.0000     2          
   243  O     s     -4.5078 *    -4.4627 *     2.2088 *  0.0000     2          
   244  O     s      0.0000       0.0451 *     6.7166 *  0.0000     1          
   245  O     s     -4.5078 *    -4.4627 *    -2.2990 *  0.0000     2          
   246  O     s     -4.5078 *     4.5529 *     2.2088 *  0.0000     2          
   247  O     s     -4.5078 *     4.5529 *    -2.2990 *  0.0000     2          
   248  O     s      0.0000       0.0451 *    -6.8068 *  0.0000     1          
   249  Cl    s      2.2539 *    -6.7166 *    -0.0451 *  0.0000     2          
   250  Cl    s      6.7617 *    -2.2088 *    -0.0451 *  0.0000     2          
   251  Cl    s      6.7617 *     2.2990 *    -0.0451 *  0.0000     2          
   252  Cl    s      2.2539 *     6.8068 *    -0.0451 *  0.0000     2          
   253  O     s      0.0000      -4.4627 *     6.7166 *  0.0000     1          
   254  O     s     -4.5078 *     0.0451 *     6.7166 *  0.0000     2          
   255  O     s      0.0000       4.5529 *     6.7166 *  0.0000     1          
   256  O     s      0.0000      -4.4627 *    -6.8068 *  0.0000     1          
   257  O     s     -4.5078 *     0.0451 *    -6.8068 *  0.0000     2          
   258  O     s      0.0000       4.5529 *    -6.8068 *  0.0000     1          
   259  Cl    s      2.2539 *    -6.7166 *     4.4627 *  0.0000     2          
   260  Cl    s      6.7617 *    -2.2088 *     4.4627 *  0.0000     2          
   261  Cl    s      2.2539 *    -6.7166 *    -4.5529 *  0.0000     2          
   262  Cl    s      6.7617 *     2.2990 *     4.4627 *  0.0000     2          
   263  Cl    s      2.2539 *     6.8068 *     4.4627 *  0.0000     2          
   264  Cl    s      6.7617 *    -2.2088 *    -4.5529 *  0.0000     2          
   265  Cl    s      6.7617 *     2.2990 *    -4.5529 *  0.0000     2          
   266  Cl    s      2.2539 *     6.8068 *    -4.5529 *  0.0000     2          
   267  O     s      4.5078 *    -4.4627 *     6.7166 *  0.0000     2          
   268  O     s      0.0000      -8.9705 *     2.2088 *  0.0000     1          
   269  O     s      0.0000      -8.9705 *    -2.2990 *  0.0000     1          
   270  O     s      4.5078 *     4.5529 *     6.7166 *  0.0000     2          
   271  O     s      9.0156 *     0.0451 *     2.2088 *  0.0000     2          
   272  O     s      9.0156 *     0.0451 *    -2.2990 *  0.0000     2          
   273  O     s     -4.5078 *    -4.4627 *    -6.8068 *  0.0000     2          
   274  O     s      0.0000       9.0607 *     2.2088 *  0.0000     1          
   275  O     s      0.0000       9.0607 *    -2.2990 *  0.0000     1          
   276  O     s     -4.5078 *     4.5529 *    -6.8068 *  0.0000     2          
   277  Cl    s      2.2539 *    -2.2088 *     8.9705 *  0.0000     2          
   278  Cl    s      2.2539 *     2.2990 *     8.9705 *  0.0000     2          
   279  Cl    s      6.7617 *    -6.7166 *    -0.0451 *  0.0000     2          
   280  Cl    s      2.2539 *    -2.2088 *    -9.0607 *  0.0000     2          
   281  Cl    s      6.7617 *     6.8068 *    -0.0451 *  0.0000     2          
   282  Cl    s      2.2539 *     2.2990 *    -9.0607 *  0.0000     2          
   283  O     s     -4.5078 *    -8.9705 *     2.2088 *  0.0000     2          
   284  O     s      9.0156 *    -4.4627 *     2.2088 *  0.0000     2          
   285  O     s     -4.5078 *    -8.9705 *    -2.2990 *  0.0000     2          
   286  O     s      9.0156 *    -4.4627 *    -2.2990 *  0.0000     2          
   287  O     s      9.0156 *     4.5529 *     2.2088 *  0.0000     2          
   288  O     s     -4.5078 *     9.0607 *     2.2088 *  0.0000     2          
   289  O     s      9.0156 *     4.5529 *    -2.2990 *  0.0000     2          
   290  O     s     -4.5078 *     9.0607 *    -2.2990 *  0.0000     2          
   291  Cl    s      6.7617 *    -6.7166 *     4.4627 *  0.0000     2          
   292  Cl    s      6.7617 *    -6.7166 *    -4.5529 *  0.0000     2          
   293  Cl    s      6.7617 *     6.8068 *     4.4627 *  0.0000     2          
   294  Cl    s      6.7617 *     6.8068 *    -4.5529 *  0.0000     2          
   295  O     s      0.0000      -8.9705 *     6.7166 *  0.0000     1          
   296  O     s      0.0000       0.0451 *    11.2244 *  0.0000     1          
   297  O     s      9.0156 *     0.0451 *     6.7166 *  0.0000     2          
   298  O     s      0.0000      -8.9705 *    -6.8068 *  0.0000     1          
   299  O     s      0.0000       9.0607 *     6.7166 *  0.0000     1          
   300  O     s      9.0156 *     0.0451 *    -6.8068 *  0.0000     2          
   301  O     s      0.0000       0.0451 *   -11.3145 *  0.0000     1          
   302  O     s      0.0000       9.0607 *    -6.8068 *  0.0000     1          
   303  Cl    s      2.2539 *    -6.7166 *     8.9705 *  0.0000     2          
   304  Cl    s      2.2539 *   -11.2244 *    -0.0451 *  0.0000     2          
   305  Cl    s      6.7617 *    -2.2088 *     8.9705 *  0.0000     2          
   306  Cl    s      6.7617 *     2.2990 *     8.9705 *  0.0000     2          
   307  Cl    s      2.2539 *     6.8068 *     8.9705 *  0.0000     2          
   308  Cl    s     11.2695 *    -2.2088 *    -0.0451 *  0.0000     2          
   309  Cl    s     11.2695 *     2.2990 *    -0.0451 *  0.0000     2          
   310  Cl    s      2.2539 *    -6.7166 *    -9.0607 *  0.0000     2          
   311  Cl    s      6.7617 *    -2.2088 *    -9.0607 *  0.0000     2          
   312  Cl    s      2.2539 *    11.3145 *    -0.0451 *  0.0000     2          
   313  Cl    s      6.7617 *     2.2990 *    -9.0607 *  0.0000     2          
   314  Cl    s      2.2539 *     6.8068 *    -9.0607 *  0.0000     2          
--------------------------------------------------------------------------------

  Components of defect energy : 

--------------------------------------------------------------------------------
  Region 1 - region 1                   =    -17.51144766 eV
  Region 1 - region 2a (unrelaxed)      =     25.99602589 eV
  Region 1 - 2a (relaxed - correction)  =     -0.29062146 eV
  Region 1 (Total)                      =      8.19395677 eV
  Region 2a                             =      0.14523400 eV
  Region 2b                             =     -0.42575194 eV
--------------------------------------------------------------------------------
  Total defect energy                   =      7.91343883 eV
--------------------------------------------------------------------------------

  Largest displacement in region 2 =   0.0203 Angstroms


  Number of variables =      852

  Maximum number of calculations  =        1000
  Maximum Hessian update interval =          10
  Maximum step size               =   1.0000000
  Maximum parameter tolerance     =   0.0000100
  Maximum function  tolerance     =   0.0000100
  Maximum gradient  tolerance     =   0.0010000

  Symmetry adapted optimisation

  Symmetry to be used for second derivatives

  Newton-Raphson optimiser to be used

  BFGS hessian update to be used

  Lower half triangular hessian to be used

  Start of defect optimisation :

  Cycle:      0 Defect Energy:   7.913439  Gnorm:     0.020122  CPU:    1.792
  ** Hessian calculated **
  Cycle:      1 Defect Energy:   6.987700  Gnorm:     0.016449  CPU:    7.053
  Cycle:      2 Defect Energy:   6.707116  Gnorm:     0.014760  CPU:   11.367
  ** Hessian calculated **
  Cycle:      3 Defect Energy:   5.573899  Gnorm:     0.004629  CPU:   15.122
  Cycle:      4 Defect Energy:   5.473032  Gnorm:     0.002981  CPU:   15.668
  Cycle:      5 Defect Energy:   5.366468  Gnorm:     0.002296  CPU:   16.212
  Cycle:      6 Defect Energy:   5.254458  Gnorm:     0.001789  CPU:   17.000
  Cycle:      7 Defect Energy:   5.166826  Gnorm:     0.001602  CPU:   17.884
  Cycle:      8 Defect Energy:   5.099895  Gnorm:     0.001558  CPU:   18.766
  Cycle:      9 Defect Energy:   5.043505  Gnorm:     0.001691  CPU:   19.629
  Cycle:     10 Defect Energy:   4.985842  Gnorm:     0.002009  CPU:   20.519
  Cycle:     11 Defect Energy:   4.919404  Gnorm:     0.002011  CPU:   21.409
  Cycle:     12 Defect Energy:   4.847835  Gnorm:     0.002162  CPU:   22.358
  ** Hessian calculated **
  Cycle:     13 Defect Energy:   4.816734  Gnorm:     0.001684  CPU:   23.961
  Cycle:     14 Defect Energy:   4.781808  Gnorm:     0.001550  CPU:   24.816
  Cycle:     15 Defect Energy:   4.742620  Gnorm:     0.001353  CPU:   25.679
  Cycle:     16 Defect Energy:   4.708945  Gnorm:     0.001285  CPU:   26.596
  Cycle:     17 Defect Energy:   4.682294  Gnorm:     0.001279  CPU:   27.512
  Cycle:     18 Defect Energy:   4.660282  Gnorm:     0.001282  CPU:   28.407
  Cycle:     19 Defect Energy:   4.640291  Gnorm:     0.001329  CPU:   29.379
  Cycle:     20 Defect Energy:   4.619749  Gnorm:     0.001337  CPU:   30.096
  Cycle:     21 Defect Energy:   4.600343  Gnorm:     0.001332  CPU:   30.819
  Cycle:     22 Defect Energy:   4.581490  Gnorm:     0.001305  CPU:   31.674
  ** Hessian calculated **
  Cycle:     23 Defect Energy:   4.548832  Gnorm:     0.001196  CPU:   34.047
  Cycle:     24 Defect Energy:   4.499185  Gnorm:     0.000973  CPU:   34.934
  Cycle:     25 Defect Energy:   4.479863  Gnorm:     0.000889  CPU:   35.907
  ** Hessian calculated **
  Cycle:     26 Defect Energy:   4.438581  Gnorm:     0.000649  CPU:   37.820
  ** Hessian calculated **
  Cycle:     27 Defect Energy:   4.420044  Gnorm:     0.000455  CPU:   40.125
  Cycle:     28 Defect Energy:   4.411029  Gnorm:     0.000320  CPU:   40.983
  Cycle:     29 Defect Energy:   4.406550  Gnorm:     0.000224  CPU:   41.900
  Cycle:     30 Defect Energy:   4.404259  Gnorm:     0.000157  CPU:   42.906
  Cycle:     31 Defect Energy:   4.403011  Gnorm:     0.000108  CPU:   43.593
  Cycle:     32 Defect Energy:   4.402229  Gnorm:     0.000075  CPU:   44.362
  Cycle:     33 Defect Energy:   4.401549  Gnorm:     0.000057  CPU:   45.241
  Cycle:     34 Defect Energy:   4.400727  Gnorm:     0.000078  CPU:   46.144
  Cycle:     35 Defect Energy:   4.399898  Gnorm:     0.000153  CPU:   47.071
  Cycle:     36 Defect Energy:   4.399536  Gnorm:     0.000142  CPU:   47.961
  ** Hessian calculated **
  Cycle:     37 Defect Energy:   4.398445  Gnorm:     0.000105  CPU:   50.125
  Cycle:     38 Defect Energy:   4.397939  Gnorm:     0.000078  CPU:   50.666
  Cycle:     39 Defect Energy:   4.397698  Gnorm:     0.000053  CPU:   51.255
  Cycle:     40 Defect Energy:   4.397588  Gnorm:     0.000038  CPU:   51.769
  Cycle:     41 Defect Energy:   4.397534  Gnorm:     0.000025  CPU:   52.655
  Cycle:     42 Defect Energy:   4.397510  Gnorm:     0.000019  CPU:   53.550
  Cycle:     43 Defect Energy:   4.397498  Gnorm:     0.000012  CPU:   54.450


  **** Optimisation achieved ****


  Final defect energy  =        4.39749330
  Final defect Gnorm   =        0.00000895

  Components of defect energy : 

--------------------------------------------------------------------------------
  Region 1 - region 1                   =    -17.67153581 eV
  Region 1 - region 2a (unrelaxed)      =     22.60313788 eV
  Region 1 - 2a (relaxed - correction)  =     -0.21655408 eV
  Region 1 (Total)                      =      4.71504799 eV
  Region 2a                             =      0.10819964 eV
  Region 2b                             =     -0.42575433 eV
--------------------------------------------------------------------------------
  Total defect energy                   =      4.39749330 eV
--------------------------------------------------------------------------------

  Largest displacement in region 2 =   0.0203 Angstroms

  Final coordinates of region 1 :

--------------------------------------------------------------------------------
   No.  Atomic        x           y           z          Radius      Charge
        Label       (Angs)      (Angs)      (Angs)       (Angs)       (e) 
--------------------------------------------------------------------------------
     1  O     c     2.253894    2.274789    2.357111    0.000000    0.183000
     2  O     c     2.253894    2.241882   -2.315442    0.000000    0.183000
     3  Na    c     2.253894    0.045078    2.208816    0.000000    1.000000
     4  Na    c     4.408449    2.201382    1.783032    0.000000    1.000000
     5  Na    c     0.099338    2.201382    1.783032    0.000000    1.000000
     6  Cl    c     4.656014   -0.125754   -0.000262    0.000000    1.485000
     7  Cl    c    -0.148227   -0.125754   -0.000262    0.000000    1.485000
     8  Na    c     2.253894    4.439194    1.783450    0.000000    1.000000
     9  Na    c     2.253894    0.085921   -1.727639    0.000000    1.000000
    10  Cl    c     4.628618    4.623541   -0.004435    0.000000    1.485000
    11  Cl    c    -0.120831    4.623541   -0.004435    0.000000    1.485000
    12  Na    c     4.429673    2.265834   -1.832128    0.000000    1.000000
    13  Na    c     0.078115    2.265834   -1.832128    0.000000    1.000000
    14  Na    c     2.253894    4.433269   -1.905381    0.000000    1.000000
    15  Na    c     2.253894    2.547206    4.533783    0.000000    1.000000
    16  Na    c     2.253894   -2.569037    0.002491    0.000000    1.000000
    17  Na    c    -2.597073    2.257169   -0.000091    0.000000    1.000000
    18  Na    c     7.104861    2.257169   -0.000091    0.000000    1.000000
    19  Na    c     2.253894    7.140212    0.010434    0.000000    1.000000
    20  Na    c     2.253894    2.119685   -4.508420    0.000000    1.000000
    21  O     c     2.253894   -2.251953    2.237877    0.000000    0.183000
    22  O     c    -2.199306    2.249447    2.243610    0.000000    0.183000
    23  O     c     6.707094    2.249447    2.243610    0.000000    0.183000
    24  O     c     2.253894   -2.205910   -2.224822    0.000000    0.183000
    25  O     c     2.253894    6.733525    2.239109    0.000000    0.183000
    26  O     c    -2.214100    2.257110   -2.246937    0.000000    0.183000
    27  O     c     6.721888    2.257110   -2.246937    0.000000    0.183000
    28  O     c     2.253894    6.738414   -2.216909    0.000000    0.183000
    29  Cl    c     4.560794   -0.137292    4.591631    0.000000    1.485000
    30  Cl    c    -0.053006   -0.137292    4.591631    0.000000    1.485000
    31  Na    c     4.508603   -2.190841    2.122399    0.000000    1.000000
    32  Na    c    -0.000816   -2.190841    2.122399    0.000000    1.000000
    33  Na    c    -2.263836   -0.001796    2.273911    0.000000    1.000000
    34  Na    c     6.771623   -0.001796    2.273911    0.000000    1.000000
    35  Cl    c     4.603040    4.601378    4.612693    0.000000    1.485000
    36  Cl    c    -0.095253    4.601378    4.612693    0.000000    1.485000
    37  Na    c     4.507809   -2.213665   -2.165858    0.000000    1.000000
    38  Na    c    -0.000021   -2.213665   -2.165858    0.000000    1.000000
    39  Na    c    -2.098955    4.496461    2.274245    0.000000    1.000000
    40  Na    c     6.606742    4.496461    2.274245    0.000000    1.000000
    41  Na    c    -2.171827    0.007009   -2.262073    0.000000    1.000000
    42  Na    c     6.679614    0.007009   -2.262073    0.000000    1.000000
    43  Na    c     4.505551    6.770368    2.172796    0.000000    1.000000
    44  Na    c     0.002236    6.770368    2.172796    0.000000    1.000000
    45  Cl    c     4.618117   -0.088410   -4.614528    0.000000    1.485000
    46  Cl    c    -0.110330   -0.088410   -4.614528    0.000000    1.485000
    47  Na    c    -2.229350    4.505416   -2.286927    0.000000    1.000000
    48  Na    c     6.737137    4.505416   -2.286927    0.000000    1.000000
    49  Na    c     4.506345    6.710355   -2.131039    0.000000    1.000000
    50  Na    c     0.001442    6.710355   -2.131039    0.000000    1.000000
    51  Cl    c     4.592395    4.615352   -4.614172    0.000000    1.485000
    52  Cl    c    -0.084608    4.615352   -4.614172    0.000000    1.485000
    53  Na    c     2.253894   -2.208033    4.495529    0.000000    1.000000
    54  Na    c    -1.776825    2.235701    4.473846    0.000000    1.000000
    55  Na    c     6.284612    2.235701    4.473846    0.000000    1.000000
    56  Na    c    -2.405460   -2.164045    0.001872    0.000000    1.000000
    57  Na    c     6.913247   -2.164045    0.001872    0.000000    1.000000
    58  Na    c     2.253894    6.328258    4.488647    0.000000    1.000000
    59  Na    c     2.253894   -1.808157   -4.469732    0.000000    1.000000
    60  Na    c    -2.391797    6.671070   -0.001773    0.000000    1.000000
    61  Na    c     6.899585    6.671070   -0.001773    0.000000    1.000000
    62  Na    c    -1.821123    2.253427   -4.481794    0.000000    1.000000
    63  Na    c     6.328910    2.253427   -4.481794    0.000000    1.000000
    64  Na    c     2.253894    6.461875   -4.467437    0.000000    1.000000
    65  O     c    -2.258264   -2.265587    2.261922    0.000000    0.183000
    66  O     c     6.766051   -2.265587    2.261922    0.000000    0.183000
    67  O     c     2.253894    2.268609    6.811816    0.000000    0.183000
    68  O     c    -2.262600   -2.253622   -2.257014    0.000000    0.183000
    69  O     c     6.770387   -2.253622   -2.257014    0.000000    0.183000
    70  O     c    -2.259435    6.754376    2.256376    0.000000    0.183000
    71  O     c     6.767222    6.754376    2.256376    0.000000    0.183000
    72  O     c    -2.257498    6.765459   -2.260247    0.000000    0.183000
    73  O     c     6.765285    6.765459   -2.260247    0.000000    0.183000
    74  O     c     2.253894    2.240176   -6.802330    0.000000    0.183000
    75  Na    c     2.253894    0.031562    6.510480    0.000000    1.000000
    76  Na    c     2.253894   -4.502054    2.495007    0.000000    1.000000
    77  Cl    c     4.516451   -4.525321    0.012317    0.000000    1.485000
    78  Cl    c    -0.008664   -4.525321    0.012317    0.000000    1.485000
    79  Na    c     4.503481    2.265061    6.970930    0.000000    1.000000
    80  Na    c     0.004306    2.265061    6.970930    0.000000    1.000000
    81  Na    c     2.253894    4.507412    7.114199    0.000000    1.000000
    82  Na    c     2.253894   -4.457918   -2.608929    0.000000    1.000000
    83  Cl    c     9.035262   -0.024826   -0.014896    0.000000    1.485000
    84  Cl    c    -4.527475   -0.024826   -0.014896    0.000000    1.485000
    85  Na    c     8.962704    2.331371    2.617061    0.000000    1.000000
    86  Na    c    -4.454917    2.331371    2.617061    0.000000    1.000000
    87  Cl    c     9.040425    4.534103    0.014974    0.000000    1.485000
    88  Cl    c    -4.532637    4.534103    0.014974    0.000000    1.485000
    89  Na    c     8.973740    2.221254   -2.616803    0.000000    1.000000
    90  Na    c    -4.465953    2.221254   -2.616803    0.000000    1.000000
    91  Na    c     2.253894    8.976696    2.654106    0.000000    1.000000
    92  Na    c     2.253894    0.002199   -7.016855    0.000000    1.000000
    93  Cl    c     4.533837    9.029669    0.000953    0.000000    1.485000
    94  Cl    c    -0.026050    9.029669    0.000953    0.000000    1.485000
    95  Na    c     4.505154    2.240470   -6.934586    0.000000    1.000000
    96  Na    c     0.002633    2.240470   -6.934586    0.000000    1.000000
    97  Na    c     2.253894    8.984547   -2.597860    0.000000    1.000000
    98  Na    c     2.253894    4.484470   -6.736657    0.000000    1.000000
    99  Na    c    -2.044686   -2.334920    4.507856    0.000000    1.000000
   100  Na    c     6.552473   -2.334920    4.507856    0.000000    1.000000
   101  Na    c    -2.165463    6.810071    4.505403    0.000000    1.000000
   102  Na    c     6.673250    6.810071    4.505403    0.000000    1.000000
   103  Na    c    -2.147077   -2.291801   -4.506011    0.000000    1.000000
   104  Na    c     6.654865   -2.291801   -4.506011    0.000000    1.000000
   105  Na    c    -2.081472    6.823722   -4.508121    0.000000    1.000000
   106  Na    c     6.589259    6.823722   -4.508121    0.000000    1.000000
   107  O     c     2.253894   -2.227771    6.758611    0.000000    0.183000
   108  O     c    -2.239213    2.246167    6.718945    0.000000    0.183000
   109  O     c     6.747000    2.246167    6.718945    0.000000    0.183000
   110  O     c     2.253894    6.744718    6.754947    0.000000    0.183000
   111  O     c     2.253894   -2.237678   -6.738047    0.000000    0.183000
   112  O     c    -2.246347    2.256034   -6.727208    0.000000    0.183000
   113  O     c     6.754134    2.256034   -6.727208    0.000000    0.183000
   114  O     c     2.253894    6.742285   -6.736237    0.000000    0.183000
   115  Cl    c     4.492923   -4.550919    4.508138    0.000000    1.485000
   116  Cl    c     0.014864   -4.550919    4.508138    0.000000    1.485000
   117  Na    c     4.504127   -2.169833    6.834726    0.000000    1.000000
   118  Na    c     0.003660   -2.169833    6.834726    0.000000    1.000000
   119  Na    c     6.815145   -0.008406    6.643299    0.000000    1.000000
   120  Na    c    -2.307358   -0.008406    6.643299    0.000000    1.000000
   121  Na    c     6.699789   -4.509919    2.149745    0.000000    1.000000
   122  Na    c    -2.192002   -4.509919    2.149745    0.000000    1.000000
   123  Cl    c     9.074560   -0.019831    4.520481    0.000000    1.485000
   124  Cl    c    -4.566773   -0.019831    4.520481    0.000000    1.485000
   125  Na    c     9.006144   -2.319901    2.442284    0.000000    1.000000
   126  Na    c    -4.498357   -2.319901    2.442284    0.000000    1.000000
   127  Na    c    -2.250802    4.508946    6.668040    0.000000    1.000000
   128  Na    c     6.758589    4.508946    6.668040    0.000000    1.000000
   129  Na    c     6.773813   -4.500414   -2.182262    0.000000    1.000000
   130  Na    c    -2.266026   -4.500414   -2.182262    0.000000    1.000000
   131  Cl    c     4.538130   -4.559792   -4.515318    0.000000    1.485000
   132  Cl    c    -0.030343   -4.559792   -4.515318    0.000000    1.485000
   133  Cl    c     9.065691    4.550682    4.539073    0.000000    1.485000
   134  Cl    c    -4.557904    4.550682    4.539073    0.000000    1.485000
   135  Na    c     4.505400    6.727476    6.734203    0.000000    1.000000
   136  Na    c     0.002388    6.727476    6.734203    0.000000    1.000000
   137  Na    c     9.014465   -2.208546   -2.388468    0.000000    1.000000
   138  Na    c    -4.506677   -2.208546   -2.388468    0.000000    1.000000
   139  Cl    c     4.533511    9.057576    4.523095    0.000000    1.485000
   140  Cl    c    -0.025724    9.057576    4.523095    0.000000    1.485000
   141  Na    c     9.013420    6.650459    2.366477    0.000000    1.000000
   142  Na    c    -4.505632    6.650459    2.366477    0.000000    1.000000
   143  Cl    c     9.068498   -0.036426   -4.526958    0.000000    1.485000
   144  Cl    c    -4.560710   -0.036426   -4.526958    0.000000    1.485000
   145  Na    c     4.505097   -2.221186   -6.738391    0.000000    1.000000
   146  Na    c     0.002690   -2.221186   -6.738391    0.000000    1.000000
   147  Na    c    -2.311911    9.004583    2.179742    0.000000    1.000000
   148  Na    c     6.819699    9.004583    2.179742    0.000000    1.000000
   149  Na    c    -2.258277   -0.004811   -6.681428    0.000000    1.000000
   150  Na    c     6.766064   -0.004811   -6.681428    0.000000    1.000000
   151  Cl    c     9.074112    4.531444   -4.519656    0.000000    1.485000
   152  Cl    c    -4.566325    4.531444   -4.519656    0.000000    1.485000
   153  Na    c     9.009363    6.782364   -2.418555    0.000000    1.000000
   154  Na    c    -4.501575    6.782364   -2.418555    0.000000    1.000000
   155  Na    c    -2.227106    9.012734   -2.171341    0.000000    1.000000
   156  Na    c     6.734893    9.012734   -2.171341    0.000000    1.000000
   157  Na    c     6.780618    4.514240   -6.662857    0.000000    1.000000
   158  Na    c    -2.272831    4.514240   -6.662857    0.000000    1.000000
   159  Cl    c     4.523560    9.064439   -4.512614    0.000000    1.485000
   160  Cl    c    -0.015772    9.064439   -4.512614    0.000000    1.485000
   161  Na    c     4.504437    6.712844   -6.792678    0.000000    1.000000
   162  Na    c     0.003350    6.712844   -6.792678    0.000000    1.000000
   163  Na    c     2.253894    1.965358    9.046000    0.000000    1.000000
   164  Na    c     2.253894   -6.473110   -0.007564    0.000000    1.000000
   165  Na    c    10.923742    2.246532    0.000549    0.000000    1.000000
   166  Na    c    -6.415955    2.246532    0.000549    0.000000    1.000000
   167  Na    c     2.253894   10.937689    0.003479    0.000000    1.000000
   168  Na    c     2.253894    2.397585   -9.049025    0.000000    1.000000
   169  O     c     6.763138   -2.266280    6.762049    0.000000    0.183000
   170  O     c    -2.255350   -2.266280    6.762049    0.000000    0.183000
   171  O     c     2.253894   -6.747909    2.246843    0.000000    0.183000
   172  O     c     2.253894   -6.723578   -2.259345    0.000000    0.183000
   173  O     c     6.765789    6.772885    6.762007    0.000000    0.183000
   174  O     c    -2.258001    6.772885    6.762007    0.000000    0.183000
   175  O     c    11.223306    2.249972    2.249801    0.000000    0.183000
   176  O     c    -6.715519    2.249972    2.249801    0.000000    0.183000
   177  O     c    11.228832    2.256484   -2.248260    0.000000    0.183000
   178  O     c    -6.721044    2.256484   -2.248260    0.000000    0.183000
   179  O     c    -2.258077   -2.267465   -6.762716    0.000000    0.183000
   180  O     c     6.765865   -2.267465   -6.762716    0.000000    0.183000
   181  O     c     2.253894   11.227531    2.256799    0.000000    0.183000
   182  O     c     2.253894   11.236774   -2.250192    0.000000    0.183000
   183  O     c    -2.257317    6.775719   -6.762957    0.000000    0.183000
   184  O     c     6.765104    6.775719   -6.762957    0.000000    0.183000
   185  Na    c     2.253894   -4.492544    6.740561    0.000000    1.000000
   186  Cl    c     4.484810    0.001062    9.050210    0.000000    1.485000
   187  Cl    c     0.022977    0.001062    9.050210    0.000000    1.485000
   188  Na    c     4.504178   -6.771366    2.236651    0.000000    1.000000
   189  Na    c     0.003609   -6.771366    2.236651    0.000000    1.000000
   190  Cl    c     4.524991    4.497860    9.031857    0.000000    1.485000
   191  Cl    c    -0.017204    4.497860    9.031857    0.000000    1.485000
   192  Cl    c     9.012995   -4.539608    0.004464    0.000000    1.485000
   193  Cl    c    -4.505208   -4.539608    0.004464    0.000000    1.485000
   194  Na    c     9.002903    2.282948    6.509818    0.000000    1.000000
   195  Na    c    -4.495116    2.282948    6.509818    0.000000    1.000000
   196  Na    c     4.507414   -6.711905   -2.230998    0.000000    1.000000
   197  Na    c     0.000373   -6.711905   -2.230998    0.000000    1.000000
   198  Na    c    11.160831   -0.002257    2.188293    0.000000    1.000000
   199  Na    c    -6.653044   -0.002257    2.188293    0.000000    1.000000
   200  Na    c     2.253894    9.002805    6.510191    0.000000    1.000000
   201  Na    c    11.309264    4.497582    2.186340    0.000000    1.000000
   202  Na    c    -6.801477    4.497582    2.186340    0.000000    1.000000
   203  Na    c    11.266791    0.005609   -2.206981    0.000000    1.000000
   204  Na    c    -6.759004    0.005609   -2.206981    0.000000    1.000000
   205  Na    c     2.253894   -4.492481   -6.510387    0.000000    1.000000
   206  Na    c    11.206055    4.508142   -2.170527    0.000000    1.000000
   207  Na    c    -6.698268    4.508142   -2.170527    0.000000    1.000000
   208  Na    c     4.510535   11.208639    2.220731    0.000000    1.000000
   209  Na    c    -0.002748   11.208639    2.220731    0.000000    1.000000
   210  Cl    c     4.499545    0.013775   -9.026944    0.000000    1.485000
   211  Cl    c     0.008242    0.013775   -9.026944    0.000000    1.485000
   212  Cl    c     9.011483    9.046189   -0.004163    0.000000    1.485000
   213  Cl    c    -4.503696    9.046189   -0.004163    0.000000    1.485000
   214  Na    c     9.006592    2.241232   -6.527799    0.000000    1.000000
   215  Na    c    -4.498805    2.241232   -6.527799    0.000000    1.000000
   216  Na    c     4.505292   11.248534   -2.226938    0.000000    1.000000
   217  Na    c     0.002495   11.248534   -2.226938    0.000000    1.000000
   218  Cl    c     4.466299    4.497178   -9.026999    0.000000    1.485000
   219  Cl    c     0.041488    4.497178   -9.026999    0.000000    1.485000
   220  Na    c     2.253894    9.000846   -6.598294    0.000000    1.000000
   221  Na    c     2.253894   -2.139724    9.011368    0.000000    1.000000
   222  Na    c     2.253894   -6.863040    4.505289    0.000000    1.000000
   223  Na    c     6.910631    2.249623    8.988681    0.000000    1.000000
   224  Na    c    -2.402844    2.249623    8.988681    0.000000    1.000000
   225  Na    c    -2.310942   -6.807004   -0.001258    0.000000    1.000000
   226  Na    c     6.818729   -6.807004   -0.001258    0.000000    1.000000
   227  Na    c     2.253894    6.982288    9.006374    0.000000    1.000000
   228  Na    c    11.477634    2.220077    4.490078    0.000000    1.000000
   229  Na    c    -6.969846    2.220077    4.490078    0.000000    1.000000
   230  Na    c    11.162250   -2.314541    0.003964    0.000000    1.000000
   231  Na    c    -6.654463   -2.314541    0.003964    0.000000    1.000000
   232  Na    c     2.253894   -6.966114   -4.495366    0.000000    1.000000
   233  Na    c     2.253894   11.498732    4.492103    0.000000    1.000000
   234  Na    c    11.478980    2.288530   -4.490112    0.000000    1.000000
   235  Na    c    -6.971192    2.288530   -4.490112    0.000000    1.000000
   236  Na    c    11.171343    6.840148   -0.002470    0.000000    1.000000
   237  Na    c    -6.663556    6.840148   -0.002470    0.000000    1.000000
   238  Na    c     2.253894   -2.425787   -9.000058    0.000000    1.000000
   239  Na    c    -2.315369   11.302444    0.000492    0.000000    1.000000
   240  Na    c     6.823156   11.302444    0.000492    0.000000    1.000000
   241  Na    c     6.896489    2.254208   -8.991913    0.000000    1.000000
   242  Na    c    -2.388702    2.254208   -8.991913    0.000000    1.000000
   243  Na    c     2.253894   11.449532   -4.496667    0.000000    1.000000
   244  Na    c     2.253894    6.772602   -9.001376    0.000000    1.000000
   245  O     c    -2.251264   -6.764063    2.244577    0.000000    0.183000
   246  O     c     6.759051   -6.764063    2.244577    0.000000    0.183000
   247  O     c    11.263391   -2.257245    2.262261    0.000000    0.183000
   248  O     c    -6.755604   -2.257245    2.262261    0.000000    0.183000
   249  O     c    -2.255868   -6.761052   -2.244791    0.000000    0.183000
   250  O     c     6.763655   -6.761052   -2.244791    0.000000    0.183000
   251  O     c    11.268827   -2.250799   -2.254716    0.000000    0.183000
   252  O     c    -6.761040   -2.250799   -2.254716    0.000000    0.183000
   253  O     c    11.268561    6.753225    2.253794    0.000000    0.183000
   254  O     c    -6.760773    6.753225    2.253794    0.000000    0.183000
   255  O     c    -2.259687   11.267599    2.244722    0.000000    0.183000
   256  O     c     6.767474   11.267599    2.244722    0.000000    0.183000
   257  O     c    11.266376    6.763304   -2.258772    0.000000    0.183000
   258  O     c    -6.758588    6.763304   -2.258772    0.000000    0.183000
   259  O     c    -2.253000   11.270614   -2.244047    0.000000    0.183000
   260  O     c     6.760788   11.270614   -2.244047    0.000000    0.183000
   261  Na    c     6.712210   -4.510594    6.837778    0.000000    1.000000
   262  Na    c    -2.204423   -4.510594    6.837778    0.000000    1.000000
   263  Cl    c     9.060351   -4.530070    4.512960    0.000000    1.485000
   264  Cl    c    -4.552564   -4.530070    4.512960    0.000000    1.485000
   265  Na    c     9.011097   -2.333572    6.644063    0.000000    1.000000
   266  Na    c    -4.503310   -2.333572    6.644063    0.000000    1.000000
   267  Na    c     9.014002    6.778272    6.721017    0.000000    1.000000
[...]
    234 y          2.253894      2.249456    -0.004437    Cartesian   -0.20
    234 z          2.253894      2.243630    -0.010263    Cartesian   -0.46
    235 x          2.253894      2.253894     0.000000    Cartesian    0.00
    235 y         -2.253894     -2.205979     0.047915    Cartesian   -2.13
    235 z         -2.253894     -2.224769     0.029124    Cartesian   -1.29
    236 x          2.253894      2.253894     0.000000    Cartesian    0.00
    236 y          6.761681      6.733606    -0.028075    Cartesian   -0.42
    236 z          2.253894      2.239069    -0.014824    Cartesian   -0.66
    237 x         -2.253894     -2.214143     0.039750    Cartesian   -1.76
    237 y          2.253894      2.257107     0.003213    Cartesian    0.14
    237 z         -2.253894     -2.246963     0.006931    Cartesian   -0.31
    238 x          2.253894      2.253894     0.000000    Cartesian    0.00
    238 y          6.761681      6.738476    -0.023204    Cartesian   -0.34
    238 z         -2.253894     -2.216896     0.036997    Cartesian   -1.64
    239 x          4.507787      4.572487     0.064700    Cartesian    1.44
    239 y          0.000000     -0.147860    -0.147860    Cartesian    0.00
    239 z          4.507787      4.604888     0.097101    Cartesian    2.15
    240 x          4.507787      4.615451     0.107664    Cartesian    2.39
    240 y          4.507787      4.608685     0.100898    Cartesian    2.24
    240 z          4.507787      4.622495     0.114707    Cartesian    2.54
    241 x          4.507787      4.632873     0.125086    Cartesian    2.77
    241 y          0.000000     -0.097686    -0.097686    Cartesian    0.00
    241 z         -4.507787     -4.625736    -0.117949    Cartesian    2.62
    242 x          4.507787      4.607345     0.099558    Cartesian    2.21
    242 y          4.507787      4.627115     0.119328    Cartesian    2.65
    242 z         -4.507787     -4.627356    -0.119569    Cartesian    2.65
    243 x         -2.253894     -2.258259    -0.004365    Cartesian    0.19
    243 y         -2.253894     -2.265598    -0.011705    Cartesian    0.52
    243 z          2.253894      2.261924     0.008030    Cartesian    0.36
    244 x          2.253894      2.253894     0.000000    Cartesian    0.00
    244 y          2.253894      2.268595     0.014701    Cartesian    0.65
    244 z          6.761681      6.811918     0.050237    Cartesian    0.74
    245 x         -2.253894     -2.262609    -0.008716    Cartesian    0.39
    245 y         -2.253894     -2.253617     0.000276    Cartesian   -0.01
    245 z         -2.253894     -2.257027    -0.003133    Cartesian    0.14
    246 x         -2.253894     -2.259437    -0.005544    Cartesian    0.25
    246 y          6.761681      6.754371    -0.007309    Cartesian   -0.11
    246 z          2.253894      2.256387     0.002493    Cartesian    0.11
    247 x         -2.253894     -2.257497    -0.003603    Cartesian    0.16
    247 y          6.761681      6.765461     0.003780    Cartesian    0.06
    247 z         -2.253894     -2.260253    -0.006359    Cartesian    0.28
    248 x          2.253894      2.253894     0.000000    Cartesian    0.00
    248 y          2.253894      2.240192    -0.013701    Cartesian   -0.61
    248 z         -6.761681     -6.802456    -0.040775    Cartesian    0.60
    249 x          4.507787      4.511064     0.003277    Cartesian    0.07
    249 y         -4.507787     -4.526832    -0.019045    Cartesian    0.42
    249 z          0.000000      0.015007     0.015007    Cartesian    0.00
    250 x          9.015574      9.038376     0.022802    Cartesian    0.25
    250 y          0.000000     -0.020503    -0.020503    Cartesian    0.00
    250 z          0.000000     -0.014564    -0.014564    Cartesian    0.00
    251 x          9.015574      9.043918     0.028343    Cartesian    0.31
    251 y          4.507787      4.530483     0.022696    Cartesian    0.50
    251 z          0.000000      0.015275     0.015275    Cartesian    0.00
    252 x          4.507787      4.526496     0.018709    Cartesian    0.42
    252 y          9.015574      9.030819     0.015244    Cartesian    0.17
    252 z          0.000000      0.000449     0.000449    Cartesian    0.00
    253 x          2.253894      2.253894     0.000000    Cartesian    0.00
    253 y         -2.253894     -2.227744     0.026150    Cartesian   -1.16
    253 z          6.761681      6.758605    -0.003075    Cartesian   -0.05
    254 x         -2.253894     -2.239173     0.014720    Cartesian   -0.65
    254 y          2.253894      2.246167    -0.007726    Cartesian   -0.34
    254 z          6.761681      6.718957    -0.042723    Cartesian   -0.63
    255 x          2.253894      2.253894     0.000000    Cartesian    0.00
    255 y          6.761681      6.744688    -0.016993    Cartesian   -0.25
    255 z          6.761681      6.755011    -0.006670    Cartesian   -0.10
    256 x          2.253894      2.253894     0.000000    Cartesian    0.00
    256 y         -2.253894     -2.237631     0.016262    Cartesian   -0.72
    256 z         -6.761681     -6.738107     0.023573    Cartesian   -0.35
    257 x         -2.253894     -2.246307     0.007586    Cartesian   -0.34
    257 y          2.253894      2.256031     0.002137    Cartesian    0.09
    257 z         -6.761681     -6.727216     0.034464    Cartesian   -0.51
    258 x          2.253894      2.253894     0.000000    Cartesian    0.00
    258 y          6.761681      6.742228    -0.019453    Cartesian   -0.29
    258 z         -6.761681     -6.736262     0.025419    Cartesian   -0.38
    259 x          4.507787      4.492645    -0.015142    Cartesian   -0.34
    259 y         -4.507787     -4.552815    -0.045027    Cartesian    1.00
    259 z          4.507787      4.505851    -0.001936    Cartesian   -0.04
    260 x          9.015574      9.080644     0.065069    Cartesian    0.72
    260 y          0.000000     -0.017882    -0.017882    Cartesian    0.00
    260 z          4.507787      4.522031     0.014244    Cartesian    0.32
    261 x          4.507787      4.536086     0.028299    Cartesian    0.63
    261 y         -4.507787     -4.565515    -0.057728    Cartesian    1.28
    261 z         -4.507787     -4.515948    -0.008161    Cartesian    0.18
    262 x          9.015574      9.070808     0.055234    Cartesian    0.61
    262 y          4.507787      4.548611     0.040823    Cartesian    0.91
    262 z          4.507787      4.539452     0.031665    Cartesian    0.70
    263 x          4.507787      4.529291     0.021503    Cartesian    0.48
    263 y          9.015574      9.062065     0.046491    Cartesian    0.52
    263 z          4.507787      4.523469     0.015681    Cartesian    0.35
    264 x          9.015574      9.073923     0.058349    Cartesian    0.65
    264 y          0.000000     -0.034657    -0.034657    Cartesian    0.00
    264 z         -4.507787     -4.526534    -0.018747    Cartesian    0.42
    265 x          9.015574      9.080053     0.064479    Cartesian    0.72
    265 y          4.507787      4.529538     0.021750    Cartesian    0.48
    265 z         -4.507787     -4.519866    -0.012078    Cartesian    0.27
    266 x          4.507787      4.523029     0.015242    Cartesian    0.34
    266 y          9.015574      9.068460     0.052885    Cartesian    0.59
    266 z         -4.507787     -4.511454    -0.003667    Cartesian    0.08
    267 x          6.761681      6.763127     0.001446    Cartesian    0.02
    267 y         -2.253894     -2.266296    -0.012403    Cartesian    0.55
    267 z          6.761681      6.762053     0.000372    Cartesian    0.01
    268 x          2.253894      2.253894     0.000000    Cartesian    0.00
    268 y         -6.761681     -6.747895     0.013786    Cartesian   -0.20
    268 z          2.253894      2.246878    -0.007015    Cartesian   -0.31
    269 x          2.253894      2.253894     0.000000    Cartesian    0.00
    269 y         -6.761681     -6.723599     0.038082    Cartesian   -0.56
    269 z         -2.253894     -2.259385    -0.005491    Cartesian    0.24
    270 x          6.761681      6.765790     0.004109    Cartesian    0.06
    270 y          6.761681      6.772903     0.011223    Cartesian    0.17
    270 z          6.761681      6.761997     0.000316    Cartesian    0.00
    271 x         11.269468     11.223320    -0.046148    Cartesian   -0.41
    271 y          2.253894      2.249977    -0.003916    Cartesian   -0.17
    271 z          2.253894      2.249828    -0.004066    Cartesian   -0.18
    272 x         11.269468     11.228840    -0.040628    Cartesian   -0.36
    272 y          2.253894      2.256482     0.002588    Cartesian    0.11
    272 z         -2.253894     -2.248287     0.005606    Cartesian   -0.25
    273 x         -2.253894     -2.258077    -0.004183    Cartesian    0.19
    273 y         -2.253894     -2.267483    -0.013590    Cartesian    0.60
    273 z         -6.761681     -6.762708    -0.001027    Cartesian    0.02
    274 x          2.253894      2.253894     0.000000    Cartesian    0.00
    274 y         11.269468     11.227540    -0.041928    Cartesian   -0.37
    274 z          2.253894      2.256846     0.002953    Cartesian    0.13
    275 x          2.253894      2.253894     0.000000    Cartesian    0.00
    275 y         11.269468     11.236779    -0.032689    Cartesian   -0.29
    275 z         -2.253894     -2.250238     0.003655    Cartesian   -0.16
    276 x         -2.253894     -2.257309    -0.003416    Cartesian    0.15
    276 y          6.761681      6.775741     0.014060    Cartesian    0.21
    276 z         -6.761681     -6.762955    -0.001274    Cartesian    0.02
    277 x          4.507787      4.475606    -0.032181    Cartesian   -0.71
    277 y          0.000000      0.004398     0.004398    Cartesian    0.00
    277 z          9.015574      9.050899     0.035324    Cartesian    0.39
    278 x          4.507787      4.520600     0.012813    Cartesian    0.28
    278 y          4.507787      4.494876    -0.012911    Cartesian   -0.29
    278 z          9.015574      9.027930     0.012356    Cartesian    0.14
    279 x          9.015574      9.012246    -0.003328    Cartesian   -0.04
    279 y         -4.507787     -4.542188    -0.034400    Cartesian    0.76
    279 z          0.000000      0.004551     0.004551    Cartesian    0.00
    280 x          4.507787      4.494484    -0.013304    Cartesian   -0.30
    280 y          0.000000      0.017162     0.017162    Cartesian    0.00
    280 z         -9.015574     -9.023673    -0.008098    Cartesian    0.09
    281 x          9.015574      9.009913    -0.005662    Cartesian   -0.06
    281 y          9.015574      9.048889     0.033315    Cartesian    0.37
    281 z          0.000000     -0.003734    -0.003734    Cartesian    0.00
    282 x          4.507787      4.458495    -0.049293    Cartesian   -1.09
    282 y          4.507787      4.493225    -0.014562    Cartesian   -0.32
    282 z         -9.015574     -9.025904    -0.010330    Cartesian    0.11
    283 x         -2.253894     -2.251262     0.002631    Cartesian   -0.12
    283 y         -6.761681     -6.764064    -0.002383    Cartesian    0.04
    283 z          2.253894      2.244551    -0.009343    Cartesian   -0.41
    284 x         11.269468     11.263381    -0.006087    Cartesian   -0.05
    284 y         -2.253894     -2.257261    -0.003367    Cartesian    0.15
    284 z          2.253894      2.262292     0.008398    Cartesian    0.37
    285 x         -2.253894     -2.255878    -0.001984    Cartesian    0.09
    285 y         -6.761681     -6.761053     0.000628    Cartesian   -0.01
    285 z         -2.253894     -2.244768     0.009125    Cartesian   -0.40
    286 x         11.269468     11.268818    -0.000650    Cartesian   -0.01
    286 y         -2.253894     -2.250801     0.003092    Cartesian   -0.14
    286 z         -2.253894     -2.254743    -0.000850    Cartesian    0.04
    287 x         11.269468     11.268558    -0.000910    Cartesian   -0.01
    287 y          6.761681      6.753219    -0.008462    Cartesian   -0.13
    287 z          2.253894      2.253814    -0.000080    Cartesian   -0.00
    288 x         -2.253894     -2.259707    -0.005813    Cartesian    0.26
    288 y         11.269468     11.267601    -0.001867    Cartesian   -0.02
    288 z          2.253894      2.244698    -0.009195    Cartesian   -0.41
    289 x         11.269468     11.266368    -0.003100    Cartesian   -0.03
    289 y          6.761681      6.763314     0.001634    Cartesian    0.02
    289 z         -2.253894     -2.258796    -0.004902    Cartesian    0.22
    290 x         -2.253894     -2.253005     0.000889    Cartesian   -0.04
    290 y         11.269468     11.270613     0.001145    Cartesian    0.01
    290 z         -2.253894     -2.244022     0.009871    Cartesian   -0.44
    291 x          9.015574      9.066049     0.050474    Cartesian    0.56
    291 y         -4.507787     -4.528706    -0.020919    Cartesian    0.46
    291 z          4.507787      4.511712     0.003925    Cartesian    0.09
    292 x          9.015574      9.054612     0.039037    Cartesian    0.43
    292 y         -4.507787     -4.524491    -0.016704    Cartesian    0.37
    292 z         -4.507787     -4.509472    -0.001685    Cartesian    0.04
    293 x          9.015574      9.043799     0.028225    Cartesian    0.31
    293 y          9.015574      9.038852     0.023278    Cartesian    0.26
    293 z          4.507787      4.510216     0.002429    Cartesian    0.05
    294 x          9.015574      9.058446     0.042872    Cartesian    0.48
    294 y          9.015574      9.033976     0.018402    Cartesian    0.20
    294 z         -4.507787     -4.506735     0.001052    Cartesian   -0.02
    295 x          2.253894      2.253894     0.000000    Cartesian    0.00
    295 y         -6.761681     -6.766419    -0.004738    Cartesian    0.07
    295 z          6.761681      6.759517    -0.002164    Cartesian   -0.03
    296 x          2.253894      2.253894     0.000000    Cartesian    0.00
    296 y          2.253894      2.233891    -0.020002    Cartesian   -0.89
    296 z         11.269468     11.272105     0.002637    Cartesian    0.02
    297 x         11.269468     11.268898    -0.000570    Cartesian   -0.01
    297 y          2.253894      2.252070    -0.001824    Cartesian   -0.08
    297 z          6.761681      6.745029    -0.016651    Cartesian   -0.25
    298 x          2.253894      2.253894     0.000000    Cartesian    0.00
    298 y         -6.761681     -6.764392    -0.002712    Cartesian    0.04
    298 z         -6.761681     -6.742628     0.019053    Cartesian   -0.28
    299 x          2.253894      2.253894     0.000000    Cartesian    0.00
    299 y         11.269468     11.273956     0.004488    Cartesian    0.04
    299 z          6.761681      6.739541    -0.022140    Cartesian   -0.33
    300 x         11.269468     11.271544     0.002076    Cartesian    0.02
    300 y          2.253894      2.256786     0.002893    Cartesian    0.13
    300 z         -6.761681     -6.745351     0.016330    Cartesian   -0.24
    301 x          2.253894      2.253894     0.000000    Cartesian    0.00
    301 y          2.253894      2.262102     0.008208    Cartesian    0.36
    301 z        -11.269468    -11.277276    -0.007808    Cartesian    0.07
    302 x          2.253894      2.253894     0.000000    Cartesian    0.00
    302 y         11.269468     11.274807     0.005339    Cartesian    0.05
    302 z         -6.761681     -6.747728     0.013953    Cartesian   -0.21
    303 x          4.507787      4.540838     0.033051    Cartesian    0.73
    303 y         -4.507787     -4.548862    -0.041075    Cartesian    0.91
    303 z          9.015574      9.023237     0.007662    Cartesian    0.08
    304 x          4.507787      4.511109     0.003322    Cartesian    0.07
    304 y         -9.015574     -9.080557    -0.064982    Cartesian    0.72
    304 z          0.000000      0.000914     0.000914    Cartesian    0.00
    305 x          9.015574      9.020036     0.004462    Cartesian    0.05
    305 y          0.000000     -0.007219    -0.007219    Cartesian    0.00
    305 z          9.015574      9.081452     0.065878    Cartesian    0.73
    306 x          9.015574      9.023242     0.007668    Cartesian    0.09
    306 y          4.507787      4.512083     0.004296    Cartesian    0.10
    306 z          9.015574      9.062958     0.047383    Cartesian    0.53
    307 x          4.507787      4.503337    -0.004450    Cartesian   -0.10
    307 y          9.015574      9.034133     0.018559    Cartesian    0.21
    307 z          9.015574      9.065579     0.050005    Cartesian    0.55
    308 x         13.523362     13.601424     0.078062    Cartesian    0.58
    308 y          0.000000      0.036293     0.036293    Cartesian    0.00
    308 z          0.000000     -0.006080    -0.006080    Cartesian    0.00
    309 x         13.523362     13.588745     0.065383    Cartesian    0.48
    309 y          4.507787      4.475283    -0.032505    Cartesian   -0.72
    309 z          0.000000      0.008927     0.008927    Cartesian    0.00
    310 x          4.507787      4.514756     0.006968    Cartesian    0.15
    310 y         -4.507787     -4.522707    -0.014919    Cartesian    0.33
    310 z         -9.015574     -9.061928    -0.046354    Cartesian    0.51
    311 x          9.015574      9.022604     0.007030    Cartesian    0.08
    311 y          0.000000     -0.006507    -0.006507    Cartesian    0.00
    311 z         -9.015574     -9.064745    -0.049170    Cartesian    0.55
    312 x          4.507787      4.502104    -0.005683    Cartesian   -0.13
    312 y         13.523362     13.592156     0.068794    Cartesian    0.51
    312 z          0.000000     -0.002677    -0.002677    Cartesian    0.00
    313 x          9.015574      9.026771     0.011197    Cartesian    0.12
    313 y          4.507787      4.516434     0.008647    Cartesian    0.19
    313 z         -9.015574     -9.075967    -0.060392    Cartesian    0.67
    314 x          4.507787      4.537415     0.029627    Cartesian    0.66
    314 y          9.015574      9.040073     0.024498    Cartesian    0.27
    314 z         -9.015574     -9.040230    -0.024655    Cartesian    0.27
--------------------------------------------------------------------------------


  Time to end of optimisation  =       55.3822 seconds


  Peak dynamic memory used =      90.18 MB 


  Timing analysis for GULP :

--------------------------------------------------------------------------------
  Task / Subroutine                                          Time (Seconds)
--------------------------------------------------------------------------------
  Calculation of reciprocal space energy and derivatives          0.0002
  Calculation of reciprocal space energy using symmetry           0.0003
  Calculation of real space energy and derivatives                0.0013
  Calculation of real space energy using symmetry                 0.0029
  Calculation for region 1 energy and derivatives (2-b)          29.8512
  Calculation for region 2a energy                               22.9394
  Calculation for region 2b energy                                0.0085
  Calculation and manipulation of Hessian matrix                  0.1215
  Calculation of matrix inversion                                 2.2525
  Symmetry generation of equivalent positions                     0.0015
--------------------------------------------------------------------------------
  Total CPU time                                                 55.3823
--------------------------------------------------------------------------------


  Dump file written as Na3OCl.grs


  Job Finished at 10:43.42  4th December   2020                               

