********************************************************************************
*                       GENERAL UTILITY LATTICE PROGRAM                        *
*                                 Julian Gale                                  *
*                       Curtin Institute for Computation                       *
*                    School of Molecular and Life Sciences                     *
*                    Curtin University, Western Australia                      *
********************************************************************************
* Version = 5.2.0 * Last modified =  10th September 2020                       *
********************************************************************************
*  optimise     - perform optimisation run                                     *
*  conp         - constant pressure calculation                                *
*  property     - calculate properties for final geometry                      *
*  defect       - perform defect calculation after bulk run                    *
*  compare      - compare initial and final structures                         *
********************************************************************************

  Job Started  at 10:42.46  4th December   2020                               

  Number of CPUs =     1


  Total number of configurations input =      1

********************************************************************************
*  Input for Configuration =   1                                               *
********************************************************************************

  Formula = ClONa3                                                      

  Number of irreducible atoms/shells =       5


  Total number atoms/shells =       7

  Dimensionality = 3               :  Bulk   


  Symmetry :

  Crystal family                   :  Cubic       
  Crystal class  (Groth - 1921)    :  Cubic Hexakisoctahedral              

  Space group (centrosymmetric)    :  P M 3 M         

  Patterson group                  :  P m -3 m 

  Cartesian lattice vectors (Angstroms) :

        4.504000    0.000000    0.000000
        0.000000    4.504000    0.000000
        0.000000    0.000000    4.504000

  Cell parameters (Angstroms/Degrees):

  a =       4.5040    alpha =  90.0000
  b =       4.5040    beta  =  90.0000
  c =       4.5040    gamma =  90.0000

  Initial cell volume =          91.368216 Angs**3

  Temperature of configuration =   0.00     K 

  Pressure of configuration =         0.000 GPa 

  Fractional coordinates of asymmetric unit :

--------------------------------------------------------------------------------
   No.  Atomic       x           y          z         Charge      Occupancy
        Label      (Frac)      (Frac)     (Frac)        (e)         (Frac)  
--------------------------------------------------------------------------------
      1 Cl    c    0.000000    0.000000    0.000000     1.48500    1.000000    
      2 O     c    0.500000    0.500000    0.500000     0.18300    1.000000    
      3 Na    c    0.500000    0.500000    0.000000     1.00000    1.000000    
      4 Cl    s    0.000000    0.000000    0.000000    -2.48500    1.000000    
      5 O     s    0.500000    0.500000    0.500000    -2.18300    1.000000    
--------------------------------------------------------------------------------


  Constraints : 

--------------------------------------------------------------------------------
  Constraint no.      Unconstrained     Constrained    Coefficient    Offset
                         Variable         Variable
--------------------------------------------------------------------------------
           1              Strain 1        Strain 2       1.00000      0.0000
           2              Strain 1        Strain 3       1.00000      0.0000
--------------------------------------------------------------------------------


********************************************************************************
*  General input information                                                   *
********************************************************************************

  Species output for all configurations : 

--------------------------------------------------------------------------------
  Species    Type    Atomic    Atomic    Charge       Radii (Angs)     Library
                     Number     Mass       (e)     Cova   Ionic  VDW   Symbol
--------------------------------------------------------------------------------
    Na       Core       11      22.99   1.000000   0.970  0.000  2.300          
    O        Core        8      16.00   0.183000   0.730  0.000  1.360          
    O        Shell       8       0.00  -2.183000   0.730  0.000  1.360          
    Cl       Core       17      35.45   1.485000   0.990  0.000  1.650          
    Cl       Shell      17       0.00  -2.485000   0.990  0.000  1.650          
    Mg       Core       12      24.31   0.415000   1.100  0.000  0.000          
    Mg       Shell      12       0.00   1.585000   1.100  0.000  0.000          
    Ca       Core       20      40.08  -1.135000   0.990  0.000  0.000          
    Ca       Shell      20       0.00   3.135000   0.990  0.000  0.000          
    Sr       Core       38      87.62  -1.251000   1.120  0.000  0.000          
    Sr       Shell      38       0.00   3.251000   1.120  0.000  0.000          
    Ba       Core       56     137.33  -7.203000   1.340  0.000  0.000          
    Ba       Shell      56       0.00   9.203000   1.340  0.000  0.000          
--------------------------------------------------------------------------------


  Lattice summation method               =    Ewald          (3-D)
                                         =    Parry          (2-D)
                                         =    Saunders et al (1-D)
  Accuracy factor for lattice sums       =   12.000


  Analytic derivatives to be used

  Time limit = Infinity

  Maximum range for interatomic potentials =    100000.000000 Angstroms

  General interatomic potentials :

--------------------------------------------------------------------------------
Atom  Types   Potential      Parameter       Value         Units   Cutoffs(Ang)
  1     2                                                            Min /  Max 
--------------------------------------------------------------------------------
O    c O    s Spring (c-s)  Spring k 2       593.71600    eV*Ang^-2 0.000  0.800
                            Spring k 4       0.0000000    eV*Ang^-4 
--------------------------------------------------------------------------------
Cl   c Cl   s Spring (c-s)  Spring k 2       29.380000    eV*Ang^-2 0.000  0.800
                            Spring k 4       0.0000000    eV*Ang^-4 
--------------------------------------------------------------------------------
Mg   c Mg   s Spring (c-s)  Spring k 2       361.60000    eV*Ang^-2 0.000  0.800
                            Spring k 4       0.0000000    eV*Ang^-4 
--------------------------------------------------------------------------------
Ca   c Ca   s Spring (c-s)  Spring k 2       110.20000    eV*Ang^-2 0.000  0.800
                            Spring k 4       0.0000000    eV*Ang^-4 
--------------------------------------------------------------------------------
Sr   c Sr   s Spring (c-s)  Spring k 2       71.700000    eV*Ang^-2 0.000  0.800
                            Spring k 4       0.0000000    eV*Ang^-4 
--------------------------------------------------------------------------------
Ba   c Ba   s Spring (c-s)  Spring k 2       495.20000    eV*Ang^-2 0.000  0.800
                            Spring k 4       0.0000000    eV*Ang^-4 
--------------------------------------------------------------------------------
Na   c Na   c Buckingham    Buckingham A     1788.1900    eV        0.000 12.000
                            Buckingham rho  0.15900000    Ang       
                            Buckingham C     0.0000000    eV*Ang^6  
--------------------------------------------------------------------------------
Na   c O    s Buckingham    Buckingham A     1226.8400    eV        0.000 12.000
                            Buckingham rho  0.30700000    Ang       
                            Buckingham C     0.0000000    eV*Ang^6  
--------------------------------------------------------------------------------
Na   c Cl   s Buckingham    Buckingham A     2314.7000    eV        0.000 12.000
                            Buckingham rho  0.29000000    Ang       
                            Buckingham C     0.0000000    eV*Ang^6  
--------------------------------------------------------------------------------
O    s O    s Buckingham    Buckingham A     22764.300    eV        0.000 12.000
                            Buckingham rho  0.14900000    Ang       
                            Buckingham C     13.190000    eV*Ang^6  
--------------------------------------------------------------------------------
O    s Cl   s Buckingham    Buckingham A     8286.9100    eV        0.000 12.000
                            Buckingham rho  0.25900000    Ang       
                            Buckingham C     62.200000    eV*Ang^6  
--------------------------------------------------------------------------------
Cl   s Cl   s Buckingham    Buckingham A     1227.2000    eV        0.000 12.000
                            Buckingham rho  0.32100000    Ang       
                            Buckingham C     14.530000    eV*Ang^6  
--------------------------------------------------------------------------------
O    s Mg   s Buckingham    Buckingham A     1428.5000    eV        0.000 12.000
                            Buckingham rho  0.29450000    Ang       
                            Buckingham C     0.0000000    eV*Ang^6  
--------------------------------------------------------------------------------
Mg   s Cl   s Buckingham    Buckingham A     4914.5400    eV        0.000 12.000
                            Buckingham rho  0.25700000    Ang       
                            Buckingham C     0.0000000    eV*Ang^6  
--------------------------------------------------------------------------------
O    s Ca   s Buckingham    Buckingham A     1090.4000    eV        0.000 12.000
                            Buckingham rho  0.34370000    Ang       
                            Buckingham C     0.0000000    eV*Ang^6  
--------------------------------------------------------------------------------
Cl   s Ca   s Buckingham    Buckingham A     2302.0000    eV        0.000 12.000
                            Buckingham rho  0.34020000    Ang       
                            Buckingham C     0.0000000    eV*Ang^6  
--------------------------------------------------------------------------------
O    s Sr   s Buckingham    Buckingham A     959.10000    eV        0.000 12.000
                            Buckingham rho  0.37210000    Ang       
                            Buckingham C     0.0000000    eV*Ang^6  
--------------------------------------------------------------------------------
Cl   s Sr   s Buckingham    Buckingham A     2191.0900    eV        0.000 12.000
                            Buckingham rho  0.34570000    Ang       
                            Buckingham C     0.0000000    eV*Ang^6  
--------------------------------------------------------------------------------
O    s Ba   s Buckingham    Buckingham A     905.70000    eV        0.000 12.000
                            Buckingham rho  0.39760000    Ang       
                            Buckingham C     0.0000000    eV*Ang^6  
--------------------------------------------------------------------------------
Cl   s Ba   s Buckingham    Buckingham A     2704.5500    eV        0.000 12.000
                            Buckingham rho  0.35280000    Ang       
                            Buckingham C     0.0000000    eV*Ang^6  
--------------------------------------------------------------------------------

********************************************************************************
*  Output for configuration   1                                                *
********************************************************************************


  Components of energy : 

--------------------------------------------------------------------------------
  Interatomic potentials     =           5.13022605 eV    
  Monopole - monopole (real) =         -10.03624526 eV    
  Monopole - monopole (recip)=         -29.53581274 eV    
  Monopole - monopole (total)=         -39.57205800 eV    
--------------------------------------------------------------------------------
  Total lattice energy       =         -34.44183194 eV    
--------------------------------------------------------------------------------
  Total lattice energy       =           -3323.1103 kJ/(mole unit cells)
--------------------------------------------------------------------------------


  Number of variables =        1

  Maximum number of calculations  =          1000
  Maximum Hessian update interval =            10
  Maximum step size               =   1.000000000
  Maximum parameter tolerance     =   0.000010000
  Maximum function  tolerance     =   0.000010000
  Maximum gradient  tolerance     =   0.001000000
  Maximum gradient  component     =   0.010000000

  Symmetry constrained optimisation

  Symmetry used for second derivatives

  Cell parameters to be optimised using strains

  Newton-Raphson optimiser to be used

  BFGS hessian update to be used

  Lower half triangular hessian to be used

  Start of bulk optimisation :

  Cycle:      0 Energy:       -34.441832  Gnorm:      0.196570  CPU:    0.009
  ** Hessian calculated **
  Cycle:      1 Energy:       -34.441914  Gnorm:      0.000103  CPU:    0.011


  **** Optimisation achieved ****


  Final energy =     -34.44191447 eV
  Final Gnorm  =       0.00000000

  Components of energy : 

--------------------------------------------------------------------------------
  Interatomic potentials     =           5.09689708 eV    
  Monopole - monopole (real) =         -10.02781331 eV    
  Monopole - monopole (recip)=         -29.51099824 eV    
  Monopole - monopole (total)=         -39.53881155 eV    
--------------------------------------------------------------------------------
  Total lattice energy       =         -34.44191447 eV    
--------------------------------------------------------------------------------
  Total lattice energy       =           -3323.1183 kJ/(mole unit cells)
--------------------------------------------------------------------------------

  Final asymmetric unit coordinates :

--------------------------------------------------------------------------------
   No.  Atomic        x           y           z         Radius
        Label       (Frac)      (Frac)      (Frac)       (Angs) 
--------------------------------------------------------------------------------
     1  Cl    c     0.000000    0.000000    0.000000    0.000000
     2  O     c     0.500000    0.500000    0.500000    0.000000
     3  Na    c     0.500000    0.500000    0.000000    0.000000
     4  Cl    s     0.000000    0.000000    0.000000    0.000000
     5  O     s     0.500000    0.500000    0.500000    0.000000
--------------------------------------------------------------------------------

  Final Cartesian lattice vectors (Angstroms) :

        4.507787    0.000000    0.000000
        0.000000    4.507787    0.000000
        0.000000    0.000000    4.507787


  Final cell parameters and derivatives :

--------------------------------------------------------------------------------
       a            4.507787 Angstrom     dE/de1(xx)     0.000000 eV/strain
       b            4.507787 Angstrom     dE/de2(yy)     0.000000 eV/strain
       c            4.507787 Angstrom     dE/de3(zz)     0.000000 eV/strain
       alpha       90.000000 Degrees      dE/de4(yz)     0.000000 eV/strain
       beta        90.000000 Degrees      dE/de5(xz)     0.000000 eV/strain
       gamma       90.000000 Degrees      dE/de6(xy)     0.000000 eV/strain
--------------------------------------------------------------------------------

  Primitive cell volume =            91.598892 Angs**3

  Density of cell =      2.183054 g/cm**3

  Non-primitive cell volume =            91.598892 Angs**3


  Final internal derivatives :

--------------------------------------------------------------------------------
   No.  Atomic          a             b             c           Radius
        Label          (eV)          (eV)          (eV)        (eV/Angs)
--------------------------------------------------------------------------------
      1 Cl    c       0.000000      0.000000      0.000000      0.000000
      2 O     c       0.000000      0.000000      0.000000      0.000000
      3 Na    c       0.000000      0.000000      0.000000      0.000000
      4 Cl    s       0.000000      0.000000      0.000000      0.000000
      5 O     s       0.000000      0.000000      0.000000      0.000000
--------------------------------------------------------------------------------
  Maximum abs         0.000000      0.000000      0.000000      0.000000
--------------------------------------------------------------------------------

  Comparison of initial and final structures : 

--------------------------------------------------------------------------------
  Parameter   Initial value   Final value   Difference    Units      Percent
--------------------------------------------------------------------------------
    Volume        91.368216     91.598892     0.230676    Angs**3      0.25
    a              4.504000      4.507787     0.003787    Angstroms    0.08
    b              4.504000      4.507787     0.003787    Angstroms    0.08
    c              4.504000      4.507787     0.003787    Angstroms    0.08
    alpha         90.000000     90.000000     0.000000    Degrees      0.00
    beta          90.000000     90.000000     0.000000    Degrees      0.00
    gamma         90.000000     90.000000     0.000000    Degrees      0.00
      1 x          0.000000      0.000000     0.000000    Fractional   0.00
      1 y          0.000000      0.000000     0.000000    Fractional   0.00
      1 z          0.000000      0.000000     0.000000    Fractional   0.00
      2 x          0.500000      0.500000     0.000000    Fractional   0.00
      2 y          0.500000      0.500000     0.000000    Fractional   0.00
      2 z          0.500000      0.500000     0.000000    Fractional   0.00
      3 x          0.500000      0.500000     0.000000    Fractional   0.00
      3 y          0.500000      0.500000     0.000000    Fractional   0.00
      3 z          0.000000      0.000000     0.000000    Fractional   0.00
      4 x          0.000000      0.000000     0.000000    Fractional   0.00
      4 y          0.000000      0.000000     0.000000    Fractional   0.00
      4 z          0.000000      0.000000     0.000000    Fractional   0.00
      5 x          0.500000      0.500000     0.000000    Fractional   0.00
      5 y          0.500000      0.500000     0.000000    Fractional   0.00
      5 z          0.500000      0.500000     0.000000    Fractional   0.00
--------------------------------------------------------------------------------


  Born effective charge tensors : 

-------------------------------------------------------------------------------
  Atom             x           y             z
-------------------------------------------------------------------------------
    1 Cl    x      -1.0181     -0.0000      0.0000
            y      -0.0000     -1.0181      0.0000
            z       0.0000      0.0000     -1.0181
-------------------------------------------------------------------------------
    2 O     x      -2.2647      0.0000     -0.0000
            y       0.0000     -2.2647     -0.0000
            z      -0.0000     -0.0000     -2.2647
-------------------------------------------------------------------------------
    3 Na    x       1.2258     -0.0000      0.0000
            y      -0.0000      1.2258     -0.0000
            z       0.0000     -0.0000      0.8313
-------------------------------------------------------------------------------




  Elastic Constant Matrix: (Units=GPa)

-------------------------------------------------------------------------------
  Indices      1         2         3         4         5         6    
-------------------------------------------------------------------------------
       1     95.8177   20.0737   20.0737   -0.0000   -0.0000    0.0000
       2     20.0737   95.8177   20.0737   -0.0000   -0.0000    0.0000
       3     20.0737   20.0737   95.8177   -0.0000   -0.0000    0.0000
       4     -0.0000   -0.0000   -0.0000   20.0737   -0.0000    0.0000
       5     -0.0000   -0.0000   -0.0000   -0.0000   20.0737    0.0000
       6      0.0000    0.0000    0.0000    0.0000    0.0000   20.0737
-------------------------------------------------------------------------------


  Elastic Compliance Matrix: (Units=1/GPa)

-------------------------------------------------------------------------------
  Indices      1         2         3         4         5         6    
-------------------------------------------------------------------------------
       1    0.011253 -0.001949 -0.001949  0.000000  0.000000 -0.000000
       2   -0.001949  0.011253 -0.001949  0.000000  0.000000  0.000000
       3   -0.001949 -0.001949  0.011253  0.000000  0.000000 -0.000000
       4    0.000000  0.000000  0.000000  0.049816  0.000000 -0.000000
       5    0.000000  0.000000  0.000000  0.000000  0.049816 -0.000000
       6   -0.000000  0.000000 -0.000000 -0.000000 -0.000000  0.049816
-------------------------------------------------------------------------------

  Mechanical properties :

-------------------------------------------------------------------------------
  Convention :                    Reuss         Voigt         Hill
-------------------------------------------------------------------------------
  Bulk  Modulus (GPa)     =      45.32174      45.32174      45.32174
  Shear Modulus (GPa)     =      24.72085      27.19304      25.95695
-------------------------------------------------------------------------------
  Velocity S-wave (km/s)  =       3.36511       3.52937       3.44822
  Velocity P-wave (km/s)  =       5.98827       6.11304       6.05098
-------------------------------------------------------------------------------
  Compressibility (1/GPa) =    0.02206447
-------------------------------------------------------------------------------
  Stress axis :                     x             y             z
-------------------------------------------------------------------------------
  Youngs Moduli (GPa)     =      88.86373      88.86373      88.86373
-------------------------------------------------------------------------------
  Poissons Ratio (x)      =                     0.17321       0.17321
  Poissons Ratio (y)      =       0.17321                     0.17321
  Poissons Ratio (z)      =       0.17321       0.17321
-------------------------------------------------------------------------------


  Piezoelectric Strain Matrix: (Units=C/m**2)

-------------------------------------------------------------------------------
  Indices      1         2         3         4         5         6    
-------------------------------------------------------------------------------
       x    -0.00000  -0.00000  -0.00000   0.00000  -0.00000  -0.00000
       y    -0.00000  -0.00000   0.00000  -0.00000   0.00000   0.00000
       z    -0.00000  -0.00000  -0.00000  -0.00000   0.00000   0.00000
-------------------------------------------------------------------------------


  Piezoelectric Stress Matrix: (Units=10**-11 C/N)

-------------------------------------------------------------------------------
  Indices      1         2         3         4         5         6    
-------------------------------------------------------------------------------
       x    -0.00000   0.00000   0.00000   0.00000  -0.00000  -0.00000
       y    -0.00000  -0.00000   0.00000  -0.00000   0.00000   0.00000
       z     0.00000   0.00000  -0.00000  -0.00000   0.00000   0.00000
-------------------------------------------------------------------------------


  Static dielectric constant tensor : 

-------------------------------------------------------------------------------
              x         y         z
-------------------------------------------------------------------------------
       x    22.84729   0.00000   0.00000
       y     0.00000  22.84729  -0.00000
       z     0.00000  -0.00000  22.84729
--------------------------------------------------------------------------------

  High frequency dielectric constant tensor : 

-------------------------------------------------------------------------------
              x         y         z
-------------------------------------------------------------------------------
       x     1.47557   0.00000  -0.00000
       y     0.00000   1.47557  -0.00000
       z    -0.00000  -0.00000   1.47557
-------------------------------------------------------------------------------

  Static refractive indices : 

-------------------------------------------------------------------------------
    1 =    4.77988      2 =    4.77988      3 =    4.77988
-------------------------------------------------------------------------------

  High frequency refractive indices : 

-------------------------------------------------------------------------------
    1 =    1.21473      2 =    1.21473      3 =    1.21473
-------------------------------------------------------------------------------


  Time to end of optimisation =       0.0161 seconds

********************************************************************************
*  Defect calculation for configuration   1 :                                  *
********************************************************************************

  Total number of defects =      3

  Total charge on defect  =  -1.00

  Defect centre is at   0.5000   0.3800   0.1200  Frac

  Region 1 radius =  12.0000      Number of ions =    549

  Number of symmetry inequivalent region 1 ions  =    319

  Region 2 radius =  16.0000      Number of ions =    758

  Number of symmetry inequivalent region 2a ions =    413

  Region 2a mode = 4 : screened electrostatics due to region 1 
                       neglect correction to region 1 forces from 2a
                       region 2a displacements based on defects only

  Region 2a ions will only interact with defects in region 1

  Vacancies:

--------------------------------------------------------------------------------
    Specification type     Symbol/Number         x          y          z
--------------------------------------------------------------------------------
    Fractional                               0.500000   0.500000   0.000000
    Fractional                               0.500000   0.000000   0.500000
--------------------------------------------------------------------------------

  Interstitials:

--------------------------------------------------------------------------------
    Specification type     Symbol/Number         x          y          z
--------------------------------------------------------------------------------
    Atom/Fractional         Na               0.500000   0.120000   0.380000
--------------------------------------------------------------------------------


  Symmetry reduced region 1 (Relative to defect centre) :

--------------------------------------------------------------------------------
   No.   Atomic       x            y             z       Radius  Multiplicity   
         Label      (Angs)       (Angs)        (Angs)    (Angs)     
--------------------------------------------------------------------------------
     1  Na    c      0.0000      -1.1720       1.1720    0.0000     1    Defect
     2  O     c      0.0000       0.5409 *     1.7130 *  0.0000     1          
     3  O     c      0.0000       0.5409 *    -2.7948 *  0.0000     1          
     4  Cl    c      2.2539 *    -1.7130 *    -0.5409 *  0.0000     2          
     5  Na    c      2.2539 *     0.5409 *     1.7130 *  0.0000     2          
     6  Na    c      0.0000      -1.7130 *    -2.7948 *  0.0000     1          
     7  Na    c      0.0000       2.7948 *     1.7130 *  0.0000     1          
     8  Na    c      2.2539 *     0.5409 *    -2.7948 *  0.0000     2          
     9  Cl    c      2.2539 *     2.7948 *    -0.5409 *  0.0000     2          
    10  Na    c      0.0000       2.7948 *    -2.7948 *  0.0000     1          
    11  Na    c      0.0000       0.5409 *     3.9669 *  0.0000     1          
    12  Na    c      0.0000      -3.9669 *    -0.5409 *  0.0000     1          
    13  O     c      0.0000      -3.9669 *     1.7130 *  0.0000     1          
    14  Na    c     -4.5078 *     0.5409 *    -0.5409 *  0.0000     2          
    15  O     c      0.0000      -3.9669 *    -2.7948 *  0.0000     1          
    16  O     c     -4.5078 *     0.5409 *     1.7130 *  0.0000     2          
    17  Cl    c      2.2539 *    -1.7130 *     3.9669 *  0.0000     2          
    18  Na    c      2.2539 *    -3.9669 *     1.7130 *  0.0000     2          
    19  Na    c      0.0000       0.5409 *    -5.0487 *  0.0000     1          
    20  Na    c      0.0000       5.0487 *    -0.5409 *  0.0000     1          
    21  Na    c     -4.5078 *    -1.7130 *     1.7130 *  0.0000     2          
    22  O     c     -4.5078 *     0.5409 *    -2.7948 *  0.0000     2          
    23  O     c      0.0000       5.0487 *     1.7130 *  0.0000     1          
    24  Cl    c      2.2539 *     2.7948 *     3.9669 *  0.0000     2          
    25  Na    c      2.2539 *    -3.9669 *    -2.7948 *  0.0000     2          
    26  Na    c     -4.5078 *     2.7948 *     1.7130 *  0.0000     2          
    27  Na    c     -4.5078 *    -1.7130 *    -2.7948 *  0.0000     2          
    28  Na    c      0.0000      -3.9669 *     3.9669 *  0.0000     1          
    29  O     c      0.0000       5.0487 *    -2.7948 *  0.0000     1          
    30  Cl    c      2.2539 *    -1.7130 *    -5.0487 *  0.0000     2          
    31  Na    c      2.2539 *     5.0487 *     1.7130 *  0.0000     2          
    32  Na    c     -4.5078 *     2.7948 *    -2.7948 *  0.0000     2          
    33  Na    c     -4.5078 *     0.5409 *     3.9669 *  0.0000     2          
    34  Na    c     -4.5078 *    -3.9669 *    -0.5409 *  0.0000     2          
    35  Cl    c      2.2539 *     2.7948 *    -5.0487 *  0.0000     2          
    36  Na    c      2.2539 *     5.0487 *    -2.7948 *  0.0000     2          
    37  O     c      0.0000       0.5409 *     6.2207 *  0.0000     1          
    38  O     c     -4.5078 *    -3.9669 *     1.7130 *  0.0000     2          
    39  Na    c      0.0000       5.0487 *     3.9669 *  0.0000     1          
    40  Na    c      0.0000      -3.9669 *    -5.0487 *  0.0000     1          
    41  Na    c      0.0000      -1.7130 *     6.2207 *  0.0000     1          
    42  Na    c      0.0000      -6.2207 *     1.7130 *  0.0000     1          
    43  O     c     -4.5078 *    -3.9669 *    -2.7948 *  0.0000     2          
    44  Cl    c      2.2539 *    -6.2207 *    -0.5409 *  0.0000     2          
    45  Na    c      2.2539 *     0.5409 *     6.2207 *  0.0000     2          
    46  Na    c     -4.5078 *     0.5409 *    -5.0487 *  0.0000     2          
    47  Na    c     -4.5078 *     5.0487 *    -0.5409 *  0.0000     2          
    48  Na    c      0.0000       2.7948 *     6.2207 *  0.0000     1          
    49  Na    c      0.0000      -6.2207 *    -2.7948 *  0.0000     1          
    50  O     c     -4.5078 *     5.0487 *     1.7130 *  0.0000     2          
    51  Cl    c      6.7617 *    -1.7130 *    -0.5409 *  0.0000     2          
    52  Na    c      6.7617 *     0.5409 *     1.7130 *  0.0000     2          
    53  Na    c      0.0000       5.0487 *    -5.0487 *  0.0000     1          
    54  Na    c     -4.5078 *    -3.9669 *     3.9669 *  0.0000     2          
    55  O     c      0.0000       0.5409 *    -7.3026 *  0.0000     1          
    56  O     c     -4.5078 *     5.0487 *    -2.7948 *  0.0000     2          
    57  Cl    c      6.7617 *     2.7948 *    -0.5409 *  0.0000     2          
    58  Na    c      6.7617 *     0.5409 *    -2.7948 *  0.0000     2          
    59  O     c      0.0000      -3.9669 *     6.2207 *  0.0000     1          
    60  Na    c      0.0000       7.3026 *     1.7130 *  0.0000     1          
    61  Na    c      0.0000      -1.7130 *    -7.3026 *  0.0000     1          
    62  Cl    c      2.2539 *     7.3026 *    -0.5409 *  0.0000     2          
    63  Na    c      2.2539 *     0.5409 *    -7.3026 *  0.0000     2          
    64  O     c      4.5078 *     0.5409 *     6.2207 *  0.0000     2          
    65  Cl    c      2.2539 *    -6.2207 *     3.9669 *  0.0000     2          
    66  Na    c      2.2539 *    -3.9669 *     6.2207 *  0.0000     2          
    67  Na    c      0.0000       2.7948 *    -7.3026 *  0.0000     1          
    68  Na    c      0.0000       7.3026 *    -2.7948 *  0.0000     1          
    69  Na    c     -4.5078 *     5.0487 *     3.9669 *  0.0000     2          
    70  Na    c      4.5078 *    -3.9669 *    -5.0487 *  0.0000     2          
    71  Na    c     -4.5078 *    -1.7130 *     6.2207 *  0.0000     2          
    72  Na    c     -4.5078 *    -6.2207 *     1.7130 *  0.0000     2          
    73  O     c      0.0000       5.0487 *     6.2207 *  0.0000     1          
    74  Cl    c      6.7617 *    -1.7130 *     3.9669 *  0.0000     2          
    75  Na    c      6.7617 *    -3.9669 *     1.7130 *  0.0000     2          
    76  Na    c     -4.5078 *     2.7948 *     6.2207 *  0.0000     2          
    77  Na    c     -4.5078 *    -6.2207 *    -2.7948 *  0.0000     2          
    78  O     c      0.0000      -3.9669 *    -7.3026 *  0.0000     1          
    79  Cl    c      2.2539 *    -6.2207 *    -5.0487 *  0.0000     2          
    80  Cl    c      6.7617 *     2.7948 *     3.9669 *  0.0000     2          
    81  Na    c      2.2539 *     5.0487 *     6.2207 *  0.0000     2          
    82  Na    c      6.7617 *    -3.9669 *    -2.7948 *  0.0000     2          
    83  Na    c      4.5078 *     5.0487 *    -5.0487 *  0.0000     2          
    84  Na    c      0.0000       0.5409 *     8.4746 *  0.0000     1          
    85  Na    c      0.0000      -8.4746 *    -0.5409 *  0.0000     1          
    86  O     c     -4.5078 *     0.5409 *    -7.3026 *  0.0000     2          
    87  Cl    c      2.2539 *     7.3026 *     3.9669 *  0.0000     2          
    88  Na    c      2.2539 *    -3.9669 *    -7.3026 *  0.0000     2          
    89  Cl    c      6.7617 *    -1.7130 *    -5.0487 *  0.0000     2          
    90  Na    c      6.7617 *     5.0487 *     1.7130 *  0.0000     2          
    91  O     c     -4.5078 *    -3.9669 *     6.2207 *  0.0000     2          
    92  O     c      0.0000      -8.4746 *     1.7130 *  0.0000     1          
    93  Na    c      4.5078 *     7.3026 *     1.7130 *  0.0000     2          
    94  Na    c      4.5078 *    -1.7130 *    -7.3026 *  0.0000     2          
    95  Na    c      0.0000      -6.2207 *     6.2207 *  0.0000     1          
    96  O     c      0.0000       5.0487 *    -7.3026 *  0.0000     1          
    97  Cl    c      6.7617 *     2.7948 *    -5.0487 *  0.0000     2          
    98  Na    c      6.7617 *     5.0487 *    -2.7948 *  0.0000     2          
    99  O     c      0.0000      -8.4746 *    -2.7948 *  0.0000     1          
   100  Cl    c      2.2539 *    -1.7130 *     8.4746 *  0.0000     2          
   101  Na    c      2.2539 *    -8.4746 *     1.7130 *  0.0000     2          
   102  Na    c      4.5078 *     2.7948 *    -7.3026 *  0.0000     2          
   103  Na    c      4.5078 *     7.3026 *    -2.7948 *  0.0000     2          
   104  Na    c      9.0156 *     0.5409 *    -0.5409 *  0.0000     2          
   105  Cl    c      2.2539 *     7.3026 *    -5.0487 *  0.0000     2          
   106  Na    c      2.2539 *     5.0487 *    -7.3026 *  0.0000     2          
   107  O     c      9.0156 *     0.5409 *     1.7130 *  0.0000     2          
   108  O     c      4.5078 *     5.0487 *     6.2207 *  0.0000     2          
   109  Cl    c      2.2539 *     2.7948 *     8.4746 *  0.0000     2          
   110  Cl    c      6.7617 *    -6.2207 *    -0.5409 *  0.0000     2          
   111  Na    c      2.2539 *    -8.4746 *    -2.7948 *  0.0000     2          
   112  Na    c      6.7617 *     0.5409 *     6.2207 *  0.0000     2          
   113  Na    c      9.0156 *    -1.7130 *     1.7130 *  0.0000     2          
   114  Na    c      0.0000      -3.9669 *     8.4746 *  0.0000     1          
   115  Na    c      0.0000      -8.4746 *     3.9669 *  0.0000     1          
   116  O     c      4.5078 *    -3.9669 *    -7.3026 *  0.0000     2          
   117  O     c      9.0156 *     0.5409 *    -2.7948 *  0.0000     2          
   118  Na    c      0.0000       0.5409 *    -9.5565 *  0.0000     1          
   119  Na    c      0.0000       9.5565 *    -0.5409 *  0.0000     1          
   120  Na    c      0.0000       7.3026 *     6.2207 *  0.0000     1          
   121  Na    c      0.0000      -6.2207 *    -7.3026 *  0.0000     1          
   122  Na    c      9.0156 *     2.7948 *     1.7130 *  0.0000     2          
   123  Na    c      9.0156 *    -1.7130 *    -2.7948 *  0.0000     2          
   124  Na    c      4.5078 *     0.5409 *     8.4746 *  0.0000     2          
   125  Na    c      4.5078 *    -8.4746 *    -0.5409 *  0.0000     2          
   126  O     c      0.0000       9.5565 *     1.7130 *  0.0000     1          
   127  O     c     -4.5078 *    -8.4746 *     1.7130 *  0.0000     2          
   128  Na    c      9.0156 *     2.7948 *    -2.7948 *  0.0000     2          
   129  Na    c      9.0156 *     0.5409 *     3.9669 *  0.0000     2          
   130  Na    c      9.0156 *    -3.9669 *    -0.5409 *  0.0000     2          
   131  Na    c      0.0000       5.0487 *     8.4746 *  0.0000     1          
   132  Na    c      0.0000      -8.4746 *    -5.0487 *  0.0000     1          
   133  Na    c     -4.5078 *    -6.2207 *     6.2207 *  0.0000     2          
   134  O     c      0.0000       9.5565 *    -2.7948 *  0.0000     1          
   135  O     c     -4.5078 *     5.0487 *    -7.3026 *  0.0000     2          
   136  Cl    c      2.2539 *    -1.7130 *    -9.5565 *  0.0000     2          
   137  Na    c      2.2539 *     9.5565 *     1.7130 *  0.0000     2          
   138  Cl    c      6.7617 *     7.3026 *    -0.5409 *  0.0000     2          
   139  Na    c      6.7617 *     0.5409 *    -7.3026 *  0.0000     2          
   140  O     c      9.0156 *    -3.9669 *     1.7130 *  0.0000     2          
   141  O     c     -4.5078 *    -8.4746 *    -2.7948 *  0.0000     2          
   142  Cl    c      6.7617 *    -6.2207 *     3.9669 *  0.0000     2          
   143  Na    c      6.7617 *    -3.9669 *     6.2207 *  0.0000     2          
   144  Cl    c      2.2539 *     2.7948 *    -9.5565 *  0.0000     2          
   145  Na    c      2.2539 *     9.5565 *    -2.7948 *  0.0000     2          
   146  O     c      9.0156 *    -3.9669 *    -2.7948 *  0.0000     2          
   147  Na    c      0.0000       7.3026 *    -7.3026 *  0.0000     1          
   148  Na    c      0.0000       9.5565 *     3.9669 *  0.0000     1          
   149  Na    c      0.0000      -3.9669 *    -9.5565 *  0.0000     1          
   150  Na    c      9.0156 *     0.5409 *    -5.0487 *  0.0000     2          
   151  Na    c      9.0156 *     5.0487 *    -0.5409 *  0.0000     2          
   152  Na    c     -4.5078 *    -3.9669 *     8.4746 *  0.0000     2          
   153  Na    c     -4.5078 *    -8.4746 *     3.9669 *  0.0000     2          
   154  O     c      9.0156 *     5.0487 *     1.7130 *  0.0000     2          
   155  Cl    c      6.7617 *    -6.2207 *    -5.0487 *  0.0000     2          
   156  Na    c      6.7617 *     5.0487 *     6.2207 *  0.0000     2          
   157  O     c      0.0000      -8.4746 *     6.2207 *  0.0000     1          
   158  Na    c      4.5078 *     0.5409 *    -9.5565 *  0.0000     2          
   159  Na    c      4.5078 *     9.5565 *    -0.5409 *  0.0000     2          
   160  Na    c      4.5078 *     7.3026 *     6.2207 *  0.0000     2          
   161  Na    c      4.5078 *    -6.2207 *    -7.3026 *  0.0000     2          
   162  Na    c      9.0156 *    -3.9669 *     3.9669 *  0.0000     2          
   163  O     c     -4.5078 *     9.5565 *     1.7130 *  0.0000     2          
   164  O     c      9.0156 *     5.0487 *    -2.7948 *  0.0000     2          
   165  Cl    c      6.7617 *     7.3026 *     3.9669 *  0.0000     2          
   166  Na    c      6.7617 *    -3.9669 *    -7.3026 *  0.0000     2          
   167  O     c      0.0000       0.5409 *    10.7285 *  0.0000     1          
   168  Cl    c      2.2539 *    -6.2207 *     8.4746 *  0.0000     2          
   169  Na    c      2.2539 *    -8.4746 *     6.2207 *  0.0000     2          
   170  Na    c      0.0000       5.0487 *    -9.5565 *  0.0000     1          
   171  Na    c      0.0000       9.5565 *    -5.0487 *  0.0000     1          
   172  Na    c     -4.5078 *    -8.4746 *    -5.0487 *  0.0000     2          
   173  Na    c      4.5078 *     5.0487 *     8.4746 *  0.0000     2          
   174  Na    c      0.0000      -1.7130 *    10.7285 *  0.0000     1          
   175  Na    c      0.0000     -10.7285 *     1.7130 *  0.0000     1          
   176  O     c     -4.5078 *     9.5565 *    -2.7948 *  0.0000     2          
   177  O     c      9.0156 *     0.5409 *     6.2207 *  0.0000     2          
   178  Cl    c      2.2539 *   -10.7285 *    -0.5409 *  0.0000     2          
   179  Cl    c      6.7617 *    -1.7130 *     8.4746 *  0.0000     2          
   180  Na    c      2.2539 *     0.5409 *    10.7285 *  0.0000     2          
   181  Na    c      6.7617 *    -8.4746 *     1.7130 *  0.0000     2          
   182  Na    c      9.0156 *     5.0487 *     3.9669 *  0.0000     2          
   183  Na    c      9.0156 *    -3.9669 *    -5.0487 *  0.0000     2          
   184  Na    c      0.0000       2.7948 *    10.7285 *  0.0000     1          
   185  Na    c      0.0000     -10.7285 *    -2.7948 *  0.0000     1          
   186  Na    c      9.0156 *    -1.7130 *     6.2207 *  0.0000     2          
   187  Na    c      9.0156 *    -6.2207 *     1.7130 *  0.0000     2          
   188  Cl    c      6.7617 *     7.3026 *    -5.0487 *  0.0000     2          
   189  Na    c      6.7617 *     5.0487 *    -7.3026 *  0.0000     2          
   190  O     c      0.0000      -8.4746 *    -7.3026 *  0.0000     1          
   191  Cl    c      6.7617 *     2.7948 *     8.4746 *  0.0000     2          
   192  Na    c      6.7617 *    -8.4746 *    -2.7948 *  0.0000     2          
   193  Na    c      4.5078 *     7.3026 *    -7.3026 *  0.0000     2          
   194  Na    c     -4.5078 *     9.5565 *     3.9669 *  0.0000     2          
   195  Na    c     -4.5078 *    -3.9669 *    -9.5565 *  0.0000     2          
   196  Na    c      9.0156 *     2.7948 *     6.2207 *  0.0000     2          
   197  Na    c      9.0156 *    -6.2207 *    -2.7948 *  0.0000     2          
   198  O     c      0.0000       9.5565 *     6.2207 *  0.0000     1          
   199  Cl    c     11.2695 *    -1.7130 *    -0.5409 *  0.0000     2          
   200  Na    c     11.2695 *     0.5409 *     1.7130 *  0.0000     2          
   201  Cl    c      2.2539 *     7.3026 *     8.4746 *  0.0000     2          
   202  Na    c      2.2539 *    -8.4746 *    -7.3026 *  0.0000     2          
   203  O     c      0.0000      -3.9669 *    10.7285 *  0.0000     1          
   204  O     c      4.5078 *    -8.4746 *     6.2207 *  0.0000     2          
   205  Na    c      9.0156 *     5.0487 *    -5.0487 *  0.0000     2          
   206  O     c      9.0156 *     0.5409 *    -7.3026 *  0.0000     2          
   207  Cl    c      2.2539 *    -6.2207 *    -9.5565 *  0.0000     2          
   208  Cl    c     11.2695 *     2.7948 *    -0.5409 *  0.0000     2          
   209  Na    c      2.2539 *     9.5565 *     6.2207 *  0.0000     2          
   210  Na    c     11.2695 *     0.5409 *    -2.7948 *  0.0000     2          
   211  O     c      9.0156 *    -3.9669 *     6.2207 *  0.0000     2          
   212  O     c      4.5078 *     0.5409 *    10.7285 *  0.0000     2          
   213  Cl    c      2.2539 *   -10.7285 *     3.9669 *  0.0000     2          
   214  Na    c      2.2539 *    -3.9669 *    10.7285 *  0.0000     2          
   215  Na    c      4.5078 *     5.0487 *    -9.5565 *  0.0000     2          
   216  Na    c      4.5078 *     9.5565 *    -5.0487 *  0.0000     2          
   217  Na    c      9.0156 *     7.3026 *     1.7130 *  0.0000     2          
   218  Na    c      9.0156 *    -1.7130 *    -7.3026 *  0.0000     2          
   219  Na    c      4.5078 *    -1.7130 *    10.7285 *  0.0000     2          
   220  Na    c      4.5078 *   -10.7285 *     1.7130 *  0.0000     2          
   221  O     c      0.0000       0.5409 *   -11.8104 *  0.0000     1          
   222  Cl    c      6.7617 *    -1.7130 *    -9.5565 *  0.0000     2          
   223  Na    c      6.7617 *     9.5565 *     1.7130 *  0.0000     2          
   224  O     c      0.0000       5.0487 *    10.7285 *  0.0000     1          
   225  Na    c      9.0156 *     2.7948 *    -7.3026 *  0.0000     2          
   226  Na    c      0.0000      11.8104 *     1.7130 *  0.0000     1          
   227  Na    c      0.0000      -1.7130 *   -11.8104 *  0.0000     1          
   228  Na    c      9.0156 *     7.3026 *    -2.7948 *  0.0000     2          
   229  Na    c      4.5078 *     2.7948 *    10.7285 *  0.0000     2          
   230  Na    c      4.5078 *   -10.7285 *    -2.7948 *  0.0000     2          
   231  Na    c      0.0000      -8.4746 *     8.4746 *  0.0000     1          
   232  O     s      0.0000       0.5409 *     1.7130 *  0.0000     1          
   233  O     s      0.0000       0.5409 *    -2.7948 *  0.0000     1          
   234  Cl    s      2.2539 *    -1.7130 *    -0.5409 *  0.0000     2          
   235  Cl    s      2.2539 *     2.7948 *    -0.5409 *  0.0000     2          
   236  O     s      0.0000      -3.9669 *     1.7130 *  0.0000     1          
   237  O     s      0.0000      -3.9669 *    -2.7948 *  0.0000     1          
   238  O     s     -4.5078 *     0.5409 *     1.7130 *  0.0000     2          
   239  Cl    s      2.2539 *    -1.7130 *     3.9669 *  0.0000     2          
   240  O     s     -4.5078 *     0.5409 *    -2.7948 *  0.0000     2          
   241  O     s      0.0000       5.0487 *     1.7130 *  0.0000     1          
   242  Cl    s      2.2539 *     2.7948 *     3.9669 *  0.0000     2          
   243  O     s      0.0000       5.0487 *    -2.7948 *  0.0000     1          
   244  Cl    s      2.2539 *    -1.7130 *    -5.0487 *  0.0000     2          
   245  Cl    s      2.2539 *     2.7948 *    -5.0487 *  0.0000     2          
   246  O     s      0.0000       0.5409 *     6.2207 *  0.0000     1          
   247  O     s     -4.5078 *    -3.9669 *     1.7130 *  0.0000     2          
   248  O     s     -4.5078 *    -3.9669 *    -2.7948 *  0.0000     2          
   249  Cl    s      2.2539 *    -6.2207 *    -0.5409 *  0.0000     2          
   250  O     s     -4.5078 *     5.0487 *     1.7130 *  0.0000     2          
   251  Cl    s      6.7617 *    -1.7130 *    -0.5409 *  0.0000     2          
   252  O     s      0.0000       0.5409 *    -7.3026 *  0.0000     1          
   253  O     s     -4.5078 *     5.0487 *    -2.7948 *  0.0000     2          
   254  Cl    s      6.7617 *     2.7948 *    -0.5409 *  0.0000     2          
   255  O     s      0.0000      -3.9669 *     6.2207 *  0.0000     1          
   256  Cl    s      2.2539 *     7.3026 *    -0.5409 *  0.0000     2          
   257  O     s      4.5078 *     0.5409 *     6.2207 *  0.0000     2          
   258  Cl    s      2.2539 *    -6.2207 *     3.9669 *  0.0000     2          
   259  O     s      0.0000       5.0487 *     6.2207 *  0.0000     1          
   260  Cl    s      6.7617 *    -1.7130 *     3.9669 *  0.0000     2          
   261  O     s      0.0000      -3.9669 *    -7.3026 *  0.0000     1          
   262  Cl    s      2.2539 *    -6.2207 *    -5.0487 *  0.0000     2          
   263  Cl    s      6.7617 *     2.7948 *     3.9669 *  0.0000     2          
   264  O     s     -4.5078 *     0.5409 *    -7.3026 *  0.0000     2          
   265  Cl    s      2.2539 *     7.3026 *     3.9669 *  0.0000     2          
   266  Cl    s      6.7617 *    -1.7130 *    -5.0487 *  0.0000     2          
   267  O     s     -4.5078 *    -3.9669 *     6.2207 *  0.0000     2          
   268  O     s      0.0000      -8.4746 *     1.7130 *  0.0000     1          
   269  O     s      0.0000       5.0487 *    -7.3026 *  0.0000     1          
   270  Cl    s      6.7617 *     2.7948 *    -5.0487 *  0.0000     2          
   271  O     s      0.0000      -8.4746 *    -2.7948 *  0.0000     1          
   272  Cl    s      2.2539 *    -1.7130 *     8.4746 *  0.0000     2          
   273  Cl    s      2.2539 *     7.3026 *    -5.0487 *  0.0000     2          
   274  O     s      9.0156 *     0.5409 *     1.7130 *  0.0000     2          
   275  O     s      4.5078 *     5.0487 *     6.2207 *  0.0000     2          
   276  Cl    s      2.2539 *     2.7948 *     8.4746 *  0.0000     2          
   277  Cl    s      6.7617 *    -6.2207 *    -0.5409 *  0.0000     2          
   278  O     s      4.5078 *    -3.9669 *    -7.3026 *  0.0000     2          
   279  O     s      9.0156 *     0.5409 *    -2.7948 *  0.0000     2          
   280  O     s      0.0000       9.5565 *     1.7130 *  0.0000     1          
   281  O     s     -4.5078 *    -8.4746 *     1.7130 *  0.0000     2          
   282  O     s      0.0000       9.5565 *    -2.7948 *  0.0000     1          
   283  O     s     -4.5078 *     5.0487 *    -7.3026 *  0.0000     2          
   284  Cl    s      2.2539 *    -1.7130 *    -9.5565 *  0.0000     2          
   285  Cl    s      6.7617 *     7.3026 *    -0.5409 *  0.0000     2          
   286  O     s      9.0156 *    -3.9669 *     1.7130 *  0.0000     2          
   287  O     s     -4.5078 *    -8.4746 *    -2.7948 *  0.0000     2          
   288  Cl    s      6.7617 *    -6.2207 *     3.9669 *  0.0000     2          
   289  Cl    s      2.2539 *     2.7948 *    -9.5565 *  0.0000     2          
   290  O     s      9.0156 *    -3.9669 *    -2.7948 *  0.0000     2          
   291  O     s      9.0156 *     5.0487 *     1.7130 *  0.0000     2          
   292  Cl    s      6.7617 *    -6.2207 *    -5.0487 *  0.0000     2          
   293  O     s      0.0000      -8.4746 *     6.2207 *  0.0000     1          
   294  O     s     -4.5078 *     9.5565 *     1.7130 *  0.0000     2          
   295  O     s      9.0156 *     5.0487 *    -2.7948 *  0.0000     2          
   296  Cl    s      6.7617 *     7.3026 *     3.9669 *  0.0000     2          
   297  O     s      0.0000       0.5409 *    10.7285 *  0.0000     1          
   298  Cl    s      2.2539 *    -6.2207 *     8.4746 *  0.0000     2          
   299  O     s     -4.5078 *     9.5565 *    -2.7948 *  0.0000     2          
   300  O     s      9.0156 *     0.5409 *     6.2207 *  0.0000     2          
   301  Cl    s      2.2539 *   -10.7285 *    -0.5409 *  0.0000     2          
   302  Cl    s      6.7617 *    -1.7130 *     8.4746 *  0.0000     2          
   303  Cl    s      6.7617 *     7.3026 *    -5.0487 *  0.0000     2          
   304  O     s      0.0000      -8.4746 *    -7.3026 *  0.0000     1          
   305  Cl    s      6.7617 *     2.7948 *     8.4746 *  0.0000     2          
   306  O     s      0.0000       9.5565 *     6.2207 *  0.0000     1          
   307  Cl    s     11.2695 *    -1.7130 *    -0.5409 *  0.0000     2          
   308  Cl    s      2.2539 *     7.3026 *     8.4746 *  0.0000     2          
   309  O     s      0.0000      -3.9669 *    10.7285 *  0.0000     1          
   310  O     s      4.5078 *    -8.4746 *     6.2207 *  0.0000     2          
   311  O     s      9.0156 *     0.5409 *    -7.3026 *  0.0000     2          
   312  Cl    s      2.2539 *    -6.2207 *    -9.5565 *  0.0000     2          
   313  Cl    s     11.2695 *     2.7948 *    -0.5409 *  0.0000     2          
   314  O     s      9.0156 *    -3.9669 *     6.2207 *  0.0000     2          
   315  O     s      4.5078 *     0.5409 *    10.7285 *  0.0000     2          
   316  Cl    s      2.2539 *   -10.7285 *     3.9669 *  0.0000     2          
   317  O     s      0.0000       0.5409 *   -11.8104 *  0.0000     1          
   318  Cl    s      6.7617 *    -1.7130 *    -9.5565 *  0.0000     2          
   319  O     s      0.0000       5.0487 *    10.7285 *  0.0000     1          
--------------------------------------------------------------------------------

  Components of defect energy : 

--------------------------------------------------------------------------------
  Region 1 - region 1                   =     -8.00313999 eV
  Region 1 - region 2a (unrelaxed)      =     16.96740911 eV
  Region 1 - 2a (relaxed - correction)  =     -0.28817530 eV
  Region 1 (Total)                      =      8.67609381 eV
  Region 2a                             =      0.14400406 eV
  Region 2b                             =     -0.43128797 eV
--------------------------------------------------------------------------------
  Total defect energy                   =      8.38880990 eV
--------------------------------------------------------------------------------

  Largest displacement in region 2 =   0.0214 Angstroms


  Number of variables =      866

  Maximum number of calculations  =        1000
  Maximum Hessian update interval =          10
  Maximum step size               =   1.0000000
  Maximum parameter tolerance     =   0.0000100
  Maximum function  tolerance     =   0.0000100
  Maximum gradient  tolerance     =   0.0010000

  Symmetry adapted optimisation

  Symmetry to be used for second derivatives

  Newton-Raphson optimiser to be used

  BFGS hessian update to be used

  Lower half triangular hessian to be used

  Start of defect optimisation :

  Cycle:      0 Defect Energy:   8.388810  Gnorm:     0.019262  CPU:    2.112
  ** Hessian calculated **
  Cycle:      1 Defect Energy:   6.796662  Gnorm:     0.008192  CPU:    6.576
  Cycle:      2 Defect Energy:   6.316051  Gnorm:     0.007349  CPU:   10.044
  Cycle:      3 Defect Energy:   6.184024  Gnorm:     0.005561  CPU:   13.302
  Cycle:      4 Defect Energy:   5.999989  Gnorm:     0.006167  CPU:   16.378
  Cycle:      5 Defect Energy:   5.848800  Gnorm:     0.004627  CPU:   20.213
  Cycle:      6 Defect Energy:   5.670041  Gnorm:     0.006106  CPU:   23.519
  Cycle:      7 Defect Energy:   5.467751  Gnorm:     0.005535  CPU:   27.402
  Cycle:      8 Defect Energy:   5.315784  Gnorm:     0.003654  CPU:   30.328
  Cycle:      9 Defect Energy:   5.272169  Gnorm:     0.003068  CPU:   31.196
  Cycle:     10 Defect Energy:   5.224951  Gnorm:     0.002835  CPU:   32.100
  ** Hessian calculated **
  Cycle:     11 Defect Energy:   5.160225  Gnorm:     0.002646  CPU:   34.468
  Cycle:     12 Defect Energy:   5.069874  Gnorm:     0.002366  CPU:   35.345
  Cycle:     13 Defect Energy:   4.959034  Gnorm:     0.001975  CPU:   36.285
  Cycle:     14 Defect Energy:   4.901524  Gnorm:     0.001738  CPU:   36.832
  ** Hessian calculated **
  Cycle:     15 Defect Energy:   4.799966  Gnorm:     0.001240  CPU:   39.142
  Cycle:     16 Defect Energy:   4.745967  Gnorm:     0.000899  CPU:   40.044
  Cycle:     17 Defect Energy:   4.715329  Gnorm:     0.000650  CPU:   40.956
  Cycle:     18 Defect Energy:   4.697659  Gnorm:     0.000469  CPU:   41.839
  Cycle:     19 Defect Energy:   4.687235  Gnorm:     0.000336  CPU:   42.824
  Cycle:     20 Defect Energy:   4.680984  Gnorm:     0.000237  CPU:   43.407
  Cycle:     21 Defect Energy:   4.677207  Gnorm:     0.000177  CPU:   44.211
  Cycle:     22 Defect Energy:   4.674901  Gnorm:     0.000102  CPU:   45.106
  Cycle:     23 Defect Energy:   4.673310  Gnorm:     0.000139  CPU:   46.026
  Cycle:     24 Defect Energy:   4.672778  Gnorm:     0.000110  CPU:   46.960
  ** Hessian calculated **
  Cycle:     25 Defect Energy:   4.672172  Gnorm:     0.000089  CPU:   49.359
  Cycle:     26 Defect Energy:   4.671736  Gnorm:     0.000066  CPU:   50.024
  Cycle:     27 Defect Energy:   4.671579  Gnorm:     0.000046  CPU:   50.570
  Cycle:     28 Defect Energy:   4.671519  Gnorm:     0.000034  CPU:   51.319
  Cycle:     29 Defect Energy:   4.671490  Gnorm:     0.000025  CPU:   52.173
  Cycle:     30 Defect Energy:   4.671473  Gnorm:     0.000020  CPU:   53.022
  ** Hessian calculated **


  **** Optimisation achieved ****


  Final defect energy  =        4.67147376
  Final defect Gnorm   =        0.00001183

  Components of defect energy : 

--------------------------------------------------------------------------------
  Region 1 - region 1                   =     -9.49927311 eV
  Region 1 - region 2a (unrelaxed)      =     14.70925690 eV
  Region 1 - 2a (relaxed - correction)  =     -0.21408987 eV
  Region 1 (Total)                      =      4.99589392 eV
  Region 2a                             =      0.10701097 eV
  Region 2b                             =     -0.43143113 eV
--------------------------------------------------------------------------------
  Total defect energy                   =      4.67147376 eV
--------------------------------------------------------------------------------

  Largest displacement in region 2 =   0.0214 Angstroms

  Final coordinates of region 1 :

--------------------------------------------------------------------------------
   No.  Atomic        x           y           z          Radius      Charge
        Label       (Angs)      (Angs)      (Angs)       (Angs)       (e) 
--------------------------------------------------------------------------------
     1  Na    c     2.253894    0.540934    1.712959    0.000000    1.000000
     2  O     c     2.253894    2.571147    2.381000    0.000000    0.183000
     3  O     c     2.253894    2.281031   -2.312102    0.000000    0.183000
     4  Cl    c     4.601855   -0.059259   -0.006730    0.000000    1.485000
     5  Cl    c    -0.094068   -0.059259   -0.006730    0.000000    1.485000
     6  Na    c     4.478050    2.623755    2.077728    0.000000    1.000000
     7  Na    c     0.029737    2.623755    2.077728    0.000000    1.000000
     8  Na    c     2.253894    0.084364   -1.949814    0.000000    1.000000
     9  Na    c     2.253894    4.596816    1.564741    0.000000    1.000000
    10  Na    c     4.413466    2.292479   -1.751245    0.000000    1.000000
    11  Na    c     0.094322    2.292479   -1.751245    0.000000    1.000000
    12  Cl    c     4.650071    4.672349   -0.024928    0.000000    1.485000
    13  Cl    c    -0.142283    4.672349   -0.024928    0.000000    1.485000
    14  Na    c     2.253894    4.479065   -1.952415    0.000000    1.000000
    15  Na    c     2.253894    2.552032    4.568013    0.000000    1.000000
    16  Na    c     2.253894   -2.437810    0.008609    0.000000    1.000000
    17  O     c     2.253894   -2.112154    2.221265    0.000000    0.183000
    18  Na    c    -2.550029    2.277603    0.008779    0.000000    1.000000
    19  Na    c     7.057816    2.277603    0.008779    0.000000    1.000000
    20  O     c     2.253894   -2.208395   -2.245129    0.000000    0.183000
    21  O     c    -2.244143    2.299568    2.266542    0.000000    0.183000
    22  O     c     6.751930    2.299568    2.266542    0.000000    0.183000
    23  Cl    c     4.633021   -0.017335    4.624723    0.000000    1.485000
    24  Cl    c    -0.125234   -0.017335    4.624723    0.000000    1.485000
    25  Na    c     4.485208   -2.135239    2.160428    0.000000    1.000000
    26  Na    c     0.022579   -2.135239    2.160428    0.000000    1.000000
    27  Na    c     2.253894    2.227900   -4.510166    0.000000    1.000000
    28  Na    c     2.253894    7.292730   -0.003123    0.000000    1.000000
    29  Na    c    -2.039457    0.058096    2.238527    0.000000    1.000000
    30  Na    c     6.547244    0.058096    2.238527    0.000000    1.000000
    31  O     c    -2.195410    2.264671   -2.240130    0.000000    0.183000
    32  O     c     6.703197    2.264671   -2.240130    0.000000    0.183000
    33  O     c     2.253894    6.788017    2.212485    0.000000    0.183000
    34  Cl    c     4.665033    4.601072    4.605149    0.000000    1.485000
    35  Cl    c    -0.157246    4.601072    4.605149    0.000000    1.485000
    36  Na    c     4.504164   -2.270523   -2.158991    0.000000    1.000000
    37  Na    c     0.003623   -2.270523   -2.158991    0.000000    1.000000
    38  Na    c    -2.489937    4.540900    2.320823    0.000000    1.000000
    39  Na    c     6.997724    4.540900    2.320823    0.000000    1.000000
    40  Na    c    -2.111490    0.015739   -2.290214    0.000000    1.000000
    41  Na    c     6.619277    0.015739   -2.290214    0.000000    1.000000
    42  Na    c     2.253894   -1.708628    4.426941    0.000000    1.000000
    43  O     c     2.253894    6.778096   -2.217162    0.000000    0.183000
    44  Cl    c     4.586754   -0.093359   -4.613831    0.000000    1.485000
    45  Cl    c    -0.078967   -0.093359   -4.613831    0.000000    1.485000
    46  Na    c     4.520679    6.664119    2.199977    0.000000    1.000000
    47  Na    c    -0.012892    6.664119    2.199977    0.000000    1.000000
    48  Na    c    -2.222439    4.513316   -2.292479    0.000000    1.000000
    49  Na    c     6.730226    4.513316   -2.292479    0.000000    1.000000
    50  Na    c    -1.956315    2.257653    4.511908    0.000000    1.000000
    51  Na    c     6.464103    2.257653    4.511908    0.000000    1.000000
    52  Na    c    -2.366592   -2.153402   -0.001411    0.000000    1.000000
    53  Na    c     6.874380   -2.153402   -0.001411    0.000000    1.000000
    54  Cl    c     4.576694    4.634426   -4.604828    0.000000    1.485000
    55  Cl    c    -0.068907    4.634426   -4.604828    0.000000    1.485000
    56  Na    c     4.507463    6.732823   -2.141664    0.000000    1.000000
    57  Na    c     0.000324    6.732823   -2.141664    0.000000    1.000000
    58  O     c     2.253894    2.305921    6.832061    0.000000    0.183000
    59  O     c    -2.247374   -2.199428    2.251316    0.000000    0.183000
    60  O     c     6.755161   -2.199428    2.251316    0.000000    0.183000
    61  Na    c     2.253894    6.287604    4.455030    0.000000    1.000000
    62  Na    c     2.253894   -1.897928   -4.492503    0.000000    1.000000
    63  Na    c     2.253894    0.051957    6.820121    0.000000    1.000000
    64  Na    c     2.253894   -4.388397    2.597233    0.000000    1.000000
    65  O     c    -2.256050   -2.243537   -2.256291    0.000000    0.183000
    66  O     c     6.763837   -2.243537   -2.256291    0.000000    0.183000
    67  Cl    c     4.528008   -4.486061   -0.013469    0.000000    1.485000
    68  Cl    c    -0.020220   -4.486061   -0.013469    0.000000    1.485000
    69  Na    c     4.512521    2.301789    6.894440    0.000000    1.000000
    70  Na    c    -0.004733    2.301789    6.894440    0.000000    1.000000
    71  Na    c    -1.785600    2.278562   -4.471806    0.000000    1.000000
    72  Na    c     6.293387    2.278562   -4.471806    0.000000    1.000000
    73  Na    c    -2.371433    6.665732    0.000376    0.000000    1.000000
    74  Na    c     6.879221    6.665732    0.000376    0.000000    1.000000
    75  Na    c     2.253894    4.531932    7.130308    0.000000    1.000000
    76  Na    c     2.253894   -4.458164   -2.581778    0.000000    1.000000
    77  O     c    -2.278126    6.790535    2.260152    0.000000    0.183000
    78  O     c     6.785913    6.790535    2.260152    0.000000    0.183000
    79  Cl    c     9.032017    0.000217    0.029984    0.000000    1.485000
    80  Cl    c    -4.524229    0.000217    0.029984    0.000000    1.485000
    81  Na    c     8.997174    2.083289    2.563906    0.000000    1.000000
    82  Na    c    -4.489386    2.083289    2.563906    0.000000    1.000000
    83  Na    c     2.253894    6.490447   -4.476722    0.000000    1.000000
    84  Na    c    -2.183475   -2.230931    4.502075    0.000000    1.000000
    85  Na    c     6.691263   -2.230931    4.502075    0.000000    1.000000
    86  O     c     2.253894    2.250413   -6.803676    0.000000    0.183000
    87  O     c    -2.259099    6.775076   -2.259585    0.000000    0.183000
    88  O     c     6.766887    6.775076   -2.259585    0.000000    0.183000
    89  Cl    c     9.037181    4.547764    0.000039    0.000000    1.485000
    90  Cl    c    -4.529394    4.547764    0.000039    0.000000    1.485000
    91  Na    c     8.960428    2.209835   -2.593144    0.000000    1.000000
    92  Na    c    -4.452641    2.209835   -2.593144    0.000000    1.000000
    93  O     c     2.253894   -2.203306    6.689230    0.000000    0.183000
    94  Na    c     2.253894    9.004659    2.652398    0.000000    1.000000
    95  Na    c     2.253894    0.006054   -6.926524    0.000000    1.000000
    96  Cl    c     4.551174    9.083822   -0.016906    0.000000    1.485000
    97  Cl    c    -0.043387    9.083822   -0.016906    0.000000    1.485000
    98  Na    c     4.502044    2.231077   -6.947855    0.000000    1.000000
    99  Na    c     0.005743    2.231077   -6.947855    0.000000    1.000000
   100  O     c     6.768572    2.264595    6.755968    0.000000    0.183000
   101  O     c    -2.260784    2.264595    6.755968    0.000000    0.183000
   102  Cl    c     4.548057   -4.542376    4.512164    0.000000    1.485000
   103  Cl    c    -0.040269   -4.542376    4.512164    0.000000    1.485000
   104  Na    c     4.502738   -2.248956    6.701905    0.000000    1.000000
   105  Na    c     0.005049   -2.248956    6.701905    0.000000    1.000000
   106  Na    c     2.253894    4.494062   -6.794983    0.000000    1.000000
   107  Na    c     2.253894    9.009490   -2.618513    0.000000    1.000000
   108  Na    c    -2.168691    6.818475    4.508781    0.000000    1.000000
   109  Na    c     6.676478    6.818475    4.508781    0.000000    1.000000
   110  Na    c     6.630580   -2.339517   -4.504097    0.000000    1.000000
   111  Na    c    -2.122793   -2.339517   -4.504097    0.000000    1.000000
   112  Na    c    -2.209388    0.002588    6.738064    0.000000    1.000000
   113  Na    c     6.717175    0.002588    6.738064    0.000000    1.000000
   114  Na    c    -2.294233   -4.462061    2.205457    0.000000    1.000000
   115  Na    c     6.802021   -4.462061    2.205457    0.000000    1.000000
   116  O     c     2.253894    6.746408    6.727937    0.000000    0.183000
   117  Cl    c     9.066166   -0.023752    4.549125    0.000000    1.485000
   118  Cl    c    -4.558379   -0.023752    4.549125    0.000000    1.485000
   119  Na    c     9.008089   -2.072820    2.336053    0.000000    1.000000
   120  Na    c    -4.500302   -2.072820    2.336053    0.000000    1.000000
   121  Na    c    -2.312967    4.521431    6.687350    0.000000    1.000000
   122  Na    c     6.820754    4.521431    6.687350    0.000000    1.000000
   123  Na    c    -2.316072   -4.495366   -2.141229    0.000000    1.000000
   124  Na    c     6.823860   -4.495366   -2.141229    0.000000    1.000000
   125  O     c     2.253894   -2.243693   -6.752290    0.000000    0.183000
   126  Cl    c     4.526722   -4.543658   -4.515598    0.000000    1.485000
   127  Cl    c    -0.018935   -4.543658   -4.515598    0.000000    1.485000
   128  Cl    c     9.071214    4.526729    4.514805    0.000000    1.485000
   129  Cl    c    -4.563427    4.526729    4.514805    0.000000    1.485000
   130  Na    c     4.509319    6.712952    6.718866    0.000000    1.000000
   131  Na    c    -0.001531    6.712952    6.718866    0.000000    1.000000
   132  Na    c     9.009322   -2.165187   -2.388466    0.000000    1.000000
   133  Na    c    -4.501534   -2.165187   -2.388466    0.000000    1.000000
   134  Na    c     6.611476    6.821935   -4.507011    0.000000    1.000000
   135  Na    c    -2.103688    6.821935   -4.507011    0.000000    1.000000
   136  Na    c     2.253894    2.108312    9.065508    0.000000    1.000000
   137  Na    c     2.253894   -6.392714    0.001243    0.000000    1.000000
   138  O     c    -2.236413    2.254149   -6.716915    0.000000    0.183000
   139  O     c     6.744200    2.254149   -6.716915    0.000000    0.183000
   140  Cl    c     4.551285    9.076033    4.523367    0.000000    1.485000
   141  Cl    c    -0.043497    9.076033    4.523367    0.000000    1.485000
   142  Na    c     4.506392   -2.214278   -6.768079    0.000000    1.000000
   143  Na    c     0.001396   -2.214278   -6.768079    0.000000    1.000000
   144  Cl    c     9.075505   -0.028902   -4.528941    0.000000    1.485000
   145  Cl    c    -4.567718   -0.028902   -4.528941    0.000000    1.485000
   146  Na    c     9.024240    6.974914    2.350998    0.000000    1.000000
   147  Na    c    -4.516453    6.974914    2.350998    0.000000    1.000000
   148  O     c    -2.255895   -2.259093    6.763711    0.000000    0.183000
   149  O     c     6.763683   -2.259093    6.763711    0.000000    0.183000
   150  O     c     2.253894   -6.676817    2.251565    0.000000    0.183000
   151  Na    c     6.644686    9.028116    2.165413    0.000000    1.000000
   152  Na    c    -2.136898    9.028116    2.165413    0.000000    1.000000
   153  Na    c     6.781793   -0.005222   -6.629134    0.000000    1.000000
   154  Na    c    -2.274006   -0.005222   -6.629134    0.000000    1.000000
   155  Na    c     2.253894   -4.467307    6.453377    0.000000    1.000000
   156  O     c     2.253894    6.744394   -6.744269    0.000000    0.183000
   157  Cl    c     9.069774    4.537872   -4.509974    0.000000    1.485000
   158  Cl    c    -4.561987    4.537872   -4.509974    0.000000    1.485000
   159  Na    c     9.009724    6.778562   -2.398419    0.000000    1.000000
   160  Na    c    -4.501937    6.778562   -2.398419    0.000000    1.000000
   161  O     c     2.253894   -6.713246   -2.248198    0.000000    0.183000
   162  Cl    c     4.470802    0.032555    9.028850    0.000000    1.485000
   163  Cl    c     0.036985    0.032555    9.028850    0.000000    1.485000
   164  Na    c     4.504864   -6.631400    2.221101    0.000000    1.000000
   165  Na    c     0.002923   -6.631400    2.221101    0.000000    1.000000
   166  Na    c     6.778432    4.513317   -6.678322    0.000000    1.000000
   167  Na    c    -2.270645    4.513317   -6.678322    0.000000    1.000000
   168  Na    c     6.744696    9.020124   -2.166352    0.000000    1.000000
   169  Na    c    -2.236909    9.020124   -2.166352    0.000000    1.000000
   170  Na    c    10.946442    2.237637   -0.000653    0.000000    1.000000
   171  Na    c    -6.438655    2.237637   -0.000653    0.000000    1.000000
   172  Cl    c     4.516730    9.074994   -4.518395    0.000000    1.485000
   173  Cl    c    -0.008943    9.074994   -4.518395    0.000000    1.485000
   174  Na    c     4.503006    6.722958   -6.778230    0.000000    1.000000
   175  Na    c     0.004781    6.722958   -6.778230    0.000000    1.000000
   176  O     c    11.240551    2.263420    2.248644    0.000000    0.183000
   177  O     c    -6.732764    2.263420    2.248644    0.000000    0.183000
   178  O     c     6.771308    6.782091    6.764150    0.000000    0.183000
   179  O     c    -2.263521    6.782091    6.764150    0.000000    0.183000
   180  Cl    c     4.502801    4.519935    9.046225    0.000000    1.485000
   181  Cl    c     0.004986    4.519935    9.046225    0.000000    1.485000
   182  Cl    c     9.015432   -4.526884   -0.009454    0.000000    1.485000
   183  Cl    c    -4.507645   -4.526884   -0.009454    0.000000    1.485000
   184  Na    c     4.508332   -6.684005   -2.218014    0.000000    1.000000
   185  Na    c    -0.000545   -6.684005   -2.218014    0.000000    1.000000
   186  Na    c     9.018275    2.198508    6.586959    0.000000    1.000000
   187  Na    c    -4.510487    2.198508    6.586959    0.000000    1.000000
   188  Na    c    11.392192    0.015716    2.224968    0.000000    1.000000
   189  Na    c    -6.884405    0.015716    2.224968    0.000000    1.000000
   190  Na    c     2.253894   -2.324586    8.968392    0.000000    1.000000
   191  Na    c     2.253894   -6.957631    4.483295    0.000000    1.000000
   192  O     c     6.765933   -2.265856   -6.761184    0.000000    0.183000
   193  O     c    -2.258146   -2.265856   -6.761184    0.000000    0.183000
   194  O     c    11.226871    2.257385   -2.250199    0.000000    0.183000
   195  O     c    -6.719084    2.257385   -2.250199    0.000000    0.183000
   196  Na    c     2.253894    2.322187   -9.054040    0.000000    1.000000
   197  Na    c     2.253894   11.040341   -0.009585    0.000000    1.000000
   198  Na    c     2.253894    9.001361    6.485095    0.000000    1.000000
   199  Na    c     2.253894   -4.499190   -6.546364    0.000000    1.000000
   200  Na    c    11.109093    4.521377    2.186097    0.000000    1.000000
   201  Na    c    -6.601306    4.521377    2.186097    0.000000    1.000000
   202  Na    c    11.289576    0.010590   -2.212240    0.000000    1.000000
   203  Na    c    -6.781789    0.010590   -2.212240    0.000000    1.000000
   204  Na    c     6.881051    2.270903    9.004189    0.000000    1.000000
   205  Na    c    -2.373264    2.270903    9.004189    0.000000    1.000000
   206  Na    c     6.821440   -6.808288    0.006795    0.000000    1.000000
   207  Na    c    -2.313653   -6.808288    0.006795    0.000000    1.000000
   208  O     c     2.253894   11.255997    2.260267    0.000000    0.183000
   209  O     c    -2.250915   -6.741176    2.251363    0.000000    0.183000
   210  O     c     6.758702   -6.741176    2.251363    0.000000    0.183000
   211  Na    c    11.192272    4.507864   -2.195228    0.000000    1.000000
   212  Na    c    -6.684484    4.507864   -2.195228    0.000000    1.000000
   213  Na    c    11.451818    2.325018    4.493998    0.000000    1.000000
   214  Na    c    -6.944031    2.325018    4.493998    0.000000    1.000000
   215  Na    c    11.181287   -2.299958   -0.000906    0.000000    1.000000
   216  Na    c    -6.673500   -2.299958   -0.000906    0.000000    1.000000
   217  Na    c     2.253894    6.995430    8.991076    0.000000    1.000000
   218  Na    c     2.253894   -6.960783   -4.487544    0.000000    1.000000
   219  Na    c    -2.277971   -4.505193    6.761811    0.000000    1.000000
   220  Na    c     6.785759   -4.505193    6.761811    0.000000    1.000000
   221  O     c     2.253894   11.254443   -2.274861    0.000000    0.183000
   222  O     c    -2.254800    6.775990   -6.761384    0.000000    0.183000
   223  O     c     6.762587    6.775990   -6.761384    0.000000    0.183000
   224  Cl    c     4.485445    0.018525   -9.029585    0.000000    1.485000
   225  Cl    c     0.022342    0.018525   -9.029585    0.000000    1.485000
   226  Na    c     4.500289   11.273060    2.214848    0.000000    1.000000
   227  Na    c     0.007498   11.273060    2.214848    0.000000    1.000000
   228  Cl    c     9.026489    9.042917    0.019607    0.000000    1.485000
   229  Cl    c    -4.518702    9.042917    0.019607    0.000000    1.485000
   230  Na    c     9.000361    2.262292   -6.531855    0.000000    1.000000
   231  Na    c    -4.492574    2.262292   -6.531855    0.000000    1.000000
   232  O     c    11.267745   -2.236103    2.254972    0.000000    0.183000
   233  O     c    -6.759958   -2.236103    2.254972    0.000000    0.183000
   234  O     c    -2.256288   -6.754724   -2.242321    0.000000    0.183000
   235  O     c     6.764075   -6.754724   -2.242321    0.000000    0.183000
   236  Cl    c     9.044631   -4.519138    4.519332    0.000000    1.485000
   237  Cl    c    -4.536844   -4.519138    4.519332    0.000000    1.485000
   238  Na    c     9.015628   -2.241281    6.733161    0.000000    1.000000
   239  Na    c    -4.507841   -2.241281    6.733161    0.000000    1.000000
   240  Cl    c     4.473639    4.496464   -9.038508    0.000000    1.485000
   241  Cl    c     0.034149    4.496464   -9.038508    0.000000    1.485000
   242  Na    c     4.508124   11.253784   -2.210541    0.000000    1.000000
   243  Na    c    -0.000337   11.253784   -2.210541    0.000000    1.000000
   244  O     c    11.266392   -2.242722   -2.256959    0.000000    0.183000
   245  O     c    -6.758605   -2.242722   -2.256959    0.000000    0.183000
   246  Na    c     2.253894    8.999797   -6.658900    0.000000    1.000000
   247  Na    c     2.253894   11.501310    4.496149    0.000000    1.000000
   248  Na    c     2.253894   -2.383970   -9.006354    0.000000    1.000000
   249  Na    c    11.460575    2.274595   -4.492887    0.000000    1.000000
   250  Na    c    -6.952788    2.274595   -4.492887    0.000000    1.000000
   251  Na    c    11.189759    6.826622   -0.005060    0.000000    1.000000
   252  Na    c    -6.681972    6.826622   -0.005060    0.000000    1.000000
   253  Na    c    -2.270282   -2.265973    9.010432    0.000000    1.000000
   254  Na    c     6.778069   -2.265973    9.010432    0.000000    1.000000
   255  Na    c    -2.212804   -6.715559    4.507288    0.000000    1.000000
   256  Na    c     6.720591   -6.715559    4.507288    0.000000    1.000000
   257  O     c    11.268552    6.779636    2.253191    0.000000    0.183000
   258  O     c    -6.760764    6.779636    2.253191    0.000000    0.183000
   259  Cl    c     9.042238   -4.517352   -4.516669    0.000000    1.485000
   260  Cl    c    -4.534451   -4.517352   -4.516669    0.000000    1.485000
   261  Na    c     9.017273    6.824223    6.718839    0.000000    1.000000
   262  Na    c    -4.509486    6.824223    6.718839    0.000000    1.000000
   263  O     c     2.253894   -6.743682    6.727216    0.000000    0.183000
   264  Na    c     6.884282    2.233636   -8.987264    0.000000    1.000000
   265  Na    c    -2.376495    2.233636   -8.987264    0.000000    1.000000
   266  Na    c     6.799431   11.315199    0.002077    0.000000    1.000000
   267  Na    c    -2.291644   11.315199    0.002077    0.000000    1.000000
   268  Na    c     6.743912    9.021886    6.798487    0.000000    1.000000
   269  Na    c    -2.236124    9.021886    6.798487    0.000000    1.000000
   270  Na    c     6.755349   -4.508920   -6.827383    0.000000    1.000000
   271  Na    c    -2.247562   -4.508920   -6.827383    0.000000    1.000000
   272  Na    c    11.277260   -2.253411    4.508355    0.000000    1.000000
   273  Na    c    -6.769473   -2.253411    4.508355    0.000000    1.000000
   274  O     c    -2.246876   11.276199    2.246044    0.000000    0.183000
   275  O     c     6.754663   11.276199    2.246044    0.000000    0.183000
   276  O     c    11.266789    6.763878   -2.259487    0.000000    0.183000
[...]
    239 y          0.000000     -0.028041    -0.028041    Cartesian    0.00
    239 z          4.507787      4.635441     0.127654    Cartesian    2.83
    240 x         -2.253894     -2.195451     0.058442    Cartesian   -2.59
    240 y          2.253894      2.264673     0.010779    Cartesian    0.48
    240 z         -2.253894     -2.240149     0.013744    Cartesian   -0.61
    241 x          2.253894      2.253894     0.000000    Cartesian    0.00
    241 y          6.761681      6.788022     0.026341    Cartesian    0.39
    241 z          2.253894      2.212427    -0.041467    Cartesian   -1.84
    242 x          4.507787      4.675584     0.167797    Cartesian    3.72
    242 y          4.507787      4.609989     0.102202    Cartesian    2.27
    242 z          4.507787      4.614367     0.106580    Cartesian    2.36
    243 x          2.253894      2.253894     0.000000    Cartesian    0.00
    243 y          6.761681      6.778169     0.016488    Cartesian    0.24
    243 z         -2.253894     -2.217167     0.036727    Cartesian   -1.63
    244 x          4.507787      4.601343     0.093555    Cartesian    2.08
    244 y          0.000000     -0.101912    -0.101912    Cartesian    0.00
    244 z         -4.507787     -4.624693    -0.116906    Cartesian    2.59
    245 x          4.507787      4.590673     0.082886    Cartesian    1.84
    245 y          4.507787      4.645413     0.137626    Cartesian    3.05
    245 z         -4.507787     -4.616240    -0.108453    Cartesian    2.41
    246 x          2.253894      2.253894     0.000000    Cartesian    0.00
    246 y          2.253894      2.305930     0.052036    Cartesian    2.31
    246 z          6.761681      6.832179     0.070498    Cartesian    1.04
    247 x         -2.253894     -2.247375     0.006519    Cartesian   -0.29
    247 y         -2.253894     -2.199399     0.054494    Cartesian   -2.42
    247 z          2.253894      2.251312    -0.002582    Cartesian   -0.11
    248 x         -2.253894     -2.256045    -0.002152    Cartesian    0.10
    248 y         -2.253894     -2.243540     0.010353    Cartesian   -0.46
    248 z         -2.253894     -2.256291    -0.002397    Cartesian    0.11
    249 x          4.507787      4.522560     0.014772    Cartesian    0.33
    249 y         -4.507787     -4.489966     0.017822    Cartesian   -0.40
    249 z          0.000000     -0.016355    -0.016355    Cartesian    0.00
    250 x         -2.253894     -2.278160    -0.024266    Cartesian    1.08
    250 y          6.761681      6.790553     0.028872    Cartesian    0.43
    250 z          2.253894      2.260170     0.006276    Cartesian    0.28
    251 x          9.015574      9.035030     0.019456    Cartesian    0.22
    251 y          0.000000      0.003676     0.003676    Cartesian    0.00
    251 z          0.000000      0.033345     0.033345    Cartesian    0.00
    252 x          2.253894      2.253894     0.000000    Cartesian    0.00
    252 y          2.253894      2.250422    -0.003472    Cartesian   -0.15
    252 z         -6.761681     -6.803798    -0.042117    Cartesian    0.62
    253 x         -2.253894     -2.259101    -0.005208    Cartesian    0.23
    253 y          6.761681      6.775079     0.013398    Cartesian    0.20
    253 z         -2.253894     -2.259594    -0.005700    Cartesian    0.25
    254 x          9.015574      9.039865     0.024291    Cartesian    0.27
    254 y          4.507787      4.544947     0.037160    Cartesian    0.82
    254 z          0.000000      0.004056     0.004056    Cartesian    0.00
    255 x          2.253894      2.253894     0.000000    Cartesian    0.00
    255 y         -2.253894     -2.203250     0.050644    Cartesian   -2.25
    255 z          6.761681      6.689264    -0.072417    Cartesian   -1.07
    256 x          4.507787      4.547489     0.039702    Cartesian    0.88
    256 y          9.015574      9.086791     0.071216    Cartesian    0.79
    256 z          0.000000     -0.018042    -0.018042    Cartesian    0.00
    257 x          6.761681      6.768545     0.006864    Cartesian    0.10
    257 y          2.253894      2.264595     0.010702    Cartesian    0.47
    257 z          6.761681      6.755968    -0.005712    Cartesian   -0.08
    258 x          4.507787      4.545303     0.037516    Cartesian    0.83
    258 y         -4.507787     -4.549092    -0.041305    Cartesian    0.92
    258 z          4.507787      4.514113     0.006325    Cartesian    0.14
    259 x          2.253894      2.253894     0.000000    Cartesian    0.00
    259 y          6.761681      6.746355    -0.015326    Cartesian   -0.23
    259 z          6.761681      6.728017    -0.033664    Cartesian   -0.50
    260 x          9.015574      9.071023     0.055449    Cartesian    0.62
    260 y          0.000000     -0.020211    -0.020211    Cartesian    0.00
    260 z          4.507787      4.546778     0.038991    Cartesian    0.86
    261 x          2.253894      2.253894     0.000000    Cartesian    0.00
    261 y         -2.253894     -2.243641     0.010252    Cartesian   -0.45
    261 z         -6.761681     -6.752328     0.009352    Cartesian   -0.14
    262 x          4.507787      4.525463     0.017676    Cartesian    0.39
    262 y         -4.507787     -4.547099    -0.039312    Cartesian    0.87
    262 z         -4.507787     -4.515524    -0.007737    Cartesian    0.17
    263 x          9.015574      9.073992     0.058417    Cartesian    0.65
    263 y          4.507787      4.526358     0.018571    Cartesian    0.41
    263 z          4.507787      4.512559     0.004771    Cartesian    0.11
    264 x         -2.253894     -2.236367     0.017526    Cartesian   -0.78
    264 y          2.253894      2.254149     0.000255    Cartesian    0.01
    264 z         -6.761681     -6.716927     0.044754    Cartesian   -0.66
    265 x          4.507787      4.550286     0.042499    Cartesian    0.94
    265 y          9.015574      9.081605     0.066031    Cartesian    0.73
    265 z          4.507787      4.524433     0.016646    Cartesian    0.37
    266 x          9.015574      9.081216     0.065642    Cartesian    0.73
    266 y          0.000000     -0.027587    -0.027587    Cartesian    0.00
    266 z         -4.507787     -4.529102    -0.021315    Cartesian    0.47
    267 x         -2.253894     -2.255894    -0.002000    Cartesian    0.09
    267 y         -2.253894     -2.259106    -0.005212    Cartesian    0.23
    267 z          6.761681      6.763712     0.002031    Cartesian    0.03
    268 x          2.253894      2.253894     0.000000    Cartesian    0.00
    268 y         -6.761681     -6.676823     0.084858    Cartesian   -1.25
    268 z          2.253894      2.251603    -0.002290    Cartesian   -0.10
    269 x          2.253894      2.253894     0.000000    Cartesian    0.00
    269 y          6.761681      6.744346    -0.017335    Cartesian   -0.26
    269 z         -6.761681     -6.744303     0.017378    Cartesian   -0.26
    270 x          9.015574      9.076194     0.060620    Cartesian    0.67
    270 y          4.507787      4.536973     0.029186    Cartesian    0.65
    270 z         -4.507787     -4.509844    -0.002057    Cartesian    0.05
    271 x          2.253894      2.253894     0.000000    Cartesian    0.00
    271 y         -6.761681     -6.713232     0.048449    Cartesian   -0.72
    271 z         -2.253894     -2.248240     0.005654    Cartesian   -0.25
    272 x          4.507787      4.464148    -0.043639    Cartesian   -0.97
    272 y          0.000000      0.038992     0.038992    Cartesian    0.00
    272 z          9.015574      9.028855     0.013280    Cartesian    0.15
    273 x          4.507787      4.514794     0.007007    Cartesian    0.16
    273 y          9.015574      9.079874     0.064300    Cartesian    0.71
    273 z         -4.507787     -4.516491    -0.008704    Cartesian    0.19
    274 x         11.269468     11.240549    -0.028919    Cartesian   -0.26
    274 y          2.253894      2.263398     0.009504    Cartesian    0.42
    274 z          2.253894      2.248672    -0.005221    Cartesian   -0.23
    275 x          6.761681      6.771316     0.009635    Cartesian    0.14
    275 y          6.761681      6.782114     0.020433    Cartesian    0.30
    275 z          6.761681      6.764139     0.002459    Cartesian    0.04
    276 x          4.507787      4.495805    -0.011982    Cartesian   -0.27
    276 y          4.507787      4.518586     0.010799    Cartesian    0.24
    276 z          9.015574      9.043516     0.027941    Cartesian    0.31
    277 x          9.015574      9.014305    -0.001270    Cartesian   -0.01
    277 y         -4.507787     -4.529514    -0.021726    Cartesian    0.48
    277 z          0.000000     -0.011671    -0.011671    Cartesian    0.00
    278 x          6.761681      6.765931     0.004250    Cartesian    0.06
    278 y         -2.253894     -2.265880    -0.011986    Cartesian    0.53
    278 z         -6.761681     -6.761178     0.000503    Cartesian   -0.01
    279 x         11.269468     11.226889    -0.042579    Cartesian   -0.38
    279 y          2.253894      2.257379     0.003485    Cartesian    0.15
    279 z         -2.253894     -2.250225     0.003668    Cartesian   -0.16
    280 x          2.253894      2.253894     0.000000    Cartesian    0.00
    280 y         11.269468     11.256047    -0.013421    Cartesian   -0.12
    280 z          2.253894      2.260322     0.006429    Cartesian    0.29
    281 x         -2.253894     -2.250924     0.002970    Cartesian   -0.13
    281 y         -6.761681     -6.741190     0.020491    Cartesian   -0.30
    281 z          2.253894      2.251349    -0.002545    Cartesian   -0.11
    282 x          2.253894      2.253894     0.000000    Cartesian    0.00
    282 y         11.269468     11.254436    -0.015032    Cartesian   -0.13
    282 z         -2.253894     -2.274930    -0.021036    Cartesian    0.93
    283 x         -2.253894     -2.254790    -0.000897    Cartesian    0.04
    283 y          6.761681      6.776013     0.014332    Cartesian    0.21
    283 z         -6.761681     -6.761383     0.000298    Cartesian   -0.00
    284 x          4.507787      4.480077    -0.027710    Cartesian   -0.61
    284 y          0.000000      0.022381     0.022381    Cartesian    0.00
    284 z         -9.015574     -9.026839    -0.011264    Cartesian    0.12
    285 x          9.015574      9.027458     0.011883    Cartesian    0.13
    285 y          9.015574      9.043388     0.027814    Cartesian    0.31
    285 z          0.000000      0.022608     0.022608    Cartesian    0.00
    286 x         11.269468     11.267759    -0.001709    Cartesian   -0.02
    286 y         -2.253894     -2.236086     0.017807    Cartesian   -0.79
    286 z          2.253894      2.254988     0.001094    Cartesian    0.05
    287 x         -2.253894     -2.256302    -0.002409    Cartesian    0.11
    287 y         -6.761681     -6.754726     0.006955    Cartesian   -0.10
    287 z         -2.253894     -2.242300     0.011594    Cartesian   -0.51
    288 x          9.015574      9.048487     0.032912    Cartesian    0.37
    288 y         -4.507787     -4.522112    -0.014325    Cartesian    0.32
    288 z          4.507787      4.520828     0.013040    Cartesian    0.29
    289 x          4.507787      4.467296    -0.040491    Cartesian   -0.90
    289 y          4.507787      4.493590    -0.014197    Cartesian   -0.31
    289 z         -9.015574     -9.038182    -0.022607    Cartesian    0.25
    290 x         11.269468     11.266390    -0.003078    Cartesian   -0.03
    290 y         -2.253894     -2.242710     0.011184    Cartesian   -0.50
    290 z         -2.253894     -2.256981    -0.003088    Cartesian    0.14
    291 x         11.269468     11.268530    -0.000938    Cartesian   -0.01
    291 y          6.761681      6.779682     0.018001    Cartesian    0.27
    291 z          2.253894      2.253205    -0.000689    Cartesian   -0.03
    292 x          9.015574      9.045594     0.030019    Cartesian    0.33
    292 y         -4.507787     -4.517763    -0.009976    Cartesian    0.22
    292 z         -4.507787     -4.517659    -0.009872    Cartesian    0.22
    293 x          2.253894      2.253894     0.000000    Cartesian    0.00
    293 y         -6.761681     -6.743726     0.017955    Cartesian   -0.27
    293 z          6.761681      6.727181    -0.034500    Cartesian   -0.51
    294 x         -2.253894     -2.246859     0.007035    Cartesian   -0.31
    294 y         11.269468     11.276195     0.006727    Cartesian    0.06
    294 z          2.253894      2.246015    -0.007878    Cartesian   -0.35
    295 x         11.269468     11.266778    -0.002690    Cartesian   -0.02
    295 y          6.761681      6.763888     0.002207    Cartesian    0.03
    295 z         -2.253894     -2.259509    -0.005615    Cartesian    0.25
    296 x          9.015574      9.063301     0.047726    Cartesian    0.53
    296 y          9.015574      9.034422     0.018847    Cartesian    0.21
    296 z          4.507787      4.514391     0.006604    Cartesian    0.15
    297 x          2.253894      2.253894     0.000000    Cartesian    0.00
    297 y          2.253894      2.249356    -0.004537    Cartesian   -0.20
    297 z         11.269468     11.283714     0.014246    Cartesian    0.13
    298 x          4.507787      4.523889     0.016102    Cartesian    0.36
    298 y         -4.507787     -4.505249     0.002538    Cartesian   -0.06
    298 z          9.015574      9.058103     0.042528    Cartesian    0.47
    299 x         -2.253894     -2.260124    -0.006230    Cartesian    0.28
    299 y         11.269468     11.276516     0.007048    Cartesian    0.06
    299 z         -2.253894     -2.243041     0.010853    Cartesian   -0.48
    300 x         11.269468     11.277853     0.008385    Cartesian    0.07
    300 y          2.253894      2.257389     0.003495    Cartesian    0.16
    300 z          6.761681      6.749564    -0.012117    Cartesian   -0.18
    301 x          4.507787      4.500251    -0.007536    Cartesian   -0.17
    301 y         -9.015574     -9.079443    -0.063868    Cartesian    0.71
    301 z          0.000000      0.002776     0.002776    Cartesian    0.00
    302 x          9.015574      9.019441     0.003867    Cartesian    0.04
    302 y          0.000000     -0.004656    -0.004656    Cartesian    0.00
    302 z          9.015574      9.052442     0.036867    Cartesian    0.41
    303 x          9.015574      9.053989     0.038415    Cartesian    0.43
    303 y          9.015574      9.035468     0.019894    Cartesian    0.22
    303 z         -4.507787     -4.508840    -0.001053    Cartesian    0.02
    304 x          2.253894      2.253894     0.000000    Cartesian    0.00
    304 y         -6.761681     -6.768726    -0.007046    Cartesian    0.10
    304 z         -6.761681     -6.741272     0.020409    Cartesian   -0.30
    305 x          9.015574      9.041058     0.025484    Cartesian    0.28
    305 y          4.507787      4.524939     0.017151    Cartesian    0.38
    305 z          9.015574      9.056054     0.040479    Cartesian    0.45
    306 x          2.253894      2.253894     0.000000    Cartesian    0.00
    306 y         11.269468     11.273856     0.004388    Cartesian    0.04
    306 z          6.761681      6.738318    -0.023363    Cartesian   -0.35
    307 x         13.523362     13.572519     0.049157    Cartesian    0.36
    307 y          0.000000      0.025285     0.025285    Cartesian    0.00
    307 z          0.000000      0.004827     0.004827    Cartesian    0.00
    308 x          4.507787      4.516460     0.008672    Cartesian    0.19
    308 y          9.015574      9.039851     0.024276    Cartesian    0.27
    308 z          9.015574      9.055298     0.039724    Cartesian    0.44
    309 x          2.253894      2.253894     0.000000    Cartesian    0.00
    309 y         -2.253894     -2.263252    -0.009359    Cartesian    0.42
    309 z         11.269468     11.255258    -0.014210    Cartesian   -0.13
    310 x          6.761681      6.763696     0.002015    Cartesian    0.03
    310 y         -6.761681     -6.760355     0.001326    Cartesian   -0.02
    310 z          6.761681      6.767042     0.005361    Cartesian    0.08
    311 x         11.269468     11.269339    -0.000129    Cartesian   -0.00
    311 y          2.253894      2.256020     0.002127    Cartesian    0.09
    311 z         -6.761681     -6.746920     0.014761    Cartesian   -0.22
    312 x          4.507787      4.522001     0.014214    Cartesian    0.32
    312 y         -4.507787     -4.527694    -0.019906    Cartesian    0.44
    312 z         -9.015574     -9.054662    -0.039087    Cartesian    0.43
    313 x         13.523362     13.619365     0.096003    Cartesian    0.71
    313 y          4.507787      4.481324    -0.026463    Cartesian   -0.59
    313 z          0.000000     -0.011408    -0.011408    Cartesian    0.00
    314 x         11.269468     11.276477     0.007009    Cartesian    0.06
    314 y         -2.253894     -2.255167    -0.001273    Cartesian    0.06
    314 z          6.761681      6.764514     0.002833    Cartesian    0.04
    315 x          6.761681      6.769710     0.008029    Cartesian    0.12
    315 y          2.253894      2.258478     0.004584    Cartesian    0.20
    315 z         11.269468     11.266422    -0.003046    Cartesian   -0.03
    316 x          4.507787      4.503537    -0.004250    Cartesian   -0.09
    316 y         -9.015574     -9.033035    -0.017460    Cartesian    0.19
    316 z          4.507787      4.522464     0.014677    Cartesian    0.33
    317 x          2.253894      2.253894     0.000000    Cartesian    0.00
    317 y          2.253894      2.258507     0.004613    Cartesian    0.20
    317 z        -11.269468    -11.285257    -0.015789    Cartesian    0.14
    318 x          9.015574      9.015488    -0.000087    Cartesian   -0.00
    318 y          0.000000     -0.005075    -0.005075    Cartesian    0.00
    318 z         -9.015574     -9.082125    -0.066551    Cartesian    0.74
    319 x          2.253894      2.253894     0.000000    Cartesian    0.00
    319 y          6.761681      6.782316     0.020635    Cartesian    0.31
    319 z         11.269468     11.255807    -0.013661    Cartesian   -0.12
--------------------------------------------------------------------------------


  Time to end of optimisation  =       55.3809 seconds


  Peak dynamic memory used =      93.08 MB 


  Timing analysis for GULP :

--------------------------------------------------------------------------------
  Task / Subroutine                                          Time (Seconds)
--------------------------------------------------------------------------------
  Calculation of reciprocal space energy and derivatives          0.0004
  Calculation of reciprocal space energy using symmetry           0.0005
  Calculation of real space energy and derivatives                0.0020
  Calculation of real space energy using symmetry                 0.0051
  Calculation for region 1 energy and derivatives (2-b)          29.2980
  Calculation for region 2a energy                               23.9401
  Calculation for region 2b energy                                0.0086
  Calculation and manipulation of Hessian matrix                  0.1082
  Calculation of matrix inversion                                 1.8233
  Symmetry generation of equivalent positions                     0.0026
--------------------------------------------------------------------------------
  Total CPU time                                                 55.3810
--------------------------------------------------------------------------------


  Dump file written as Na3OCl.grs


  Job Finished at 10:43.43  4th December   2020                               

