********************************************************************************
*                       GENERAL UTILITY LATTICE PROGRAM                        *
*                                 Julian Gale                                  *
*                       Curtin Institute for Computation                       *
*                    School of Molecular and Life Sciences                     *
*                    Curtin University, Western Australia                      *
********************************************************************************
* Version = 5.2.0 * Last modified =  10th September 2020                       *
********************************************************************************
*  optimise     - perform optimisation run                                     *
*  conp         - constant pressure calculation                                *
*  property     - calculate properties for final geometry                      *
*  defect       - perform defect calculation after bulk run                    *
*  compare      - compare initial and final structures                         *
********************************************************************************

  Job Started  at 10:43.46  4th December   2020                               

  Number of CPUs =     1


  Total number of configurations input =      1

********************************************************************************
*  Input for Configuration =   1                                               *
********************************************************************************

  Formula = ClONa3                                                      

  Number of irreducible atoms/shells =       5


  Total number atoms/shells =       7

  Dimensionality = 3               :  Bulk   


  Symmetry :

  Crystal family                   :  Cubic       
  Crystal class  (Groth - 1921)    :  Cubic Hexakisoctahedral              

  Space group (centrosymmetric)    :  P M 3 M         

  Patterson group                  :  P m -3 m 

  Cartesian lattice vectors (Angstroms) :

        4.504000    0.000000    0.000000
        0.000000    4.504000    0.000000
        0.000000    0.000000    4.504000

  Cell parameters (Angstroms/Degrees):

  a =       4.5040    alpha =  90.0000
  b =       4.5040    beta  =  90.0000
  c =       4.5040    gamma =  90.0000

  Initial cell volume =          91.368216 Angs**3

  Temperature of configuration =   0.00     K 

  Pressure of configuration =         0.000 GPa 

  Fractional coordinates of asymmetric unit :

--------------------------------------------------------------------------------
   No.  Atomic       x           y          z         Charge      Occupancy
        Label      (Frac)      (Frac)     (Frac)        (e)         (Frac)  
--------------------------------------------------------------------------------
      1 Cl    c    0.000000    0.000000    0.000000     1.48500    1.000000    
      2 O     c    0.500000    0.500000    0.500000     0.18300    1.000000    
      3 Na    c    0.500000    0.500000    0.000000     1.00000    1.000000    
      4 Cl    s    0.000000    0.000000    0.000000    -2.48500    1.000000    
      5 O     s    0.500000    0.500000    0.500000    -2.18300    1.000000    
--------------------------------------------------------------------------------


  Constraints : 

--------------------------------------------------------------------------------
  Constraint no.      Unconstrained     Constrained    Coefficient    Offset
                         Variable         Variable
--------------------------------------------------------------------------------
           1              Strain 1        Strain 2       1.00000      0.0000
           2              Strain 1        Strain 3       1.00000      0.0000
--------------------------------------------------------------------------------


********************************************************************************
*  General input information                                                   *
********************************************************************************

  Species output for all configurations : 

--------------------------------------------------------------------------------
  Species    Type    Atomic    Atomic    Charge       Radii (Angs)     Library
                     Number     Mass       (e)     Cova   Ionic  VDW   Symbol
--------------------------------------------------------------------------------
    Na       Core       11      22.99   1.000000   0.970  0.000  2.300          
    O        Core        8      16.00   0.183000   0.730  0.000  1.360          
    O        Shell       8       0.00  -2.183000   0.730  0.000  1.360          
    Cl       Core       17      35.45   1.485000   0.990  0.000  1.650          
    Cl       Shell      17       0.00  -2.485000   0.990  0.000  1.650          
    Mg       Core       12      24.31   0.415000   1.100  0.000  0.000          
    Mg       Shell      12       0.00   1.585000   1.100  0.000  0.000          
    Ca       Core       20      40.08  -1.135000   0.990  0.000  0.000          
    Ca       Shell      20       0.00   3.135000   0.990  0.000  0.000          
    Sr       Core       38      87.62  -1.251000   1.120  0.000  0.000          
    Sr       Shell      38       0.00   3.251000   1.120  0.000  0.000          
    Ba       Core       56     137.33  -7.203000   1.340  0.000  0.000          
    Ba       Shell      56       0.00   9.203000   1.340  0.000  0.000          
--------------------------------------------------------------------------------


  Lattice summation method               =    Ewald          (3-D)
                                         =    Parry          (2-D)
                                         =    Saunders et al (1-D)
  Accuracy factor for lattice sums       =   12.000


  Analytic derivatives to be used

  Time limit = Infinity

  Maximum range for interatomic potentials =    100000.000000 Angstroms

  General interatomic potentials :

--------------------------------------------------------------------------------
Atom  Types   Potential      Parameter       Value         Units   Cutoffs(Ang)
  1     2                                                            Min /  Max 
--------------------------------------------------------------------------------
O    c O    s Spring (c-s)  Spring k 2       593.71600    eV*Ang^-2 0.000  0.800
                            Spring k 4       0.0000000    eV*Ang^-4 
--------------------------------------------------------------------------------
Cl   c Cl   s Spring (c-s)  Spring k 2       29.380000    eV*Ang^-2 0.000  0.800
                            Spring k 4       0.0000000    eV*Ang^-4 
--------------------------------------------------------------------------------
Mg   c Mg   s Spring (c-s)  Spring k 2       361.60000    eV*Ang^-2 0.000  0.800
                            Spring k 4       0.0000000    eV*Ang^-4 
--------------------------------------------------------------------------------
Ca   c Ca   s Spring (c-s)  Spring k 2       110.20000    eV*Ang^-2 0.000  0.800
                            Spring k 4       0.0000000    eV*Ang^-4 
--------------------------------------------------------------------------------
Sr   c Sr   s Spring (c-s)  Spring k 2       71.700000    eV*Ang^-2 0.000  0.800
                            Spring k 4       0.0000000    eV*Ang^-4 
--------------------------------------------------------------------------------
Ba   c Ba   s Spring (c-s)  Spring k 2       495.20000    eV*Ang^-2 0.000  0.800
                            Spring k 4       0.0000000    eV*Ang^-4 
--------------------------------------------------------------------------------
Na   c Na   c Buckingham    Buckingham A     1788.1900    eV        0.000 12.000
                            Buckingham rho  0.15900000    Ang       
                            Buckingham C     0.0000000    eV*Ang^6  
--------------------------------------------------------------------------------
Na   c O    s Buckingham    Buckingham A     1226.8400    eV        0.000 12.000
                            Buckingham rho  0.30700000    Ang       
                            Buckingham C     0.0000000    eV*Ang^6  
--------------------------------------------------------------------------------
Na   c Cl   s Buckingham    Buckingham A     2314.7000    eV        0.000 12.000
                            Buckingham rho  0.29000000    Ang       
                            Buckingham C     0.0000000    eV*Ang^6  
--------------------------------------------------------------------------------
O    s O    s Buckingham    Buckingham A     22764.300    eV        0.000 12.000
                            Buckingham rho  0.14900000    Ang       
                            Buckingham C     13.190000    eV*Ang^6  
--------------------------------------------------------------------------------
O    s Cl   s Buckingham    Buckingham A     8286.9100    eV        0.000 12.000
                            Buckingham rho  0.25900000    Ang       
                            Buckingham C     62.200000    eV*Ang^6  
--------------------------------------------------------------------------------
Cl   s Cl   s Buckingham    Buckingham A     1227.2000    eV        0.000 12.000
                            Buckingham rho  0.32100000    Ang       
                            Buckingham C     14.530000    eV*Ang^6  
--------------------------------------------------------------------------------
O    s Mg   s Buckingham    Buckingham A     1428.5000    eV        0.000 12.000
                            Buckingham rho  0.29450000    Ang       
                            Buckingham C     0.0000000    eV*Ang^6  
--------------------------------------------------------------------------------
Mg   s Cl   s Buckingham    Buckingham A     4914.5400    eV        0.000 12.000
                            Buckingham rho  0.25700000    Ang       
                            Buckingham C     0.0000000    eV*Ang^6  
--------------------------------------------------------------------------------
O    s Ca   s Buckingham    Buckingham A     1090.4000    eV        0.000 12.000
                            Buckingham rho  0.34370000    Ang       
                            Buckingham C     0.0000000    eV*Ang^6  
--------------------------------------------------------------------------------
Cl   s Ca   s Buckingham    Buckingham A     2302.0000    eV        0.000 12.000
                            Buckingham rho  0.34020000    Ang       
                            Buckingham C     0.0000000    eV*Ang^6  
--------------------------------------------------------------------------------
O    s Sr   s Buckingham    Buckingham A     959.10000    eV        0.000 12.000
                            Buckingham rho  0.37210000    Ang       
                            Buckingham C     0.0000000    eV*Ang^6  
--------------------------------------------------------------------------------
Cl   s Sr   s Buckingham    Buckingham A     2191.0900    eV        0.000 12.000
                            Buckingham rho  0.34570000    Ang       
                            Buckingham C     0.0000000    eV*Ang^6  
--------------------------------------------------------------------------------
O    s Ba   s Buckingham    Buckingham A     905.70000    eV        0.000 12.000
                            Buckingham rho  0.39760000    Ang       
                            Buckingham C     0.0000000    eV*Ang^6  
--------------------------------------------------------------------------------
Cl   s Ba   s Buckingham    Buckingham A     2704.5500    eV        0.000 12.000
                            Buckingham rho  0.35280000    Ang       
                            Buckingham C     0.0000000    eV*Ang^6  
--------------------------------------------------------------------------------

********************************************************************************
*  Output for configuration   1                                                *
********************************************************************************


  Components of energy : 

--------------------------------------------------------------------------------
  Interatomic potentials     =           5.13022605 eV    
  Monopole - monopole (real) =         -10.03624526 eV    
  Monopole - monopole (recip)=         -29.53581274 eV    
  Monopole - monopole (total)=         -39.57205800 eV    
--------------------------------------------------------------------------------
  Total lattice energy       =         -34.44183194 eV    
--------------------------------------------------------------------------------
  Total lattice energy       =           -3323.1103 kJ/(mole unit cells)
--------------------------------------------------------------------------------


  Number of variables =        1

  Maximum number of calculations  =          1000
  Maximum Hessian update interval =            10
  Maximum step size               =   1.000000000
  Maximum parameter tolerance     =   0.000010000
  Maximum function  tolerance     =   0.000010000
  Maximum gradient  tolerance     =   0.001000000
  Maximum gradient  component     =   0.010000000

  Symmetry constrained optimisation

  Symmetry used for second derivatives

  Cell parameters to be optimised using strains

  Newton-Raphson optimiser to be used

  BFGS hessian update to be used

  Lower half triangular hessian to be used

  Start of bulk optimisation :

  Cycle:      0 Energy:       -34.441832  Gnorm:      0.196570  CPU:    0.016
  ** Hessian calculated **
  Cycle:      1 Energy:       -34.441914  Gnorm:      0.000103  CPU:    0.020


  **** Optimisation achieved ****


  Final energy =     -34.44191447 eV
  Final Gnorm  =       0.00000000

  Components of energy : 

--------------------------------------------------------------------------------
  Interatomic potentials     =           5.09689708 eV    
  Monopole - monopole (real) =         -10.02781331 eV    
  Monopole - monopole (recip)=         -29.51099824 eV    
  Monopole - monopole (total)=         -39.53881155 eV    
--------------------------------------------------------------------------------
  Total lattice energy       =         -34.44191447 eV    
--------------------------------------------------------------------------------
  Total lattice energy       =           -3323.1183 kJ/(mole unit cells)
--------------------------------------------------------------------------------

  Final asymmetric unit coordinates :

--------------------------------------------------------------------------------
   No.  Atomic        x           y           z         Radius
        Label       (Frac)      (Frac)      (Frac)       (Angs) 
--------------------------------------------------------------------------------
     1  Cl    c     0.000000    0.000000    0.000000    0.000000
     2  O     c     0.500000    0.500000    0.500000    0.000000
     3  Na    c     0.500000    0.500000    0.000000    0.000000
     4  Cl    s     0.000000    0.000000    0.000000    0.000000
     5  O     s     0.500000    0.500000    0.500000    0.000000
--------------------------------------------------------------------------------

  Final Cartesian lattice vectors (Angstroms) :

        4.507787    0.000000    0.000000
        0.000000    4.507787    0.000000
        0.000000    0.000000    4.507787


  Final cell parameters and derivatives :

--------------------------------------------------------------------------------
       a            4.507787 Angstrom     dE/de1(xx)     0.000000 eV/strain
       b            4.507787 Angstrom     dE/de2(yy)     0.000000 eV/strain
       c            4.507787 Angstrom     dE/de3(zz)     0.000000 eV/strain
       alpha       90.000000 Degrees      dE/de4(yz)     0.000000 eV/strain
       beta        90.000000 Degrees      dE/de5(xz)     0.000000 eV/strain
       gamma       90.000000 Degrees      dE/de6(xy)     0.000000 eV/strain
--------------------------------------------------------------------------------

  Primitive cell volume =            91.598892 Angs**3

  Density of cell =      2.183054 g/cm**3

  Non-primitive cell volume =            91.598892 Angs**3


  Final internal derivatives :

--------------------------------------------------------------------------------
   No.  Atomic          a             b             c           Radius
        Label          (eV)          (eV)          (eV)        (eV/Angs)
--------------------------------------------------------------------------------
      1 Cl    c       0.000000      0.000000      0.000000      0.000000
      2 O     c       0.000000      0.000000      0.000000      0.000000
      3 Na    c       0.000000      0.000000      0.000000      0.000000
      4 Cl    s       0.000000      0.000000      0.000000      0.000000
      5 O     s       0.000000      0.000000      0.000000      0.000000
--------------------------------------------------------------------------------
  Maximum abs         0.000000      0.000000      0.000000      0.000000
--------------------------------------------------------------------------------

  Comparison of initial and final structures : 

--------------------------------------------------------------------------------
  Parameter   Initial value   Final value   Difference    Units      Percent
--------------------------------------------------------------------------------
    Volume        91.368216     91.598892     0.230676    Angs**3      0.25
    a              4.504000      4.507787     0.003787    Angstroms    0.08
    b              4.504000      4.507787     0.003787    Angstroms    0.08
    c              4.504000      4.507787     0.003787    Angstroms    0.08
    alpha         90.000000     90.000000     0.000000    Degrees      0.00
    beta          90.000000     90.000000     0.000000    Degrees      0.00
    gamma         90.000000     90.000000     0.000000    Degrees      0.00
      1 x          0.000000      0.000000     0.000000    Fractional   0.00
      1 y          0.000000      0.000000     0.000000    Fractional   0.00
      1 z          0.000000      0.000000     0.000000    Fractional   0.00
      2 x          0.500000      0.500000     0.000000    Fractional   0.00
      2 y          0.500000      0.500000     0.000000    Fractional   0.00
      2 z          0.500000      0.500000     0.000000    Fractional   0.00
      3 x          0.500000      0.500000     0.000000    Fractional   0.00
      3 y          0.500000      0.500000     0.000000    Fractional   0.00
      3 z          0.000000      0.000000     0.000000    Fractional   0.00
      4 x          0.000000      0.000000     0.000000    Fractional   0.00
      4 y          0.000000      0.000000     0.000000    Fractional   0.00
      4 z          0.000000      0.000000     0.000000    Fractional   0.00
      5 x          0.500000      0.500000     0.000000    Fractional   0.00
      5 y          0.500000      0.500000     0.000000    Fractional   0.00
      5 z          0.500000      0.500000     0.000000    Fractional   0.00
--------------------------------------------------------------------------------


  Born effective charge tensors : 

-------------------------------------------------------------------------------
  Atom             x           y             z
-------------------------------------------------------------------------------
    1 Cl    x      -1.0181     -0.0000      0.0000
            y      -0.0000     -1.0181      0.0000
            z       0.0000      0.0000     -1.0181
-------------------------------------------------------------------------------
    2 O     x      -2.2647      0.0000     -0.0000
            y       0.0000     -2.2647     -0.0000
            z      -0.0000     -0.0000     -2.2647
-------------------------------------------------------------------------------
    3 Na    x       1.2258     -0.0000      0.0000
            y      -0.0000      1.2258     -0.0000
            z       0.0000     -0.0000      0.8313
-------------------------------------------------------------------------------




  Elastic Constant Matrix: (Units=GPa)

-------------------------------------------------------------------------------
  Indices      1         2         3         4         5         6    
-------------------------------------------------------------------------------
       1     95.8177   20.0737   20.0737   -0.0000   -0.0000    0.0000
       2     20.0737   95.8177   20.0737   -0.0000   -0.0000    0.0000
       3     20.0737   20.0737   95.8177   -0.0000   -0.0000    0.0000
       4     -0.0000   -0.0000   -0.0000   20.0737   -0.0000    0.0000
       5     -0.0000   -0.0000   -0.0000   -0.0000   20.0737    0.0000
       6      0.0000    0.0000    0.0000    0.0000    0.0000   20.0737
-------------------------------------------------------------------------------


  Elastic Compliance Matrix: (Units=1/GPa)

-------------------------------------------------------------------------------
  Indices      1         2         3         4         5         6    
-------------------------------------------------------------------------------
       1    0.011253 -0.001949 -0.001949  0.000000  0.000000 -0.000000
       2   -0.001949  0.011253 -0.001949  0.000000  0.000000  0.000000
       3   -0.001949 -0.001949  0.011253  0.000000  0.000000 -0.000000
       4    0.000000  0.000000  0.000000  0.049816  0.000000 -0.000000
       5    0.000000  0.000000  0.000000  0.000000  0.049816 -0.000000
       6   -0.000000  0.000000 -0.000000 -0.000000 -0.000000  0.049816
-------------------------------------------------------------------------------

  Mechanical properties :

-------------------------------------------------------------------------------
  Convention :                    Reuss         Voigt         Hill
-------------------------------------------------------------------------------
  Bulk  Modulus (GPa)     =      45.32174      45.32174      45.32174
  Shear Modulus (GPa)     =      24.72085      27.19304      25.95695
-------------------------------------------------------------------------------
  Velocity S-wave (km/s)  =       3.36511       3.52937       3.44822
  Velocity P-wave (km/s)  =       5.98827       6.11304       6.05098
-------------------------------------------------------------------------------
  Compressibility (1/GPa) =    0.02206447
-------------------------------------------------------------------------------
  Stress axis :                     x             y             z
-------------------------------------------------------------------------------
  Youngs Moduli (GPa)     =      88.86373      88.86373      88.86373
-------------------------------------------------------------------------------
  Poissons Ratio (x)      =                     0.17321       0.17321
  Poissons Ratio (y)      =       0.17321                     0.17321
  Poissons Ratio (z)      =       0.17321       0.17321
-------------------------------------------------------------------------------


  Piezoelectric Strain Matrix: (Units=C/m**2)

-------------------------------------------------------------------------------
  Indices      1         2         3         4         5         6    
-------------------------------------------------------------------------------
       x    -0.00000  -0.00000  -0.00000   0.00000  -0.00000  -0.00000
       y    -0.00000  -0.00000   0.00000  -0.00000   0.00000   0.00000
       z    -0.00000  -0.00000  -0.00000  -0.00000   0.00000   0.00000
-------------------------------------------------------------------------------


  Piezoelectric Stress Matrix: (Units=10**-11 C/N)

-------------------------------------------------------------------------------
  Indices      1         2         3         4         5         6    
-------------------------------------------------------------------------------
       x    -0.00000   0.00000   0.00000   0.00000  -0.00000  -0.00000
       y    -0.00000  -0.00000   0.00000  -0.00000   0.00000   0.00000
       z     0.00000   0.00000  -0.00000  -0.00000   0.00000   0.00000
-------------------------------------------------------------------------------


  Static dielectric constant tensor : 

-------------------------------------------------------------------------------
              x         y         z
-------------------------------------------------------------------------------
       x    22.84729   0.00000   0.00000
       y     0.00000  22.84729  -0.00000
       z     0.00000  -0.00000  22.84729
--------------------------------------------------------------------------------

  High frequency dielectric constant tensor : 

-------------------------------------------------------------------------------
              x         y         z
-------------------------------------------------------------------------------
       x     1.47557   0.00000  -0.00000
       y     0.00000   1.47557  -0.00000
       z    -0.00000  -0.00000   1.47557
-------------------------------------------------------------------------------

  Static refractive indices : 

-------------------------------------------------------------------------------
    1 =    4.77988      2 =    4.77988      3 =    4.77988
-------------------------------------------------------------------------------

  High frequency refractive indices : 

-------------------------------------------------------------------------------
    1 =    1.21473      2 =    1.21473      3 =    1.21473
-------------------------------------------------------------------------------


  Time to end of optimisation =       0.0301 seconds

********************************************************************************
*  Defect calculation for configuration   1 :                                  *
********************************************************************************

  Total number of defects =      3

  Total charge on defect  =  -1.00

  Defect centre is at   0.5000   0.4800   0.0200  Frac

  Region 1 radius =  12.0000      Number of ions =    540

  Number of symmetry inequivalent region 1 ions  =    314

  Region 2 radius =  16.0000      Number of ions =    773

  Number of symmetry inequivalent region 2a ions =    420

  Region 2a mode = 4 : screened electrostatics due to region 1 
                       neglect correction to region 1 forces from 2a
                       region 2a displacements based on defects only

  Region 2a ions will only interact with defects in region 1

  Vacancies:

--------------------------------------------------------------------------------
    Specification type     Symbol/Number         x          y          z
--------------------------------------------------------------------------------
    Fractional                               0.500000   0.500000   0.000000
    Fractional                               0.500000   0.000000   0.500000
--------------------------------------------------------------------------------

  Interstitials:

--------------------------------------------------------------------------------
    Specification type     Symbol/Number         x          y          z
--------------------------------------------------------------------------------
    Atom/Fractional         Na               0.500000   0.020000   0.480000
--------------------------------------------------------------------------------


  Symmetry reduced region 1 (Relative to defect centre) :

--------------------------------------------------------------------------------
   No.   Atomic       x            y             z       Radius  Multiplicity   
         Label      (Angs)       (Angs)        (Angs)    (Angs)     
--------------------------------------------------------------------------------
     1  O     c      0.0000       0.0902 *     2.1637 *  0.0000     1          
     2  O     c      0.0000       0.0902 *    -2.3440 *  0.0000     1          
     3  Na    c      0.0000      -2.0736       2.0736    0.0000     1    Defect
     4  Na    c      2.2539 *     0.0902 *     2.1637 *  0.0000     2          
     5  Cl    c      2.2539 *    -2.1637 *    -0.0902 *  0.0000     2          
     6  Na    c      0.0000       2.3440 *     2.1637 *  0.0000     1          
     7  Na    c      0.0000      -2.1637 *    -2.3440 *  0.0000     1          
     8  Cl    c      2.2539 *     2.3440 *    -0.0902 *  0.0000     2          
     9  Na    c      2.2539 *     0.0902 *    -2.3440 *  0.0000     2          
    10  Na    c      0.0000       2.3440 *    -2.3440 *  0.0000     1          
    11  Na    c      0.0000       0.0902 *     4.4176 *  0.0000     1          
    12  Na    c      0.0000      -4.4176 *    -0.0902 *  0.0000     1          
    13  Na    c     -4.5078 *     0.0902 *    -0.0902 *  0.0000     2          
    14  Na    c      0.0000       4.5979 *    -0.0902 *  0.0000     1          
    15  Na    c      0.0000       0.0902 *    -4.5979 *  0.0000     1          
    16  O     c      0.0000      -4.4176 *     2.1637 *  0.0000     1          
    17  O     c     -4.5078 *     0.0902 *     2.1637 *  0.0000     2          
    18  O     c      0.0000      -4.4176 *    -2.3440 *  0.0000     1          
    19  O     c      0.0000       4.5979 *     2.1637 *  0.0000     1          
    20  O     c     -4.5078 *     0.0902 *    -2.3440 *  0.0000     2          
    21  O     c      0.0000       4.5979 *    -2.3440 *  0.0000     1          
    22  Cl    c      2.2539 *    -2.1637 *     4.4176 *  0.0000     2          
    23  Na    c      2.2539 *    -4.4176 *     2.1637 *  0.0000     2          
    24  Na    c     -4.5078 *    -2.1637 *     2.1637 *  0.0000     2          
    25  Cl    c      2.2539 *     2.3440 *     4.4176 *  0.0000     2          
    26  Na    c      2.2539 *    -4.4176 *    -2.3440 *  0.0000     2          
    27  Na    c     -4.5078 *     2.3440 *     2.1637 *  0.0000     2          
    28  Na    c     -4.5078 *    -2.1637 *    -2.3440 *  0.0000     2          
    29  Na    c      2.2539 *     4.5979 *     2.1637 *  0.0000     2          
    30  Cl    c      2.2539 *    -2.1637 *    -4.5979 *  0.0000     2          
    31  Na    c     -4.5078 *     2.3440 *    -2.3440 *  0.0000     2          
    32  Na    c      2.2539 *     4.5979 *    -2.3440 *  0.0000     2          
    33  Cl    c      2.2539 *     2.3440 *    -4.5979 *  0.0000     2          
    34  Na    c      0.0000      -4.4176 *     4.4176 *  0.0000     1          
    35  Na    c     -4.5078 *     0.0902 *     4.4176 *  0.0000     2          
    36  Na    c     -4.5078 *    -4.4176 *    -0.0902 *  0.0000     2          
    37  Na    c      0.0000       4.5979 *     4.4176 *  0.0000     1          
    38  Na    c      0.0000      -4.4176 *    -4.5979 *  0.0000     1          
    39  Na    c     -4.5078 *     4.5979 *    -0.0902 *  0.0000     2          
    40  Na    c     -4.5078 *     0.0902 *    -4.5979 *  0.0000     2          
    41  Na    c      0.0000       4.5979 *    -4.5979 *  0.0000     1          
    42  O     c      0.0000       0.0902 *     6.6715 *  0.0000     1          
    43  O     c     -4.5078 *    -4.4176 *     2.1637 *  0.0000     2          
    44  O     c     -4.5078 *    -4.4176 *    -2.3440 *  0.0000     2          
    45  O     c     -4.5078 *     4.5979 *     2.1637 *  0.0000     2          
    46  O     c     -4.5078 *     4.5979 *    -2.3440 *  0.0000     2          
    47  O     c      0.0000       0.0902 *    -6.8518 *  0.0000     1          
    48  Na    c      0.0000      -2.1637 *     6.6715 *  0.0000     1          
    49  Na    c      0.0000      -6.6715 *     2.1637 *  0.0000     1          
    50  Cl    c      2.2539 *    -6.6715 *    -0.0902 *  0.0000     2          
    51  Na    c      2.2539 *     0.0902 *     6.6715 *  0.0000     2          
    52  Na    c      0.0000       2.3440 *     6.6715 *  0.0000     1          
    53  Na    c      0.0000      -6.6715 *    -2.3440 *  0.0000     1          
    54  Na    c      6.7617 *     0.0902 *     2.1637 *  0.0000     2          
    55  Cl    c      6.7617 *    -2.1637 *    -0.0902 *  0.0000     2          
    56  Cl    c      6.7617 *     2.3440 *    -0.0902 *  0.0000     2          
    57  Na    c      6.7617 *     0.0902 *    -2.3440 *  0.0000     2          
    58  Na    c      0.0000       6.8518 *     2.1637 *  0.0000     1          
    59  Na    c      0.0000      -2.1637 *    -6.8518 *  0.0000     1          
    60  Cl    c      2.2539 *     6.8518 *    -0.0902 *  0.0000     2          
    61  Na    c      2.2539 *     0.0902 *    -6.8518 *  0.0000     2          
    62  Na    c      0.0000       6.8518 *    -2.3440 *  0.0000     1          
    63  Na    c      0.0000       2.3440 *    -6.8518 *  0.0000     1          
    64  Na    c     -4.5078 *    -4.4176 *     4.4176 *  0.0000     2          
    65  Na    c     -4.5078 *     4.5979 *     4.4176 *  0.0000     2          
    66  Na    c     -4.5078 *    -4.4176 *    -4.5979 *  0.0000     2          
    67  Na    c     -4.5078 *     4.5979 *    -4.5979 *  0.0000     2          
    68  O     c      0.0000      -4.4176 *     6.6715 *  0.0000     1          
    69  O     c      4.5078 *     0.0902 *     6.6715 *  0.0000     2          
    70  O     c      0.0000       4.5979 *     6.6715 *  0.0000     1          
    71  O     c      0.0000      -4.4176 *    -6.8518 *  0.0000     1          
    72  O     c      4.5078 *     0.0902 *    -6.8518 *  0.0000     2          
    73  O     c      0.0000       4.5979 *    -6.8518 *  0.0000     1          
    74  Cl    c      2.2539 *    -6.6715 *     4.4176 *  0.0000     2          
    75  Na    c      2.2539 *    -4.4176 *     6.6715 *  0.0000     2          
    76  Na    c      4.5078 *    -2.1637 *     6.6715 *  0.0000     2          
    77  Na    c      4.5078 *    -6.6715 *     2.1637 *  0.0000     2          
    78  Cl    c      6.7617 *    -2.1637 *     4.4176 *  0.0000     2          
    79  Na    c      6.7617 *    -4.4176 *     2.1637 *  0.0000     2          
    80  Na    c     -4.5078 *     2.3440 *     6.6715 *  0.0000     2          
    81  Na    c      4.5078 *    -6.6715 *    -2.3440 *  0.0000     2          
    82  Na    c      2.2539 *     4.5979 *     6.6715 *  0.0000     2          
    83  Cl    c      2.2539 *    -6.6715 *    -4.5979 *  0.0000     2          
    84  Cl    c      6.7617 *     2.3440 *     4.4176 *  0.0000     2          
    85  Na    c      6.7617 *    -4.4176 *    -2.3440 *  0.0000     2          
    86  Cl    c      2.2539 *     6.8518 *     4.4176 *  0.0000     2          
    87  Cl    c      6.7617 *    -2.1637 *    -4.5979 *  0.0000     2          
    88  Na    c      2.2539 *    -4.4176 *    -6.8518 *  0.0000     2          
    89  Na    c      6.7617 *     4.5979 *     2.1637 *  0.0000     2          
    90  Na    c      4.5078 *     6.8518 *     2.1637 *  0.0000     2          
    91  Na    c     -4.5078 *    -2.1637 *    -6.8518 *  0.0000     2          
    92  Cl    c      6.7617 *     2.3440 *    -4.5979 *  0.0000     2          
    93  Na    c      6.7617 *     4.5979 *    -2.3440 *  0.0000     2          
    94  Na    c      4.5078 *     6.8518 *    -2.3440 *  0.0000     2          
    95  Na    c     -4.5078 *     2.3440 *    -6.8518 *  0.0000     2          
    96  Cl    c      2.2539 *     6.8518 *    -4.5979 *  0.0000     2          
    97  Na    c      2.2539 *     4.5979 *    -6.8518 *  0.0000     2          
    98  Na    c      0.0000       0.0902 *     8.9254 *  0.0000     1          
    99  Na    c      0.0000      -8.9254 *    -0.0902 *  0.0000     1          
   100  Na    c      9.0156 *     0.0902 *    -0.0902 *  0.0000     2          
   101  Na    c      0.0000       9.1057 *    -0.0902 *  0.0000     1          
   102  Na    c      0.0000       0.0902 *    -9.1057 *  0.0000     1          
   103  O     c     -4.5078 *    -4.4176 *     6.6715 *  0.0000     2          
   104  O     c      0.0000      -8.9254 *     2.1637 *  0.0000     1          
   105  O     c      0.0000      -8.9254 *    -2.3440 *  0.0000     1          
   106  O     c      4.5078 *     4.5979 *     6.6715 *  0.0000     2          
   107  O     c      9.0156 *     0.0902 *     2.1637 *  0.0000     2          
   108  O     c      9.0156 *     0.0902 *    -2.3440 *  0.0000     2          
   109  O     c      4.5078 *    -4.4176 *    -6.8518 *  0.0000     2          
   110  O     c      0.0000       9.1057 *     2.1637 *  0.0000     1          
   111  O     c      0.0000       9.1057 *    -2.3440 *  0.0000     1          
   112  O     c     -4.5078 *     4.5979 *    -6.8518 *  0.0000     2          
   113  Na    c      0.0000      -6.6715 *     6.6715 *  0.0000     1          
   114  Cl    c      2.2539 *    -2.1637 *     8.9254 *  0.0000     2          
   115  Na    c      2.2539 *    -8.9254 *     2.1637 *  0.0000     2          
   116  Cl    c      2.2539 *     2.3440 *     8.9254 *  0.0000     2          
   117  Cl    c      6.7617 *    -6.6715 *    -0.0902 *  0.0000     2          
   118  Na    c      6.7617 *     0.0902 *     6.6715 *  0.0000     2          
   119  Na    c      2.2539 *    -8.9254 *    -2.3440 *  0.0000     2          
   120  Na    c      9.0156 *    -2.1637 *     2.1637 *  0.0000     2          
   121  Na    c      0.0000       6.8518 *     6.6715 *  0.0000     1          
   122  Na    c      0.0000      -6.6715 *    -6.8518 *  0.0000     1          
   123  Na    c      9.0156 *     2.3440 *     2.1637 *  0.0000     2          
   124  Na    c      9.0156 *    -2.1637 *    -2.3440 *  0.0000     2          
   125  Na    c      9.0156 *     2.3440 *    -2.3440 *  0.0000     2          
   126  Na    c      2.2539 *     9.1057 *     2.1637 *  0.0000     2          
   127  Cl    c      6.7617 *     6.8518 *    -0.0902 *  0.0000     2          
   128  Cl    c      2.2539 *    -2.1637 *    -9.1057 *  0.0000     2          
   129  Na    c      6.7617 *     0.0902 *    -6.8518 *  0.0000     2          
   130  Na    c      2.2539 *     9.1057 *    -2.3440 *  0.0000     2          
   131  Cl    c      2.2539 *     2.3440 *    -9.1057 *  0.0000     2          
   132  Na    c      0.0000       6.8518 *    -6.8518 *  0.0000     1          
   133  Na    c      0.0000      -4.4176 *     8.9254 *  0.0000     1          
   134  Na    c      0.0000      -8.9254 *     4.4176 *  0.0000     1          
   135  Na    c     -4.5078 *     0.0902 *     8.9254 *  0.0000     2          
   136  Na    c     -4.5078 *    -8.9254 *    -0.0902 *  0.0000     2          
   137  Na    c      0.0000       4.5979 *     8.9254 *  0.0000     1          
   138  Na    c      9.0156 *     0.0902 *     4.4176 *  0.0000     2          
   139  Na    c      9.0156 *    -4.4176 *    -0.0902 *  0.0000     2          
   140  Na    c      0.0000      -8.9254 *    -4.5979 *  0.0000     1          
   141  Na    c      0.0000       9.1057 *     4.4176 *  0.0000     1          
   142  Na    c      9.0156 *     0.0902 *    -4.5979 *  0.0000     2          
   143  Na    c      9.0156 *     4.5979 *    -0.0902 *  0.0000     2          
   144  Na    c      0.0000      -4.4176 *    -9.1057 *  0.0000     1          
   145  Na    c     -4.5078 *     9.1057 *    -0.0902 *  0.0000     2          
   146  Na    c     -4.5078 *     0.0902 *    -9.1057 *  0.0000     2          
   147  Na    c      0.0000       9.1057 *    -4.5979 *  0.0000     1          
   148  Na    c      0.0000       4.5979 *    -9.1057 *  0.0000     1          
   149  O     c     -4.5078 *    -8.9254 *     2.1637 *  0.0000     2          
   150  O     c      9.0156 *    -4.4176 *     2.1637 *  0.0000     2          
   151  O     c     -4.5078 *    -8.9254 *    -2.3440 *  0.0000     2          
   152  O     c      9.0156 *    -4.4176 *    -2.3440 *  0.0000     2          
   153  O     c      9.0156 *     4.5979 *     2.1637 *  0.0000     2          
   154  O     c     -4.5078 *     9.1057 *     2.1637 *  0.0000     2          
   155  O     c      9.0156 *     4.5979 *    -2.3440 *  0.0000     2          
   156  O     c     -4.5078 *     9.1057 *    -2.3440 *  0.0000     2          
   157  Na    c      4.5078 *    -6.6715 *     6.6715 *  0.0000     2          
   158  Cl    c      6.7617 *    -6.6715 *     4.4176 *  0.0000     2          
   159  Na    c      6.7617 *    -4.4176 *     6.6715 *  0.0000     2          
   160  Cl    c      6.7617 *    -6.6715 *    -4.5979 *  0.0000     2          
   161  Na    c      6.7617 *     4.5979 *     6.6715 *  0.0000     2          
   162  Na    c      4.5078 *     6.8518 *     6.6715 *  0.0000     2          
   163  Na    c      4.5078 *    -6.6715 *    -6.8518 *  0.0000     2          
   164  Cl    c      6.7617 *     6.8518 *     4.4176 *  0.0000     2          
   165  Na    c      6.7617 *    -4.4176 *    -6.8518 *  0.0000     2          
   166  Cl    c      6.7617 *     6.8518 *    -4.5979 *  0.0000     2          
   167  Na    c      6.7617 *     4.5979 *    -6.8518 *  0.0000     2          
   168  Na    c      4.5078 *     6.8518 *    -6.8518 *  0.0000     2          
   169  Na    c     -4.5078 *    -4.4176 *     8.9254 *  0.0000     2          
   170  Na    c     -4.5078 *    -8.9254 *     4.4176 *  0.0000     2          
   171  Na    c      9.0156 *    -4.4176 *     4.4176 *  0.0000     2          
   172  Na    c      4.5078 *     4.5979 *     8.9254 *  0.0000     2          
   173  Na    c     -4.5078 *    -8.9254 *    -4.5979 *  0.0000     2          
   174  Na    c      9.0156 *     4.5979 *     4.4176 *  0.0000     2          
   175  Na    c      9.0156 *    -4.4176 *    -4.5979 *  0.0000     2          
   176  Na    c     -4.5078 *     9.1057 *     4.4176 *  0.0000     2          
   177  Na    c     -4.5078 *    -4.4176 *    -9.1057 *  0.0000     2          
   178  Na    c      9.0156 *     4.5979 *    -4.5979 *  0.0000     2          
   179  O     c      0.0000      -8.9254 *     6.6715 *  0.0000     1          
   180  Na    c     -4.5078 *     9.1057 *    -4.5979 *  0.0000     2          
   181  Na    c      4.5078 *     4.5979 *    -9.1057 *  0.0000     2          
   182  O     c      0.0000       0.0902 *    11.1793 *  0.0000     1          
   183  O     c      9.0156 *     0.0902 *     6.6715 *  0.0000     2          
   184  O     c      0.0000      -8.9254 *    -6.8518 *  0.0000     1          
   185  O     c      0.0000       9.1057 *     6.6715 *  0.0000     1          
   186  O     c      9.0156 *     0.0902 *    -6.8518 *  0.0000     2          
   187  O     c      0.0000       0.0902 *   -11.3596 *  0.0000     1          
   188  Cl    c      2.2539 *    -6.6715 *     8.9254 *  0.0000     2          
   189  Na    c      2.2539 *    -8.9254 *     6.6715 *  0.0000     2          
   190  Na    c      0.0000      -2.1637 *    11.1793 *  0.0000     1          
   191  Na    c      0.0000     -11.1793 *     2.1637 *  0.0000     1          
   192  O     c      0.0000       9.1057 *    -6.8518 *  0.0000     1          
   193  Cl    c      2.2539 *   -11.1793 *    -0.0902 *  0.0000     2          
   194  Cl    c      6.7617 *    -2.1637 *     8.9254 *  0.0000     2          
   195  Na    c      2.2539 *     0.0902 *    11.1793 *  0.0000     2          
   196  Na    c      6.7617 *    -8.9254 *     2.1637 *  0.0000     2          
   197  Na    c      0.0000       2.3440 *    11.1793 *  0.0000     1          
   198  Na    c      0.0000     -11.1793 *    -2.3440 *  0.0000     1          
   199  Na    c      9.0156 *    -2.1637 *     6.6715 *  0.0000     2          
   200  Na    c      9.0156 *    -6.6715 *     2.1637 *  0.0000     2          
   201  Cl    c      6.7617 *     2.3440 *     8.9254 *  0.0000     2          
   202  Na    c      6.7617 *    -8.9254 *    -2.3440 *  0.0000     2          
   203  Na    c      9.0156 *    -6.6715 *    -2.3440 *  0.0000     2          
   204  Na    c      9.0156 *     2.3440 *     6.6715 *  0.0000     2          
   205  Na    c     11.2695 *     0.0902 *     2.1637 *  0.0000     2          
   206  Cl    c      2.2539 *     6.8518 *     8.9254 *  0.0000     2          
   207  Cl    c     11.2695 *    -2.1637 *    -0.0902 *  0.0000     2          
   208  Na    c      2.2539 *    -8.9254 *    -6.8518 *  0.0000     2          
   209  Cl    c     11.2695 *     2.3440 *    -0.0902 *  0.0000     2          
   210  Na    c      2.2539 *     9.1057 *     6.6715 *  0.0000     2          
   211  Na    c     11.2695 *     0.0902 *    -2.3440 *  0.0000     2          
   212  Cl    c      2.2539 *    -6.6715 *    -9.1057 *  0.0000     2          
   213  Na    c      9.0156 *     6.8518 *     2.1637 *  0.0000     2          
   214  Na    c      9.0156 *    -2.1637 *    -6.8518 *  0.0000     2          
   215  Cl    c      6.7617 *    -2.1637 *    -9.1057 *  0.0000     2          
   216  Na    c      6.7617 *     9.1057 *     2.1637 *  0.0000     2          
   217  Na    c      9.0156 *     6.8518 *    -2.3440 *  0.0000     2          
   218  Na    c      0.0000      11.3596 *     2.1637 *  0.0000     1          
   219  Na    c      0.0000      -2.1637 *   -11.3596 *  0.0000     1          
   220  Na    c      9.0156 *     2.3440 *    -6.8518 *  0.0000     2          
   221  Na    c      6.7617 *     9.1057 *    -2.3440 *  0.0000     2          
   222  Cl    c      2.2539 *    11.3596 *    -0.0902 *  0.0000     2          
   223  Cl    c      6.7617 *     2.3440 *    -9.1057 *  0.0000     2          
   224  Na    c      2.2539 *     0.0902 *   -11.3596 *  0.0000     2          
   225  Na    c      0.0000       2.3440 *   -11.3596 *  0.0000     1          
   226  Na    c      0.0000      11.3596 *    -2.3440 *  0.0000     1          
   227  Na    c      2.2539 *     9.1057 *    -6.8518 *  0.0000     2          
   228  Cl    c      2.2539 *     6.8518 *    -9.1057 *  0.0000     2          
   229  O     s      0.0000       0.0902 *     2.1637 *  0.0000     1          
   230  O     s      0.0000       0.0902 *    -2.3440 *  0.0000     1          
   231  Cl    s      2.2539 *    -2.1637 *    -0.0902 *  0.0000     2          
   232  Cl    s      2.2539 *     2.3440 *    -0.0902 *  0.0000     2          
   233  O     s      0.0000      -4.4176 *     2.1637 *  0.0000     1          
   234  O     s     -4.5078 *     0.0902 *     2.1637 *  0.0000     2          
   235  O     s      0.0000      -4.4176 *    -2.3440 *  0.0000     1          
   236  O     s      0.0000       4.5979 *     2.1637 *  0.0000     1          
   237  O     s     -4.5078 *     0.0902 *    -2.3440 *  0.0000     2          
   238  O     s      0.0000       4.5979 *    -2.3440 *  0.0000     1          
   239  Cl    s      2.2539 *    -2.1637 *     4.4176 *  0.0000     2          
   240  Cl    s      2.2539 *     2.3440 *     4.4176 *  0.0000     2          
   241  Cl    s      2.2539 *    -2.1637 *    -4.5979 *  0.0000     2          
   242  Cl    s      2.2539 *     2.3440 *    -4.5979 *  0.0000     2          
   243  O     s      0.0000       0.0902 *     6.6715 *  0.0000     1          
   244  O     s     -4.5078 *    -4.4176 *     2.1637 *  0.0000     2          
   245  O     s     -4.5078 *    -4.4176 *    -2.3440 *  0.0000     2          
   246  O     s     -4.5078 *     4.5979 *     2.1637 *  0.0000     2          
   247  O     s     -4.5078 *     4.5979 *    -2.3440 *  0.0000     2          
   248  O     s      0.0000       0.0902 *    -6.8518 *  0.0000     1          
   249  Cl    s      2.2539 *    -6.6715 *    -0.0902 *  0.0000     2          
   250  Cl    s      6.7617 *    -2.1637 *    -0.0902 *  0.0000     2          
   251  Cl    s      6.7617 *     2.3440 *    -0.0902 *  0.0000     2          
   252  Cl    s      2.2539 *     6.8518 *    -0.0902 *  0.0000     2          
   253  O     s      0.0000      -4.4176 *     6.6715 *  0.0000     1          
   254  O     s      4.5078 *     0.0902 *     6.6715 *  0.0000     2          
   255  O     s      0.0000       4.5979 *     6.6715 *  0.0000     1          
   256  O     s      0.0000      -4.4176 *    -6.8518 *  0.0000     1          
   257  O     s      4.5078 *     0.0902 *    -6.8518 *  0.0000     2          
   258  O     s      0.0000       4.5979 *    -6.8518 *  0.0000     1          
   259  Cl    s      2.2539 *    -6.6715 *     4.4176 *  0.0000     2          
   260  Cl    s      6.7617 *    -2.1637 *     4.4176 *  0.0000     2          
   261  Cl    s      2.2539 *    -6.6715 *    -4.5979 *  0.0000     2          
   262  Cl    s      6.7617 *     2.3440 *     4.4176 *  0.0000     2          
   263  Cl    s      2.2539 *     6.8518 *     4.4176 *  0.0000     2          
   264  Cl    s      6.7617 *    -2.1637 *    -4.5979 *  0.0000     2          
   265  Cl    s      6.7617 *     2.3440 *    -4.5979 *  0.0000     2          
   266  Cl    s      2.2539 *     6.8518 *    -4.5979 *  0.0000     2          
   267  O     s     -4.5078 *    -4.4176 *     6.6715 *  0.0000     2          
   268  O     s      0.0000      -8.9254 *     2.1637 *  0.0000     1          
   269  O     s      0.0000      -8.9254 *    -2.3440 *  0.0000     1          
   270  O     s      4.5078 *     4.5979 *     6.6715 *  0.0000     2          
   271  O     s      9.0156 *     0.0902 *     2.1637 *  0.0000     2          
   272  O     s      9.0156 *     0.0902 *    -2.3440 *  0.0000     2          
   273  O     s      4.5078 *    -4.4176 *    -6.8518 *  0.0000     2          
   274  O     s      0.0000       9.1057 *     2.1637 *  0.0000     1          
   275  O     s      0.0000       9.1057 *    -2.3440 *  0.0000     1          
   276  O     s     -4.5078 *     4.5979 *    -6.8518 *  0.0000     2          
   277  Cl    s      2.2539 *    -2.1637 *     8.9254 *  0.0000     2          
   278  Cl    s      2.2539 *     2.3440 *     8.9254 *  0.0000     2          
   279  Cl    s      6.7617 *    -6.6715 *    -0.0902 *  0.0000     2          
   280  Cl    s      6.7617 *     6.8518 *    -0.0902 *  0.0000     2          
   281  Cl    s      2.2539 *    -2.1637 *    -9.1057 *  0.0000     2          
   282  Cl    s      2.2539 *     2.3440 *    -9.1057 *  0.0000     2          
   283  O     s     -4.5078 *    -8.9254 *     2.1637 *  0.0000     2          
   284  O     s      9.0156 *    -4.4176 *     2.1637 *  0.0000     2          
   285  O     s     -4.5078 *    -8.9254 *    -2.3440 *  0.0000     2          
   286  O     s      9.0156 *    -4.4176 *    -2.3440 *  0.0000     2          
   287  O     s      9.0156 *     4.5979 *     2.1637 *  0.0000     2          
   288  O     s     -4.5078 *     9.1057 *     2.1637 *  0.0000     2          
   289  O     s      9.0156 *     4.5979 *    -2.3440 *  0.0000     2          
   290  O     s     -4.5078 *     9.1057 *    -2.3440 *  0.0000     2          
   291  Cl    s      6.7617 *    -6.6715 *     4.4176 *  0.0000     2          
   292  Cl    s      6.7617 *    -6.6715 *    -4.5979 *  0.0000     2          
   293  Cl    s      6.7617 *     6.8518 *     4.4176 *  0.0000     2          
   294  Cl    s      6.7617 *     6.8518 *    -4.5979 *  0.0000     2          
   295  O     s      0.0000      -8.9254 *     6.6715 *  0.0000     1          
   296  O     s      0.0000       0.0902 *    11.1793 *  0.0000     1          
   297  O     s      9.0156 *     0.0902 *     6.6715 *  0.0000     2          
   298  O     s      0.0000      -8.9254 *    -6.8518 *  0.0000     1          
   299  O     s      0.0000       9.1057 *     6.6715 *  0.0000     1          
   300  O     s      9.0156 *     0.0902 *    -6.8518 *  0.0000     2          
   301  O     s      0.0000       0.0902 *   -11.3596 *  0.0000     1          
   302  Cl    s      2.2539 *    -6.6715 *     8.9254 *  0.0000     2          
   303  O     s      0.0000       9.1057 *    -6.8518 *  0.0000     1          
   304  Cl    s      2.2539 *   -11.1793 *    -0.0902 *  0.0000     2          
   305  Cl    s      6.7617 *    -2.1637 *     8.9254 *  0.0000     2          
   306  Cl    s      6.7617 *     2.3440 *     8.9254 *  0.0000     2          
   307  Cl    s      2.2539 *     6.8518 *     8.9254 *  0.0000     2          
   308  Cl    s     11.2695 *    -2.1637 *    -0.0902 *  0.0000     2          
   309  Cl    s     11.2695 *     2.3440 *    -0.0902 *  0.0000     2          
   310  Cl    s      2.2539 *    -6.6715 *    -9.1057 *  0.0000     2          
   311  Cl    s      6.7617 *    -2.1637 *    -9.1057 *  0.0000     2          
   312  Cl    s      2.2539 *    11.3596 *    -0.0902 *  0.0000     2          
   313  Cl    s      6.7617 *     2.3440 *    -9.1057 *  0.0000     2          
   314  Cl    s      2.2539 *     6.8518 *    -9.1057 *  0.0000     2          
--------------------------------------------------------------------------------

  Components of defect energy : 

--------------------------------------------------------------------------------
  Region 1 - region 1                   =    -17.57101556 eV
  Region 1 - region 2a (unrelaxed)      =     25.99589042 eV
  Region 1 - 2a (relaxed - correction)  =     -0.28097711 eV
  Region 1 (Total)                      =      8.14389776 eV
  Region 2a                             =      0.14041403 eV
  Region 2b                             =     -0.43058409 eV
--------------------------------------------------------------------------------
  Total defect energy                   =      7.85372769 eV
--------------------------------------------------------------------------------

  Largest displacement in region 2 =   0.0206 Angstroms


  Number of variables =      852

  Maximum number of calculations  =        1000
  Maximum Hessian update interval =          10
  Maximum step size               =   1.0000000
  Maximum parameter tolerance     =   0.0000100
  Maximum function  tolerance     =   0.0000100
  Maximum gradient  tolerance     =   0.0010000

  Symmetry adapted optimisation

  Symmetry to be used for second derivatives

  Newton-Raphson optimiser to be used

  BFGS hessian update to be used

  Lower half triangular hessian to be used

  Start of defect optimisation :

  Cycle:      0 Defect Energy:   7.853728  Gnorm:     0.019920  CPU:    2.678
  ** Hessian calculated **
  Cycle:      1 Defect Energy:   7.295878  Gnorm:     0.017664  CPU:    8.553
  ** Hessian calculated **
  Cycle:      2 Defect Energy:   6.579490  Gnorm:     0.014398  CPU:   14.130
  ** Hessian calculated **
  Cycle:      3 Defect Energy:   5.506440  Gnorm:     0.004366  CPU:   18.203
  Cycle:      4 Defect Energy:   5.417437  Gnorm:     0.002795  CPU:   19.021
  Cycle:      5 Defect Energy:   5.323116  Gnorm:     0.002150  CPU:   19.850
  Cycle:      6 Defect Energy:   5.222349  Gnorm:     0.001694  CPU:   20.668
  Cycle:      7 Defect Energy:   5.129407  Gnorm:     0.001599  CPU:   21.489
  Cycle:      8 Defect Energy:   5.062187  Gnorm:     0.001528  CPU:   22.316
  Cycle:      9 Defect Energy:   5.009020  Gnorm:     0.001731  CPU:   23.136
  Cycle:     10 Defect Energy:   4.956554  Gnorm:     0.002008  CPU:   23.955
  Cycle:     11 Defect Energy:   4.893996  Gnorm:     0.002050  CPU:   24.775
  Cycle:     12 Defect Energy:   4.824632  Gnorm:     0.002202  CPU:   25.610
  ** Hessian calculated **
  Cycle:     13 Defect Energy:   4.753045  Gnorm:     0.002113  CPU:   27.752
  Cycle:     14 Defect Energy:   4.669033  Gnorm:     0.001958  CPU:   28.561
  Cycle:     15 Defect Energy:   4.586343  Gnorm:     0.001622  CPU:   29.386
  Cycle:     16 Defect Energy:   4.554901  Gnorm:     0.001506  CPU:   30.222
  Cycle:     17 Defect Energy:   4.518134  Gnorm:     0.000911  CPU:   31.042
  ** Hessian calculated **
  Cycle:     18 Defect Energy:   4.481914  Gnorm:     0.000652  CPU:   33.140
  Cycle:     19 Defect Energy:   4.460702  Gnorm:     0.000480  CPU:   33.950
  Cycle:     20 Defect Energy:   4.448048  Gnorm:     0.000381  CPU:   34.763
  Cycle:     21 Defect Energy:   4.427148  Gnorm:     0.000253  CPU:   35.588
  Cycle:     22 Defect Energy:   4.421044  Gnorm:     0.000244  CPU:   36.399
  Cycle:     23 Defect Energy:   4.413165  Gnorm:     0.000212  CPU:   37.232
  Cycle:     24 Defect Energy:   4.405504  Gnorm:     0.000239  CPU:   38.064
  Cycle:     25 Defect Energy:   4.402008  Gnorm:     0.000185  CPU:   38.854
  Cycle:     26 Defect Energy:   4.400105  Gnorm:     0.000177  CPU:   39.667
  Cycle:     27 Defect Energy:   4.399047  Gnorm:     0.000114  CPU:   40.487
  ** Hessian calculated **
  Cycle:     28 Defect Energy:   4.398346  Gnorm:     0.000112  CPU:   42.534
  Cycle:     29 Defect Energy:   4.397297  Gnorm:     0.000110  CPU:   43.359
  Cycle:     30 Defect Energy:   4.395821  Gnorm:     0.000116  CPU:   44.145
  Cycle:     31 Defect Energy:   4.395238  Gnorm:     0.000085  CPU:   44.983
  Cycle:     32 Defect Energy:   4.395032  Gnorm:     0.000064  CPU:   45.830
  Cycle:     33 Defect Energy:   4.394900  Gnorm:     0.000042  CPU:   46.659
  Cycle:     34 Defect Energy:   4.394837  Gnorm:     0.000032  CPU:   47.493
  Cycle:     35 Defect Energy:   4.394809  Gnorm:     0.000020  CPU:   48.323
  Cycle:     36 Defect Energy:   4.394799  Gnorm:     0.000015  CPU:   49.138


  **** Optimisation achieved ****


  Final defect energy  =        4.39479562
  Final defect Gnorm   =        0.00000943

  Components of defect energy : 

--------------------------------------------------------------------------------
  Region 1 - region 1                   =    -17.66912689 eV
  Region 1 - region 2a (unrelaxed)      =     22.59803060 eV
  Region 1 - 2a (relaxed - correction)  =     -0.20666270 eV
  Region 1 (Total)                      =      4.72224102 eV
  Region 2a                             =      0.10325717 eV
  Region 2b                             =     -0.43070257 eV
--------------------------------------------------------------------------------
  Total defect energy                   =      4.39479562 eV
--------------------------------------------------------------------------------

  Largest displacement in region 2 =   0.0206 Angstroms

  Final coordinates of region 1 :

--------------------------------------------------------------------------------
   No.  Atomic        x           y           z          Radius      Charge
        Label       (Angs)      (Angs)      (Angs)       (Angs)       (e) 
--------------------------------------------------------------------------------
     1  O     c     2.253894    2.302495    2.353717    0.000000    0.183000
     2  O     c     2.253894    2.247652   -2.315756    0.000000    0.183000
     3  Na    c     2.253894    0.090156    2.163738    0.000000    1.000000
     4  Na    c     4.413630    2.228813    1.790235    0.000000    1.000000
     5  Na    c     0.094158    2.228813    1.790235    0.000000    1.000000
     6  Cl    c     4.650745   -0.113608    0.001595    0.000000    1.485000
     7  Cl    c    -0.142958   -0.113608    0.001595    0.000000    1.485000
     8  Na    c     2.253894    4.458074    1.774648    0.000000    1.000000
     9  Na    c     2.253894    0.088148   -1.743489    0.000000    1.000000
    10  Cl    c     4.631802    4.629174   -0.004587    0.000000    1.485000
    11  Cl    c    -0.124015    4.629174   -0.004587    0.000000    1.485000
    12  Na    c     4.429292    2.270618   -1.829322    0.000000    1.000000
    13  Na    c     0.078495    2.270618   -1.829322    0.000000    1.000000
    14  Na    c     2.253894    4.437391   -1.899458    0.000000    1.000000
    15  Na    c     2.253894    2.552854    4.533736    0.000000    1.000000
    16  Na    c     2.253894   -2.558172    0.003044    0.000000    1.000000
    17  Na    c    -2.597826    2.256758    0.000160    0.000000    1.000000
    18  Na    c     7.105613    2.256758    0.000160    0.000000    1.000000
    19  Na    c     2.253894    7.156734    0.008829    0.000000    1.000000
    20  Na    c     2.253894    2.134232   -4.508990    0.000000    1.000000
    21  O     c     2.253894   -2.226813    2.234848    0.000000    0.183000
    22  O     c    -2.202890    2.254710    2.244471    0.000000    0.183000
    23  O     c     6.710677    2.254710    2.244471    0.000000    0.183000
    24  O     c     2.253894   -2.204733   -2.226258    0.000000    0.183000
    25  O     c     2.253894    6.743703    2.237594    0.000000    0.183000
    26  O     c    -2.213997    2.258089   -2.246341    0.000000    0.183000
    27  O     c     6.721784    2.258089   -2.246341    0.000000    0.183000
    28  O     c     2.253894    6.741074   -2.216992    0.000000    0.183000
    29  Cl    c     4.564656   -0.127889    4.596601    0.000000    1.485000
    30  Cl    c    -0.056868   -0.127889    4.596601    0.000000    1.485000
    31  Na    c     4.506637   -2.166594    2.126893    0.000000    1.000000
    32  Na    c     0.001150   -2.166594    2.126893    0.000000    1.000000
    33  Na    c    -2.267826    0.003482    2.273530    0.000000    1.000000
    34  Na    c     6.775613    0.003482    2.273530    0.000000    1.000000
    35  Cl    c     4.606724    4.604889    4.611946    0.000000    1.485000
    36  Cl    c    -0.098937    4.604889    4.611946    0.000000    1.485000
    37  Na    c     4.507269   -2.219293   -2.165620    0.000000    1.000000
    38  Na    c     0.000518   -2.219293   -2.165620    0.000000    1.000000
    39  Na    c    -2.111810    4.501764    2.274495    0.000000    1.000000
    40  Na    c     6.619597    4.501764    2.274495    0.000000    1.000000
    41  Na    c    -2.164098    0.008339   -2.262784    0.000000    1.000000
    42  Na    c     6.671885    0.008339   -2.262784    0.000000    1.000000
    43  Na    c     4.506689    6.774569    2.173079    0.000000    1.000000
    44  Na    c     0.001098    6.774569    2.173079    0.000000    1.000000
    45  Cl    c     4.617094   -0.087773   -4.613481    0.000000    1.485000
    46  Cl    c    -0.109307   -0.087773   -4.613481    0.000000    1.485000
    47  Na    c    -2.234824    4.506379   -2.282529    0.000000    1.000000
    48  Na    c     6.742611    4.506379   -2.282529    0.000000    1.000000
    49  Na    c     4.506662    6.709903   -2.132439    0.000000    1.000000
    50  Na    c     0.001125    6.709903   -2.132439    0.000000    1.000000
    51  Cl    c     4.591867    4.615889   -4.615109    0.000000    1.485000
    52  Cl    c    -0.084079    4.615889   -4.615109    0.000000    1.485000
    53  Na    c     2.253894   -2.161093    4.489852    0.000000    1.000000
    54  Na    c    -1.783201    2.238409    4.475273    0.000000    1.000000
    55  Na    c     6.290989    2.238409    4.475273    0.000000    1.000000
    56  Na    c    -2.401770   -2.165321    0.002677    0.000000    1.000000
    57  Na    c     6.909557   -2.165321    0.002677    0.000000    1.000000
    58  Na    c     2.253894    6.329634    4.486997    0.000000    1.000000
    59  Na    c     2.253894   -1.811072   -4.470811    0.000000    1.000000
    60  Na    c    -2.391574    6.676992   -0.001936    0.000000    1.000000
    61  Na    c     6.899362    6.676992   -0.001936    0.000000    1.000000
    62  Na    c    -1.820699    2.257272   -4.481298    0.000000    1.000000
    63  Na    c     6.328486    2.257272   -4.481298    0.000000    1.000000
    64  Na    c     2.253894    6.455349   -4.467785    0.000000    1.000000
    65  O     c     2.253894    2.274041    6.812093    0.000000    0.183000
    66  O     c    -2.256542   -2.260611    2.262153    0.000000    0.183000
    67  O     c     6.764329   -2.260611    2.262153    0.000000    0.183000
    68  O     c    -2.261591   -2.251960   -2.256004    0.000000    0.183000
    69  O     c     6.769378   -2.251960   -2.256004    0.000000    0.183000
    70  O     c    -2.260747    6.758750    2.256574    0.000000    0.183000
    71  O     c     6.768534    6.758750    2.256574    0.000000    0.183000
    72  O     c    -2.257981    6.766575   -2.260682    0.000000    0.183000
    73  O     c     6.765768    6.766575   -2.260682    0.000000    0.183000
    74  O     c     2.253894    2.241707   -6.802704    0.000000    0.183000
    75  Na    c     2.253894    0.036196    6.530517    0.000000    1.000000
    76  Na    c     2.253894   -4.485813    2.501237    0.000000    1.000000
    77  Cl    c     4.515520   -4.518805    0.010830    0.000000    1.485000
    78  Cl    c    -0.007733   -4.518805    0.010830    0.000000    1.485000
    79  Na    c     4.503924    2.267908    6.966734    0.000000    1.000000
    80  Na    c     0.003864    2.267908    6.966734    0.000000    1.000000
    81  Na    c     2.253894    4.511050    7.114649    0.000000    1.000000
    82  Na    c     2.253894   -4.457251   -2.608030    0.000000    1.000000
    83  Na    c     8.965381    2.332534    2.618181    0.000000    1.000000
    84  Na    c    -4.457594    2.332534    2.618181    0.000000    1.000000
    85  Cl    c     9.034693   -0.024074   -0.014931    0.000000    1.485000
    86  Cl    c    -4.526906   -0.024074   -0.014931    0.000000    1.485000
    87  Cl    c     9.040192    4.535681    0.015790    0.000000    1.485000
    88  Cl    c    -4.532405    4.535681    0.015790    0.000000    1.485000
    89  Na    c     8.973550    2.215996   -2.616833    0.000000    1.000000
    90  Na    c    -4.465763    2.215996   -2.616833    0.000000    1.000000
    91  Na    c     2.253894    8.982155    2.659716    0.000000    1.000000
    92  Na    c     2.253894    0.003001   -7.009348    0.000000    1.000000
    93  Cl    c     4.536273    9.034225   -0.000507    0.000000    1.485000
    94  Cl    c    -0.028486    9.034225   -0.000507    0.000000    1.485000
    95  Na    c     4.504999    2.241496   -6.934366    0.000000    1.000000
    96  Na    c     0.002788    2.241496   -6.934366    0.000000    1.000000
    97  Na    c     2.253894    8.985887   -2.605364    0.000000    1.000000
    98  Na    c     2.253894    4.486422   -6.749535    0.000000    1.000000
    99  Na    c    -2.049070   -2.328810    4.508151    0.000000    1.000000
   100  Na    c     6.556857   -2.328810    4.508151    0.000000    1.000000
   101  Na    c    -2.165293    6.810713    4.505881    0.000000    1.000000
   102  Na    c     6.673081    6.810713    4.505881    0.000000    1.000000
   103  Na    c    -2.148529   -2.291173   -4.505459    0.000000    1.000000
   104  Na    c     6.656316   -2.291173   -4.505459    0.000000    1.000000
   105  Na    c    -2.083204    6.818920   -4.508410    0.000000    1.000000
   106  Na    c     6.590991    6.818920   -4.508410    0.000000    1.000000
   107  O     c     2.253894   -2.224538    6.754900    0.000000    0.183000
   108  O     c     6.748196    2.248196    6.720482    0.000000    0.183000
   109  O     c    -2.240408    2.248196    6.720482    0.000000    0.183000
   110  O     c     2.253894    6.746748    6.753769    0.000000    0.183000
   111  O     c     2.253894   -2.237791   -6.738094    0.000000    0.183000
   112  O     c     6.753902    2.256278   -6.727156    0.000000    0.183000
   113  O     c    -2.246115    2.256278   -6.727156    0.000000    0.183000
   114  O     c     2.253894    6.743767   -6.736406    0.000000    0.183000
   115  Cl    c     4.496651   -4.548623    4.507932    0.000000    1.485000
   116  Cl    c     0.011136   -4.548623    4.507932    0.000000    1.485000
   117  Na    c     4.503976   -2.172850    6.830312    0.000000    1.000000
   118  Na    c     0.003811   -2.172850    6.830312    0.000000    1.000000
   119  Na    c     6.810284   -0.007017    6.647645    0.000000    1.000000
   120  Na    c    -2.302497   -0.007017    6.647645    0.000000    1.000000
   121  Na    c     6.688115   -4.506255    2.155153    0.000000    1.000000
   122  Na    c    -2.180328   -4.506255    2.155153    0.000000    1.000000
   123  Cl    c     9.074362   -0.017996    4.519494    0.000000    1.485000
   124  Cl    c    -4.566575   -0.017996    4.519494    0.000000    1.485000
   125  Na    c     9.005241   -2.322089    2.437845    0.000000    1.000000
   126  Na    c    -4.497454   -2.322089    2.437845    0.000000    1.000000
   127  Na    c    -2.252517    4.510452    6.669126    0.000000    1.000000
   128  Na    c     6.760304    4.510452    6.669126    0.000000    1.000000
   129  Na    c     6.778724   -4.499529   -2.183767    0.000000    1.000000
   130  Na    c    -2.270937   -4.499529   -2.183767    0.000000    1.000000
   131  Na    c     4.505675    6.728560    6.733508    0.000000    1.000000
   132  Na    c     0.002113    6.728560    6.733508    0.000000    1.000000
   133  Cl    c     4.538215   -4.557935   -4.514982    0.000000    1.485000
   134  Cl    c    -0.030428   -4.557935   -4.514982    0.000000    1.485000
   135  Cl    c     9.065132    4.551997    4.537634    0.000000    1.485000
   136  Cl    c    -4.557345    4.551997    4.537634    0.000000    1.485000
   137  Na    c     9.014073   -2.200450   -2.384222    0.000000    1.000000
   138  Na    c    -4.506286   -2.200450   -2.384222    0.000000    1.000000
   139  Cl    c     4.534856    9.059666    4.523633    0.000000    1.485000
   140  Cl    c    -0.027069    9.059666    4.523633    0.000000    1.485000
   141  Cl    c     9.068043   -0.036717   -4.527830    0.000000    1.485000
   142  Cl    c    -4.560256   -0.036717   -4.527830    0.000000    1.485000
   143  Na    c     4.505196   -2.222602   -6.738189    0.000000    1.000000
   144  Na    c     0.002591   -2.222602   -6.738189    0.000000    1.000000
   145  Na    c     9.014619    6.659125    2.366830    0.000000    1.000000
   146  Na    c    -4.506832    6.659125    2.366830    0.000000    1.000000
   147  Na    c     6.818752    9.007421    2.181972    0.000000    1.000000
   148  Na    c    -2.310965    9.007421    2.181972    0.000000    1.000000
   149  Na    c    -2.257293   -0.004430   -6.679327    0.000000    1.000000
   150  Na    c     6.765080   -0.004430   -6.679327    0.000000    1.000000
   151  Cl    c     9.074149    4.531777   -4.518823    0.000000    1.485000
   152  Cl    c    -4.566362    4.531777   -4.518823    0.000000    1.485000
   153  Na    c     9.009613    6.787126   -2.418020    0.000000    1.000000
   154  Na    c    -4.501826    6.787126   -2.418020    0.000000    1.000000
   155  Na    c     6.732454    9.013612   -2.176182    0.000000    1.000000
   156  Na    c    -2.224667    9.013612   -2.176182    0.000000    1.000000
   157  Na    c    -2.271861    4.514267   -6.667095    0.000000    1.000000
   158  Na    c     6.779648    4.514267   -6.667095    0.000000    1.000000
   159  Cl    c     4.525161    9.065163   -4.513540    0.000000    1.485000
   160  Cl    c    -0.017374    9.065163   -4.513540    0.000000    1.485000
   161  Na    c     4.504477    6.714638   -6.790941    0.000000    1.000000
   162  Na    c     0.003311    6.714638   -6.790941    0.000000    1.000000
   163  Na    c     2.253894    1.976216    9.046744    0.000000    1.000000
   164  Na    c     2.253894   -6.462407   -0.006487    0.000000    1.000000
   165  Na    c    10.924136    2.247570    0.000521    0.000000    1.000000
   166  Na    c    -6.416348    2.247570    0.000521    0.000000    1.000000
   167  Na    c     2.253894   10.938650    0.003089    0.000000    1.000000
   168  Na    c     2.253894    2.388508   -9.049591    0.000000    1.000000
   169  O     c    -2.255480   -2.265533    6.762253    0.000000    0.183000
   170  O     c     6.763267   -2.265533    6.762253    0.000000    0.183000
   171  O     c     2.253894   -6.739396    2.247244    0.000000    0.183000
   172  O     c     2.253894   -6.722208   -2.257977    0.000000    0.183000
   173  O     c     6.766172    6.774006    6.762473    0.000000    0.183000
   174  O     c    -2.258385    6.774006    6.762473    0.000000    0.183000
   175  O     c    11.224386    2.250369    2.249751    0.000000    0.183000
   176  O     c    -6.716598    2.250369    2.249751    0.000000    0.183000
   177  O     c    11.228868    2.256740   -2.248379    0.000000    0.183000
   178  O     c    -6.721081    2.256740   -2.248379    0.000000    0.183000
   179  O     c     6.765863   -2.267105   -6.762490    0.000000    0.183000
   180  O     c    -2.258076   -2.267105   -6.762490    0.000000    0.183000
   181  O     c     2.253894   11.230247    2.256550    0.000000    0.183000
   182  O     c     2.253894   11.237343   -2.250727    0.000000    0.183000
   183  O     c    -2.257483    6.775686   -6.763155    0.000000    0.183000
   184  O     c     6.765270    6.775686   -6.763155    0.000000    0.183000
   185  Na    c     2.253894   -4.489611    6.719375    0.000000    1.000000
   186  Cl    c     4.482342    0.003466    9.047444    0.000000    1.485000
   187  Cl    c     0.025445    0.003466    9.047444    0.000000    1.485000
   188  Na    c     4.503108   -6.767514    2.235703    0.000000    1.000000
   189  Na    c     0.004679   -6.767514    2.235703    0.000000    1.000000
   190  Cl    c     4.523874    4.499518    9.032450    0.000000    1.485000
   191  Cl    c    -0.016087    4.499518    9.032450    0.000000    1.485000
   192  Cl    c     9.013122   -4.537529    0.004427    0.000000    1.485000
   193  Cl    c    -4.505335   -4.537529    0.004427    0.000000    1.485000
   194  Na    c     9.003579    2.280988    6.511914    0.000000    1.000000
   195  Na    c    -4.495792    2.280988    6.511914    0.000000    1.000000
   196  Na    c     4.507680   -6.710724   -2.228338    0.000000    1.000000
   197  Na    c     0.000108   -6.710724   -2.228338    0.000000    1.000000
   198  Na    c    11.160617   -0.002316    2.188423    0.000000    1.000000
   199  Na    c    -6.652830   -0.002316    2.188423    0.000000    1.000000
   200  Na    c     2.253894    9.004054    6.509570    0.000000    1.000000
   201  Na    c     2.253894   -4.492736   -6.511831    0.000000    1.000000
   202  Na    c    11.307974    4.498350    2.187812    0.000000    1.000000
   203  Na    c    -6.800187    4.498350    2.187812    0.000000    1.000000
   204  Na    c    11.272715    0.006239   -2.206011    0.000000    1.000000
   205  Na    c    -6.764928    0.006239   -2.206011    0.000000    1.000000
   206  Na    c    11.201712    4.508508   -2.172803    0.000000    1.000000
   207  Na    c    -6.693925    4.508508   -2.172803    0.000000    1.000000
   208  Na    c     4.510584   11.211597    2.218545    0.000000    1.000000
   209  Na    c    -0.002797   11.211597    2.218545    0.000000    1.000000
   210  Cl    c     9.012225    9.046184   -0.004143    0.000000    1.485000
   211  Cl    c    -4.504437    9.046184   -0.004143    0.000000    1.485000
   212  Cl    c     4.498434    0.014871   -9.026881    0.000000    1.485000
   213  Cl    c     0.009353    0.014871   -9.026881    0.000000    1.485000
   214  Na    c     9.006399    2.241349   -6.527727    0.000000    1.000000
   215  Na    c    -4.498612    2.241349   -6.527727    0.000000    1.000000
   216  Na    c     4.505275   11.248834   -2.224799    0.000000    1.000000
   217  Na    c     0.002512   11.248834   -2.224799    0.000000    1.000000
   218  Cl    c     4.466413    4.497113   -9.026302    0.000000    1.485000
   219  Cl    c     0.041375    4.497113   -9.026302    0.000000    1.485000
   220  Na    c     2.253894    9.001602   -6.594415    0.000000    1.000000
   221  Na    c     2.253894   -2.150462    9.009594    0.000000    1.000000
   222  Na    c     2.253894   -6.863812    4.503920    0.000000    1.000000
   223  Na    c    -2.401534    2.251042    8.989319    0.000000    1.000000
   224  Na    c     6.909322    2.251042    8.989319    0.000000    1.000000
   225  Na    c    -2.313955   -6.804096   -0.000655    0.000000    1.000000
   226  Na    c     6.821742   -6.804096   -0.000655    0.000000    1.000000
   227  Na    c     2.253894    6.982808    9.006125    0.000000    1.000000
   228  Na    c    11.479019    2.219107    4.490140    0.000000    1.000000
   229  Na    c    -6.971232    2.219107    4.490140    0.000000    1.000000
   230  Na    c    11.163636   -2.315295    0.003914    0.000000    1.000000
   231  Na    c    -6.655848   -2.315295    0.003914    0.000000    1.000000
   232  Na    c     2.253894   -6.966645   -4.494363    0.000000    1.000000
   233  Na    c     2.253894   11.503253    4.492012    0.000000    1.000000
   234  Na    c    11.478947    2.288786   -4.490190    0.000000    1.000000
   235  Na    c    -6.971160    2.288786   -4.490190    0.000000    1.000000
   236  Na    c    11.172050    6.838217   -0.002530    0.000000    1.000000
   237  Na    c    -6.664262    6.838217   -0.002530    0.000000    1.000000
   238  Na    c     2.253894   -2.422056   -9.000017    0.000000    1.000000
   239  Na    c    -2.317680   11.300501    0.000110    0.000000    1.000000
   240  Na    c     6.825467   11.300501    0.000110    0.000000    1.000000
   241  Na    c    -2.388258    2.252308   -8.991959    0.000000    1.000000
   242  Na    c     6.896045    2.252308   -8.991959    0.000000    1.000000
   243  Na    c     2.253894   11.454231   -4.496628    0.000000    1.000000
   244  Na    c     2.253894    6.779923   -9.001476    0.000000    1.000000
   245  O     c    -2.250063   -6.762163    2.244709    0.000000    0.183000
   246  O     c     6.757850   -6.762163    2.244709    0.000000    0.183000
   247  O     c    11.263210   -2.257455    2.261861    0.000000    0.183000
   248  O     c    -6.755423   -2.257455    2.261861    0.000000    0.183000
   249  O     c    -2.256262   -6.760621   -2.244453    0.000000    0.183000
   250  O     c     6.764050   -6.760621   -2.244453    0.000000    0.183000
   251  O     c    11.268838   -2.249936   -2.254448    0.000000    0.183000
   252  O     c    -6.761051   -2.249936   -2.254448    0.000000    0.183000
   253  O     c    11.269287    6.754084    2.253865    0.000000    0.183000
   254  O     c    -6.761500    6.754084    2.253865    0.000000    0.183000
   255  O     c    -2.259822   11.268922    2.244773    0.000000    0.183000
   256  O     c     6.767610   11.268922    2.244773    0.000000    0.183000
   257  O     c    11.266363    6.763765   -2.258863    0.000000    0.183000
   258  O     c    -6.758575    6.763765   -2.258863    0.000000    0.183000
   259  O     c    -2.253082   11.271183   -2.244567    0.000000    0.183000
   260  O     c     6.760869   11.271183   -2.244567    0.000000    0.183000
   261  Na    c     6.714532   -4.510255    6.833657    0.000000    1.000000
   262  Na    c    -2.206745   -4.510255    6.833657    0.000000    1.000000
   263  Cl    c     9.060460   -4.528639    4.513154    0.000000    1.485000
   264  Cl    c    -4.552673   -4.528639    4.513154    0.000000    1.485000
   265  Na    c     9.011096   -2.330697    6.647250    0.000000    1.000000
   266  Na    c    -4.503308   -2.330697    6.647250    0.000000    1.000000
   267  Cl    c     9.049247   -4.523430   -4.509392    0.000000    1.485000
   268  Cl    c    -4.541460   -4.523430   -4.509392    0.000000    1.485000
   269  Na    c     9.014200    6.779281    6.721522    0.000000    1.000000
   270  Na    c    -4.506412    6.779281    6.721522    0.000000    1.000000
   271  Na    c     6.773884    9.016535    6.795235    0.000000    1.000000
   272  Na    c    -2.266097    9.016535    6.795235    0.000000    1.000000
   273  Na    c     6.768024   -4.509547   -6.790359    0.000000    1.000000
   274  Na    c    -2.260237   -4.509547   -6.790359    0.000000    1.000000
   275  Cl    c     9.041809    9.036571    4.509971    0.000000    1.485000
[...]
    234 y          2.253894      2.254721     0.000827    Cartesian    0.04
    234 z          2.253894      2.244492    -0.009402    Cartesian   -0.42
    235 x          2.253894      2.253894     0.000000    Cartesian    0.00
    235 y         -2.253894     -2.204800     0.049094    Cartesian   -2.18
    235 z         -2.253894     -2.226208     0.027685    Cartesian   -1.23
    236 x          2.253894      2.253894     0.000000    Cartesian    0.00
    236 y          6.761681      6.743778    -0.017903    Cartesian   -0.26
    236 z          2.253894      2.237554    -0.016339    Cartesian   -0.72
    237 x         -2.253894     -2.214040     0.039854    Cartesian   -1.77
    237 y          2.253894      2.258086     0.004192    Cartesian    0.19
    237 z         -2.253894     -2.246365     0.007528    Cartesian   -0.33
    238 x          2.253894      2.253894     0.000000    Cartesian    0.00
    238 y          6.761681      6.741136    -0.020545    Cartesian   -0.30
    238 z         -2.253894     -2.216980     0.036914    Cartesian   -1.64
    239 x          4.507787      4.576810     0.069023    Cartesian    1.53
    239 y          0.000000     -0.138725    -0.138725    Cartesian    0.00
    239 z          4.507787      4.609994     0.102206    Cartesian    2.27
    240 x          4.507787      4.619243     0.111456    Cartesian    2.47
    240 y          4.507787      4.612431     0.104644    Cartesian    2.32
    240 z          4.507787      4.621970     0.114183    Cartesian    2.53
    241 x          4.507787      4.631980     0.124193    Cartesian    2.76
    241 y          0.000000     -0.097145    -0.097145    Cartesian    0.00
    241 z         -4.507787     -4.624617    -0.116830    Cartesian    2.59
    242 x          4.507787      4.606673     0.098885    Cartesian    2.19
    242 y          4.507787      4.627732     0.119944    Cartesian    2.66
    242 z         -4.507787     -4.628295    -0.120508    Cartesian    2.67
    243 x          2.253894      2.253894     0.000000    Cartesian    0.00
    243 y          2.253894      2.274026     0.020132    Cartesian    0.89
    243 z          6.761681      6.812199     0.050518    Cartesian    0.75
    244 x         -2.253894     -2.256538    -0.002644    Cartesian    0.12
    244 y         -2.253894     -2.260620    -0.006726    Cartesian    0.30
    244 z          2.253894      2.262156     0.008262    Cartesian    0.37
    245 x         -2.253894     -2.261599    -0.007705    Cartesian    0.34
    245 y         -2.253894     -2.251955     0.001938    Cartesian   -0.09
    245 z         -2.253894     -2.256016    -0.002122    Cartesian    0.09
    246 x         -2.253894     -2.260752    -0.006858    Cartesian    0.30
    246 y          6.761681      6.758745    -0.002936    Cartesian   -0.04
    246 z          2.253894      2.256585     0.002691    Cartesian    0.12
    247 x         -2.253894     -2.257981    -0.004087    Cartesian    0.18
    247 y          6.761681      6.766577     0.004897    Cartesian    0.07
    247 z         -2.253894     -2.260689    -0.006795    Cartesian    0.30
    248 x          2.253894      2.253894     0.000000    Cartesian    0.00
    248 y          2.253894      2.241722    -0.012172    Cartesian   -0.54
    248 z         -6.761681     -6.802831    -0.041151    Cartesian    0.61
    249 x          4.507787      4.510076     0.002289    Cartesian    0.05
    249 y         -4.507787     -4.520483    -0.012696    Cartesian    0.28
    249 z          0.000000      0.013138     0.013138    Cartesian    0.00
    250 x          9.015574      9.037719     0.022145    Cartesian    0.25
    250 y          0.000000     -0.019622    -0.019622    Cartesian    0.00
    250 z          0.000000     -0.014501    -0.014501    Cartesian    0.00
    251 x          9.015574      9.043654     0.028080    Cartesian    0.31
    251 y          4.507787      4.532041     0.024254    Cartesian    0.54
    251 z          0.000000      0.016035     0.016035    Cartesian    0.00
    252 x          4.507787      4.528823     0.021036    Cartesian    0.47
    252 y          9.015574      9.035480     0.019906    Cartesian    0.22
    252 z          0.000000     -0.001073    -0.001073    Cartesian    0.00
    253 x          2.253894      2.253894     0.000000    Cartesian    0.00
    253 y         -2.253894     -2.224506     0.029388    Cartesian   -1.30
    253 z          6.761681      6.754896    -0.006784    Cartesian   -0.10
    254 x          6.761681      6.748156    -0.013525    Cartesian   -0.20
    254 y          2.253894      2.248197    -0.005696    Cartesian   -0.25
    254 z          6.761681      6.720494    -0.041187    Cartesian   -0.61
    255 x          2.253894      2.253894     0.000000    Cartesian    0.00
    255 y          6.761681      6.746716    -0.014965    Cartesian   -0.22
    255 z          6.761681      6.753834    -0.007847    Cartesian   -0.12
    256 x          2.253894      2.253894     0.000000    Cartesian    0.00
    256 y         -2.253894     -2.237744     0.016150    Cartesian   -0.72
    256 z         -6.761681     -6.738152     0.023529    Cartesian   -0.35
    257 x          6.761681      6.753862    -0.007818    Cartesian   -0.12
    257 y          2.253894      2.256275     0.002382    Cartesian    0.11
    257 z         -6.761681     -6.727165     0.034516    Cartesian   -0.51
    258 x          2.253894      2.253894     0.000000    Cartesian    0.00
    258 y          6.761681      6.743711    -0.017970    Cartesian   -0.27
    258 z         -6.761681     -6.736432     0.025249    Cartesian   -0.37
    259 x          4.507787      4.496776    -0.011011    Cartesian   -0.24
    259 y         -4.507787     -4.550989    -0.043202    Cartesian    0.96
    259 z          4.507787      4.505810    -0.001977    Cartesian   -0.04
    260 x          9.015574      9.080493     0.064919    Cartesian    0.72
    260 y          0.000000     -0.015800    -0.015800    Cartesian    0.00
    260 z          4.507787      4.520858     0.013071    Cartesian    0.29
    261 x          4.507787      4.536192     0.028405    Cartesian    0.63
    261 y         -4.507787     -4.563506    -0.055719    Cartesian    1.24
    261 z         -4.507787     -4.515581    -0.007794    Cartesian    0.17
    262 x          9.015574      9.070111     0.054537    Cartesian    0.60
    262 y          4.507787      4.549914     0.042127    Cartesian    0.93
    262 z          4.507787      4.537758     0.029971    Cartesian    0.66
    263 x          4.507787      4.530669     0.022882    Cartesian    0.51
    263 y          9.015574      9.064173     0.048598    Cartesian    0.54
    263 z          4.507787      4.523999     0.016212    Cartesian    0.36
    264 x          9.015574      9.073438     0.057863    Cartesian    0.64
    264 y          0.000000     -0.034917    -0.034917    Cartesian    0.00
    264 z         -4.507787     -4.527412    -0.019625    Cartesian    0.44
    265 x          9.015574      9.080185     0.064610    Cartesian    0.72
    265 y          4.507787      4.529985     0.022198    Cartesian    0.49
    265 z         -4.507787     -4.519014    -0.011226    Cartesian    0.25
    266 x          4.507787      4.524537     0.016750    Cartesian    0.37
    266 y          9.015574      9.069262     0.053687    Cartesian    0.60
    266 z         -4.507787     -4.512415    -0.004628    Cartesian    0.10
    267 x         -2.253894     -2.255470    -0.001577    Cartesian    0.07
    267 y         -2.253894     -2.265550    -0.011656    Cartesian    0.52
    267 z          6.761681      6.762256     0.000576    Cartesian    0.01
    268 x          2.253894      2.253894     0.000000    Cartesian    0.00
    268 y         -6.761681     -6.739389     0.022292    Cartesian   -0.33
    268 z          2.253894      2.247279    -0.006614    Cartesian   -0.29
    269 x          2.253894      2.253894     0.000000    Cartesian    0.00
    269 y         -6.761681     -6.722226     0.039455    Cartesian   -0.58
    269 z         -2.253894     -2.258017    -0.004123    Cartesian    0.18
    270 x          6.761681      6.766174     0.004493    Cartesian    0.07
    270 y          6.761681      6.774025     0.012344    Cartesian    0.18
    270 z          6.761681      6.762463     0.000783    Cartesian    0.01
    271 x         11.269468     11.224398    -0.045070    Cartesian   -0.40
    271 y          2.253894      2.250375    -0.003519    Cartesian   -0.16
    271 z          2.253894      2.249778    -0.004116    Cartesian   -0.18
    272 x         11.269468     11.228877    -0.040591    Cartesian   -0.36
    272 y          2.253894      2.256737     0.002844    Cartesian    0.13
    272 z         -2.253894     -2.248407     0.005486    Cartesian   -0.24
    273 x          6.761681      6.765863     0.004182    Cartesian    0.06
    273 y         -2.253894     -2.267124    -0.013230    Cartesian    0.59
    273 z         -6.761681     -6.762482    -0.000801    Cartesian    0.01
    274 x          2.253894      2.253894     0.000000    Cartesian    0.00
    274 y         11.269468     11.230255    -0.039213    Cartesian   -0.35
    274 z          2.253894      2.256598     0.002705    Cartesian    0.12
    275 x          2.253894      2.253894     0.000000    Cartesian    0.00
    275 y         11.269468     11.237349    -0.032119    Cartesian   -0.29
    275 z         -2.253894     -2.250773     0.003121    Cartesian   -0.14
    276 x         -2.253894     -2.257476    -0.003582    Cartesian    0.16
    276 y          6.761681      6.775708     0.014027    Cartesian    0.21
    276 z         -6.761681     -6.763153    -0.001472    Cartesian    0.02
    277 x          4.507787      4.473244    -0.034543    Cartesian   -0.77
    277 y          0.000000      0.007018     0.007018    Cartesian    0.00
    277 z          9.015574      9.048016     0.032442    Cartesian    0.36
    278 x          4.507787      4.519385     0.011598    Cartesian    0.26
    278 y          4.507787      4.496634    -0.011154    Cartesian   -0.25
    278 z          9.015574      9.028543     0.012968    Cartesian    0.14
    279 x          9.015574      9.012521    -0.003053    Cartesian   -0.03
    279 y         -4.507787     -4.540019    -0.032232    Cartesian    0.72
    279 z          0.000000      0.004323     0.004323    Cartesian    0.00
    280 x          9.015574      9.010694    -0.004880    Cartesian   -0.05
    280 y          9.015574      9.048810     0.033235    Cartesian    0.37
    280 z          0.000000     -0.003663    -0.003663    Cartesian    0.00
    281 x          4.507787      4.493374    -0.014413    Cartesian   -0.32
    281 y          0.000000      0.018410     0.018410    Cartesian    0.00
    281 z         -9.015574     -9.023739    -0.008165    Cartesian    0.09
    282 x          4.507787      4.458683    -0.049105    Cartesian   -1.09
    282 y          4.507787      4.493154    -0.014633    Cartesian   -0.32
    282 z         -9.015574     -9.025031    -0.009456    Cartesian    0.10
    283 x         -2.253894     -2.250060     0.003834    Cartesian   -0.17
    283 y         -6.761681     -6.762164    -0.000483    Cartesian    0.01
    283 z          2.253894      2.244683    -0.009210    Cartesian   -0.41
    284 x         11.269468     11.263201    -0.006267    Cartesian   -0.06
    284 y         -2.253894     -2.257472    -0.003578    Cartesian    0.16
    284 z          2.253894      2.261891     0.007997    Cartesian    0.35
    285 x         -2.253894     -2.256274    -0.002380    Cartesian    0.11
    285 y         -6.761681     -6.760622     0.001059    Cartesian   -0.02
    285 z         -2.253894     -2.244431     0.009462    Cartesian   -0.42
    286 x         11.269468     11.268831    -0.000637    Cartesian   -0.01
    286 y         -2.253894     -2.249938     0.003956    Cartesian   -0.18
    286 z         -2.253894     -2.254473    -0.000580    Cartesian    0.03
    287 x         11.269468     11.269284    -0.000184    Cartesian   -0.00
    287 y          6.761681      6.754080    -0.007601    Cartesian   -0.11
    287 z          2.253894      2.253885    -0.000009    Cartesian   -0.00
    288 x         -2.253894     -2.259842    -0.005948    Cartesian    0.26
    288 y         11.269468     11.268924    -0.000545    Cartesian   -0.00
    288 z          2.253894      2.244750    -0.009143    Cartesian   -0.41
    289 x         11.269468     11.266355    -0.003113    Cartesian   -0.03
    289 y          6.761681      6.763777     0.002096    Cartesian    0.03
    289 z         -2.253894     -2.258888    -0.004994    Cartesian    0.22
    290 x         -2.253894     -2.253086     0.000808    Cartesian   -0.04
    290 y         11.269468     11.271182     0.001714    Cartesian    0.02
    290 z         -2.253894     -2.244543     0.009350    Cartesian   -0.41
    291 x          9.015574      9.066216     0.050642    Cartesian    0.56
    291 y         -4.507787     -4.527316    -0.019529    Cartesian    0.43
    291 z          4.507787      4.511875     0.004088    Cartesian    0.09
    292 x          9.015574      9.053291     0.037717    Cartesian    0.42
    292 y         -4.507787     -4.524787    -0.017000    Cartesian    0.38
    292 z         -4.507787     -4.508848    -0.001061    Cartesian    0.02
    293 x          9.015574      9.044932     0.029358    Cartesian    0.33
    293 y          9.015574      9.038995     0.023421    Cartesian    0.26
    293 z          4.507787      4.509601     0.001814    Cartesian    0.04
    294 x          9.015574      9.058395     0.042820    Cartesian    0.47
    294 y          9.015574      9.034390     0.018815    Cartesian    0.21
    294 z         -4.507787     -4.507049     0.000739    Cartesian   -0.02
    295 x          2.253894      2.253894     0.000000    Cartesian    0.00
    295 y         -6.761681     -6.765035    -0.003354    Cartesian    0.05
    295 z          6.761681      6.758225    -0.003455    Cartesian   -0.05
    296 x          2.253894      2.253894     0.000000    Cartesian    0.00
    296 y          2.253894      2.235154    -0.018739    Cartesian   -0.83
    296 z         11.269468     11.272759     0.003291    Cartesian    0.03
    297 x         11.269468     11.269355    -0.000113    Cartesian   -0.00
    297 y          2.253894      2.252062    -0.001831    Cartesian   -0.08
    297 z          6.761681      6.745007    -0.016674    Cartesian   -0.25
    298 x          2.253894      2.253894     0.000000    Cartesian    0.00
    298 y         -6.761681     -6.764425    -0.002744    Cartesian    0.04
    298 z         -6.761681     -6.742352     0.019329    Cartesian   -0.29
    299 x          2.253894      2.253894     0.000000    Cartesian    0.00
    299 y         11.269468     11.274593     0.005125    Cartesian    0.05
    299 z          6.761681      6.739307    -0.022374    Cartesian   -0.33
    300 x         11.269468     11.271517     0.002049    Cartesian    0.02
    300 y          2.253894      2.256816     0.002922    Cartesian    0.13
    300 z         -6.761681     -6.745340     0.016341    Cartesian   -0.24
    301 x          2.253894      2.253894     0.000000    Cartesian    0.00
    301 y          2.253894      2.261601     0.007707    Cartesian    0.34
    301 z        -11.269468    -11.277683    -0.008215    Cartesian    0.07
    302 x          4.507787      4.542206     0.034419    Cartesian    0.76
    302 y         -4.507787     -4.545519    -0.037732    Cartesian    0.84
    302 z          9.015574      9.024921     0.009347    Cartesian    0.10
    303 x          2.253894      2.253894     0.000000    Cartesian    0.00
    303 y         11.269468     11.275074     0.005606    Cartesian    0.05
    303 z         -6.761681     -6.747431     0.014250    Cartesian   -0.21
    304 x          4.507787      4.509702     0.001914    Cartesian    0.04
    304 y         -9.015574     -9.080292    -0.064718    Cartesian    0.72
    304 z          0.000000      0.002221     0.002221    Cartesian    0.00
    305 x          9.015574      9.021200     0.005626    Cartesian    0.06
    305 y          0.000000     -0.006845    -0.006845    Cartesian    0.00
    305 z          9.015574      9.080494     0.064919    Cartesian    0.72
    306 x          9.015574      9.023599     0.008025    Cartesian    0.09
    306 y          4.507787      4.512874     0.005086    Cartesian    0.11
    306 z          9.015574      9.063147     0.047572    Cartesian    0.53
    307 x          4.507787      4.503246    -0.004541    Cartesian   -0.10
    307 y          9.015574      9.034928     0.019353    Cartesian    0.21
    307 z          9.015574      9.065607     0.050033    Cartesian    0.55
    308 x         13.523362     13.600618     0.077257    Cartesian    0.57
    308 y          0.000000      0.035987     0.035987    Cartesian    0.00
    308 z          0.000000     -0.007228    -0.007228    Cartesian    0.00
    309 x         13.523362     13.589484     0.066123    Cartesian    0.49
    309 y          4.507787      4.475542    -0.032245    Cartesian   -0.72
    309 z          0.000000      0.008867     0.008867    Cartesian    0.00
    310 x          4.507787      4.515083     0.007296    Cartesian    0.16
    310 y         -4.507787     -4.522779    -0.014991    Cartesian    0.33
    310 z         -9.015574     -9.061349    -0.045775    Cartesian    0.51
    311 x          9.015574      9.022257     0.006683    Cartesian    0.07
    311 y          0.000000     -0.006675    -0.006675    Cartesian    0.00
    311 z         -9.015574     -9.065148    -0.049574    Cartesian    0.55
    312 x          4.507787      4.500715    -0.007072    Cartesian   -0.16
    312 y         13.523362     13.592572     0.069211    Cartesian    0.51
    312 z          0.000000     -0.002777    -0.002777    Cartesian    0.00
    313 x          9.015574      9.027000     0.011426    Cartesian    0.13
    313 y          4.507787      4.516608     0.008821    Cartesian    0.20
    313 z         -9.015574     -9.075022    -0.059447    Cartesian    0.66
    314 x          4.507787      4.536263     0.028475    Cartesian    0.63
    314 y          9.015574      9.039640     0.024065    Cartesian    0.27
    314 z         -9.015574     -9.041325    -0.025751    Cartesian    0.29
--------------------------------------------------------------------------------


  Time to end of optimisation  =       49.9683 seconds


  Peak dynamic memory used =      90.16 MB 


  Timing analysis for GULP :

--------------------------------------------------------------------------------
  Task / Subroutine                                          Time (Seconds)
--------------------------------------------------------------------------------
  Calculation of reciprocal space energy and derivatives          0.0007
  Calculation of reciprocal space energy using symmetry           0.0010
  Calculation of real space energy and derivatives                0.0040
  Calculation of real space energy using symmetry                 0.0096
  Calculation for region 1 energy and derivatives (2-b)          27.4375
  Calculation for region 2a energy                               20.3039
  Calculation for region 2b energy                                0.0078
  Calculation and manipulation of Hessian matrix                  0.1153
  Calculation of matrix inversion                                 1.8618
  Symmetry generation of equivalent positions                     0.0047
--------------------------------------------------------------------------------
  Total CPU time                                                 49.9684
--------------------------------------------------------------------------------


  Dump file written as Na3OCl.grs


  Job Finished at 10:44.38  4th December   2020                               

