********************************************************************************
*                       GENERAL UTILITY LATTICE PROGRAM                        *
*                                 Julian Gale                                  *
*                       Curtin Institute for Computation                       *
*                    School of Molecular and Life Sciences                     *
*                    Curtin University, Western Australia                      *
********************************************************************************
* Version = 5.2.0 * Last modified =  10th September 2020                       *
********************************************************************************
*  optimise     - perform optimisation run                                     *
*  conp         - constant pressure calculation                                *
*  property     - calculate properties for final geometry                      *
*  defect       - perform defect calculation after bulk run                    *
*  compare      - compare initial and final structures                         *
********************************************************************************

  Job Started  at 10:44.28  4th December   2020                               

  Number of CPUs =     1


  Total number of configurations input =      1

********************************************************************************
*  Input for Configuration =   1                                               *
********************************************************************************

  Formula = ClONa3                                                      

  Number of irreducible atoms/shells =       5


  Total number atoms/shells =       7

  Dimensionality = 3               :  Bulk   


  Symmetry :

  Crystal family                   :  Cubic       
  Crystal class  (Groth - 1921)    :  Cubic Hexakisoctahedral              

  Space group (centrosymmetric)    :  P M 3 M         

  Patterson group                  :  P m -3 m 

  Cartesian lattice vectors (Angstroms) :

        4.504000    0.000000    0.000000
        0.000000    4.504000    0.000000
        0.000000    0.000000    4.504000

  Cell parameters (Angstroms/Degrees):

  a =       4.5040    alpha =  90.0000
  b =       4.5040    beta  =  90.0000
  c =       4.5040    gamma =  90.0000

  Initial cell volume =          91.368216 Angs**3

  Temperature of configuration =   0.00     K 

  Pressure of configuration =         0.000 GPa 

  Fractional coordinates of asymmetric unit :

--------------------------------------------------------------------------------
   No.  Atomic       x           y          z         Charge      Occupancy
        Label      (Frac)      (Frac)     (Frac)        (e)         (Frac)  
--------------------------------------------------------------------------------
      1 Cl    c    0.000000    0.000000    0.000000     1.48500    1.000000    
      2 O     c    0.500000    0.500000    0.500000     0.18300    1.000000    
      3 Na    c    0.500000    0.500000    0.000000     1.00000    1.000000    
      4 Cl    s    0.000000    0.000000    0.000000    -2.48500    1.000000    
      5 O     s    0.500000    0.500000    0.500000    -2.18300    1.000000    
--------------------------------------------------------------------------------


  Constraints : 

--------------------------------------------------------------------------------
  Constraint no.      Unconstrained     Constrained    Coefficient    Offset
                         Variable         Variable
--------------------------------------------------------------------------------
           1              Strain 1        Strain 2       1.00000      0.0000
           2              Strain 1        Strain 3       1.00000      0.0000
--------------------------------------------------------------------------------


********************************************************************************
*  General input information                                                   *
********************************************************************************

  Species output for all configurations : 

--------------------------------------------------------------------------------
  Species    Type    Atomic    Atomic    Charge       Radii (Angs)     Library
                     Number     Mass       (e)     Cova   Ionic  VDW   Symbol
--------------------------------------------------------------------------------
    Na       Core       11      22.99   1.000000   0.970  0.000  2.300          
    O        Core        8      16.00   0.183000   0.730  0.000  1.360          
    O        Shell       8       0.00  -2.183000   0.730  0.000  1.360          
    Cl       Core       17      35.45   1.485000   0.990  0.000  1.650          
    Cl       Shell      17       0.00  -2.485000   0.990  0.000  1.650          
    Mg       Core       12      24.31   0.415000   1.100  0.000  0.000          
    Mg       Shell      12       0.00   1.585000   1.100  0.000  0.000          
    Ca       Core       20      40.08  -1.135000   0.990  0.000  0.000          
    Ca       Shell      20       0.00   3.135000   0.990  0.000  0.000          
    Sr       Core       38      87.62  -1.251000   1.120  0.000  0.000          
    Sr       Shell      38       0.00   3.251000   1.120  0.000  0.000          
    Ba       Core       56     137.33  -7.203000   1.340  0.000  0.000          
    Ba       Shell      56       0.00   9.203000   1.340  0.000  0.000          
--------------------------------------------------------------------------------


  Lattice summation method               =    Ewald          (3-D)
                                         =    Parry          (2-D)
                                         =    Saunders et al (1-D)
  Accuracy factor for lattice sums       =   12.000


  Analytic derivatives to be used

  Time limit = Infinity

  Maximum range for interatomic potentials =    100000.000000 Angstroms

  General interatomic potentials :

--------------------------------------------------------------------------------
Atom  Types   Potential      Parameter       Value         Units   Cutoffs(Ang)
  1     2                                                            Min /  Max 
--------------------------------------------------------------------------------
O    c O    s Spring (c-s)  Spring k 2       593.71600    eV*Ang^-2 0.000  0.800
                            Spring k 4       0.0000000    eV*Ang^-4 
--------------------------------------------------------------------------------
Cl   c Cl   s Spring (c-s)  Spring k 2       29.380000    eV*Ang^-2 0.000  0.800
                            Spring k 4       0.0000000    eV*Ang^-4 
--------------------------------------------------------------------------------
Mg   c Mg   s Spring (c-s)  Spring k 2       361.60000    eV*Ang^-2 0.000  0.800
                            Spring k 4       0.0000000    eV*Ang^-4 
--------------------------------------------------------------------------------
Ca   c Ca   s Spring (c-s)  Spring k 2       110.20000    eV*Ang^-2 0.000  0.800
                            Spring k 4       0.0000000    eV*Ang^-4 
--------------------------------------------------------------------------------
Sr   c Sr   s Spring (c-s)  Spring k 2       71.700000    eV*Ang^-2 0.000  0.800
                            Spring k 4       0.0000000    eV*Ang^-4 
--------------------------------------------------------------------------------
Ba   c Ba   s Spring (c-s)  Spring k 2       495.20000    eV*Ang^-2 0.000  0.800
                            Spring k 4       0.0000000    eV*Ang^-4 
--------------------------------------------------------------------------------
Na   c Na   c Buckingham    Buckingham A     1788.1900    eV        0.000 12.000
                            Buckingham rho  0.15900000    Ang       
                            Buckingham C     0.0000000    eV*Ang^6  
--------------------------------------------------------------------------------
Na   c O    s Buckingham    Buckingham A     1226.8400    eV        0.000 12.000
                            Buckingham rho  0.30700000    Ang       
                            Buckingham C     0.0000000    eV*Ang^6  
--------------------------------------------------------------------------------
Na   c Cl   s Buckingham    Buckingham A     2314.7000    eV        0.000 12.000
                            Buckingham rho  0.29000000    Ang       
                            Buckingham C     0.0000000    eV*Ang^6  
--------------------------------------------------------------------------------
O    s O    s Buckingham    Buckingham A     22764.300    eV        0.000 12.000
                            Buckingham rho  0.14900000    Ang       
                            Buckingham C     13.190000    eV*Ang^6  
--------------------------------------------------------------------------------
O    s Cl   s Buckingham    Buckingham A     8286.9100    eV        0.000 12.000
                            Buckingham rho  0.25900000    Ang       
                            Buckingham C     62.200000    eV*Ang^6  
--------------------------------------------------------------------------------
Cl   s Cl   s Buckingham    Buckingham A     1227.2000    eV        0.000 12.000
                            Buckingham rho  0.32100000    Ang       
                            Buckingham C     14.530000    eV*Ang^6  
--------------------------------------------------------------------------------
O    s Mg   s Buckingham    Buckingham A     1428.5000    eV        0.000 12.000
                            Buckingham rho  0.29450000    Ang       
                            Buckingham C     0.0000000    eV*Ang^6  
--------------------------------------------------------------------------------
Mg   s Cl   s Buckingham    Buckingham A     4914.5400    eV        0.000 12.000
                            Buckingham rho  0.25700000    Ang       
                            Buckingham C     0.0000000    eV*Ang^6  
--------------------------------------------------------------------------------
O    s Ca   s Buckingham    Buckingham A     1090.4000    eV        0.000 12.000
                            Buckingham rho  0.34370000    Ang       
                            Buckingham C     0.0000000    eV*Ang^6  
--------------------------------------------------------------------------------
Cl   s Ca   s Buckingham    Buckingham A     2302.0000    eV        0.000 12.000
                            Buckingham rho  0.34020000    Ang       
                            Buckingham C     0.0000000    eV*Ang^6  
--------------------------------------------------------------------------------
O    s Sr   s Buckingham    Buckingham A     959.10000    eV        0.000 12.000
                            Buckingham rho  0.37210000    Ang       
                            Buckingham C     0.0000000    eV*Ang^6  
--------------------------------------------------------------------------------
Cl   s Sr   s Buckingham    Buckingham A     2191.0900    eV        0.000 12.000
                            Buckingham rho  0.34570000    Ang       
                            Buckingham C     0.0000000    eV*Ang^6  
--------------------------------------------------------------------------------
O    s Ba   s Buckingham    Buckingham A     905.70000    eV        0.000 12.000
                            Buckingham rho  0.39760000    Ang       
                            Buckingham C     0.0000000    eV*Ang^6  
--------------------------------------------------------------------------------
Cl   s Ba   s Buckingham    Buckingham A     2704.5500    eV        0.000 12.000
                            Buckingham rho  0.35280000    Ang       
                            Buckingham C     0.0000000    eV*Ang^6  
--------------------------------------------------------------------------------

********************************************************************************
*  Output for configuration   1                                                *
********************************************************************************


  Components of energy : 

--------------------------------------------------------------------------------
  Interatomic potentials     =           5.13022605 eV    
  Monopole - monopole (real) =         -10.03624526 eV    
  Monopole - monopole (recip)=         -29.53581274 eV    
  Monopole - monopole (total)=         -39.57205800 eV    
--------------------------------------------------------------------------------
  Total lattice energy       =         -34.44183194 eV    
--------------------------------------------------------------------------------
  Total lattice energy       =           -3323.1103 kJ/(mole unit cells)
--------------------------------------------------------------------------------


  Number of variables =        1

  Maximum number of calculations  =          1000
  Maximum Hessian update interval =            10
  Maximum step size               =   1.000000000
  Maximum parameter tolerance     =   0.000010000
  Maximum function  tolerance     =   0.000010000
  Maximum gradient  tolerance     =   0.001000000
  Maximum gradient  component     =   0.010000000

  Symmetry constrained optimisation

  Symmetry used for second derivatives

  Cell parameters to be optimised using strains

  Newton-Raphson optimiser to be used

  BFGS hessian update to be used

  Lower half triangular hessian to be used

  Start of bulk optimisation :

  Cycle:      0 Energy:       -34.441832  Gnorm:      0.196570  CPU:    0.014
  ** Hessian calculated **
  Cycle:      1 Energy:       -34.441914  Gnorm:      0.000103  CPU:    0.018


  **** Optimisation achieved ****


  Final energy =     -34.44191447 eV
  Final Gnorm  =       0.00000000

  Components of energy : 

--------------------------------------------------------------------------------
  Interatomic potentials     =           5.09689708 eV    
  Monopole - monopole (real) =         -10.02781331 eV    
  Monopole - monopole (recip)=         -29.51099824 eV    
  Monopole - monopole (total)=         -39.53881155 eV    
--------------------------------------------------------------------------------
  Total lattice energy       =         -34.44191447 eV    
--------------------------------------------------------------------------------
  Total lattice energy       =           -3323.1183 kJ/(mole unit cells)
--------------------------------------------------------------------------------

  Final asymmetric unit coordinates :

--------------------------------------------------------------------------------
   No.  Atomic        x           y           z         Radius
        Label       (Frac)      (Frac)      (Frac)       (Angs) 
--------------------------------------------------------------------------------
     1  Cl    c     0.000000    0.000000    0.000000    0.000000
     2  O     c     0.500000    0.500000    0.500000    0.000000
     3  Na    c     0.500000    0.500000    0.000000    0.000000
     4  Cl    s     0.000000    0.000000    0.000000    0.000000
     5  O     s     0.500000    0.500000    0.500000    0.000000
--------------------------------------------------------------------------------

  Final Cartesian lattice vectors (Angstroms) :

        4.507787    0.000000    0.000000
        0.000000    4.507787    0.000000
        0.000000    0.000000    4.507787


  Final cell parameters and derivatives :

--------------------------------------------------------------------------------
       a            4.507787 Angstrom     dE/de1(xx)     0.000000 eV/strain
       b            4.507787 Angstrom     dE/de2(yy)     0.000000 eV/strain
       c            4.507787 Angstrom     dE/de3(zz)     0.000000 eV/strain
       alpha       90.000000 Degrees      dE/de4(yz)     0.000000 eV/strain
       beta        90.000000 Degrees      dE/de5(xz)     0.000000 eV/strain
       gamma       90.000000 Degrees      dE/de6(xy)     0.000000 eV/strain
--------------------------------------------------------------------------------

  Primitive cell volume =            91.598892 Angs**3

  Density of cell =      2.183054 g/cm**3

  Non-primitive cell volume =            91.598892 Angs**3


  Final internal derivatives :

--------------------------------------------------------------------------------
   No.  Atomic          a             b             c           Radius
        Label          (eV)          (eV)          (eV)        (eV/Angs)
--------------------------------------------------------------------------------
      1 Cl    c       0.000000      0.000000      0.000000      0.000000
      2 O     c       0.000000      0.000000      0.000000      0.000000
      3 Na    c       0.000000      0.000000      0.000000      0.000000
      4 Cl    s       0.000000      0.000000      0.000000      0.000000
      5 O     s       0.000000      0.000000      0.000000      0.000000
--------------------------------------------------------------------------------
  Maximum abs         0.000000      0.000000      0.000000      0.000000
--------------------------------------------------------------------------------

  Comparison of initial and final structures : 

--------------------------------------------------------------------------------
  Parameter   Initial value   Final value   Difference    Units      Percent
--------------------------------------------------------------------------------
    Volume        91.368216     91.598892     0.230676    Angs**3      0.25
    a              4.504000      4.507787     0.003787    Angstroms    0.08
    b              4.504000      4.507787     0.003787    Angstroms    0.08
    c              4.504000      4.507787     0.003787    Angstroms    0.08
    alpha         90.000000     90.000000     0.000000    Degrees      0.00
    beta          90.000000     90.000000     0.000000    Degrees      0.00
    gamma         90.000000     90.000000     0.000000    Degrees      0.00
      1 x          0.000000      0.000000     0.000000    Fractional   0.00
      1 y          0.000000      0.000000     0.000000    Fractional   0.00
      1 z          0.000000      0.000000     0.000000    Fractional   0.00
      2 x          0.500000      0.500000     0.000000    Fractional   0.00
      2 y          0.500000      0.500000     0.000000    Fractional   0.00
      2 z          0.500000      0.500000     0.000000    Fractional   0.00
      3 x          0.500000      0.500000     0.000000    Fractional   0.00
      3 y          0.500000      0.500000     0.000000    Fractional   0.00
      3 z          0.000000      0.000000     0.000000    Fractional   0.00
      4 x          0.000000      0.000000     0.000000    Fractional   0.00
      4 y          0.000000      0.000000     0.000000    Fractional   0.00
      4 z          0.000000      0.000000     0.000000    Fractional   0.00
      5 x          0.500000      0.500000     0.000000    Fractional   0.00
      5 y          0.500000      0.500000     0.000000    Fractional   0.00
      5 z          0.500000      0.500000     0.000000    Fractional   0.00
--------------------------------------------------------------------------------


  Born effective charge tensors : 

-------------------------------------------------------------------------------
  Atom             x           y             z
-------------------------------------------------------------------------------
    1 Cl    x      -1.0181     -0.0000      0.0000
            y      -0.0000     -1.0181      0.0000
            z       0.0000      0.0000     -1.0181
-------------------------------------------------------------------------------
    2 O     x      -2.2647      0.0000     -0.0000
            y       0.0000     -2.2647     -0.0000
            z      -0.0000     -0.0000     -2.2647
-------------------------------------------------------------------------------
    3 Na    x       1.2258     -0.0000      0.0000
            y      -0.0000      1.2258     -0.0000
            z       0.0000     -0.0000      0.8313
-------------------------------------------------------------------------------




  Elastic Constant Matrix: (Units=GPa)

-------------------------------------------------------------------------------
  Indices      1         2         3         4         5         6    
-------------------------------------------------------------------------------
       1     95.8177   20.0737   20.0737   -0.0000   -0.0000    0.0000
       2     20.0737   95.8177   20.0737   -0.0000   -0.0000    0.0000
       3     20.0737   20.0737   95.8177   -0.0000   -0.0000    0.0000
       4     -0.0000   -0.0000   -0.0000   20.0737   -0.0000    0.0000
       5     -0.0000   -0.0000   -0.0000   -0.0000   20.0737    0.0000
       6      0.0000    0.0000    0.0000    0.0000    0.0000   20.0737
-------------------------------------------------------------------------------


  Elastic Compliance Matrix: (Units=1/GPa)

-------------------------------------------------------------------------------
  Indices      1         2         3         4         5         6    
-------------------------------------------------------------------------------
       1    0.011253 -0.001949 -0.001949  0.000000  0.000000 -0.000000
       2   -0.001949  0.011253 -0.001949  0.000000  0.000000  0.000000
       3   -0.001949 -0.001949  0.011253  0.000000  0.000000 -0.000000
       4    0.000000  0.000000  0.000000  0.049816  0.000000 -0.000000
       5    0.000000  0.000000  0.000000  0.000000  0.049816 -0.000000
       6   -0.000000  0.000000 -0.000000 -0.000000 -0.000000  0.049816
-------------------------------------------------------------------------------

  Mechanical properties :

-------------------------------------------------------------------------------
  Convention :                    Reuss         Voigt         Hill
-------------------------------------------------------------------------------
  Bulk  Modulus (GPa)     =      45.32174      45.32174      45.32174
  Shear Modulus (GPa)     =      24.72085      27.19304      25.95695
-------------------------------------------------------------------------------
  Velocity S-wave (km/s)  =       3.36511       3.52937       3.44822
  Velocity P-wave (km/s)  =       5.98827       6.11304       6.05098
-------------------------------------------------------------------------------
  Compressibility (1/GPa) =    0.02206447
-------------------------------------------------------------------------------
  Stress axis :                     x             y             z
-------------------------------------------------------------------------------
  Youngs Moduli (GPa)     =      88.86373      88.86373      88.86373
-------------------------------------------------------------------------------
  Poissons Ratio (x)      =                     0.17321       0.17321
  Poissons Ratio (y)      =       0.17321                     0.17321
  Poissons Ratio (z)      =       0.17321       0.17321
-------------------------------------------------------------------------------


  Piezoelectric Strain Matrix: (Units=C/m**2)

-------------------------------------------------------------------------------
  Indices      1         2         3         4         5         6    
-------------------------------------------------------------------------------
       x    -0.00000  -0.00000  -0.00000   0.00000  -0.00000  -0.00000
       y    -0.00000  -0.00000   0.00000  -0.00000   0.00000   0.00000
       z    -0.00000  -0.00000  -0.00000  -0.00000   0.00000   0.00000
-------------------------------------------------------------------------------


  Piezoelectric Stress Matrix: (Units=10**-11 C/N)

-------------------------------------------------------------------------------
  Indices      1         2         3         4         5         6    
-------------------------------------------------------------------------------
       x    -0.00000   0.00000   0.00000   0.00000  -0.00000  -0.00000
       y    -0.00000  -0.00000   0.00000  -0.00000   0.00000   0.00000
       z     0.00000   0.00000  -0.00000  -0.00000   0.00000   0.00000
-------------------------------------------------------------------------------


  Static dielectric constant tensor : 

-------------------------------------------------------------------------------
              x         y         z
-------------------------------------------------------------------------------
       x    22.84729   0.00000   0.00000
       y     0.00000  22.84729  -0.00000
       z     0.00000  -0.00000  22.84729
--------------------------------------------------------------------------------

  High frequency dielectric constant tensor : 

-------------------------------------------------------------------------------
              x         y         z
-------------------------------------------------------------------------------
       x     1.47557   0.00000  -0.00000
       y     0.00000   1.47557  -0.00000
       z    -0.00000  -0.00000   1.47557
-------------------------------------------------------------------------------

  Static refractive indices : 

-------------------------------------------------------------------------------
    1 =    4.77988      2 =    4.77988      3 =    4.77988
-------------------------------------------------------------------------------

  High frequency refractive indices : 

-------------------------------------------------------------------------------
    1 =    1.21473      2 =    1.21473      3 =    1.21473
-------------------------------------------------------------------------------


  Time to end of optimisation =       0.0257 seconds

********************************************************************************
*  Defect calculation for configuration   1 :                                  *
********************************************************************************

  Total number of defects =      3

  Total charge on defect  =  -1.00

  Defect centre is at   0.5000   0.2900   0.2100  Frac

  Region 1 radius =  12.0000      Number of ions =    549

  Number of symmetry inequivalent region 1 ions  =    318

  Region 2 radius =  16.0000      Number of ions =    778

  Number of symmetry inequivalent region 2a ions =    425

  Region 2a mode = 4 : screened electrostatics due to region 1 
                       neglect correction to region 1 forces from 2a
                       region 2a displacements based on defects only

  Region 2a ions will only interact with defects in region 1

  Vacancies:

--------------------------------------------------------------------------------
    Specification type     Symbol/Number         x          y          z
--------------------------------------------------------------------------------
    Fractional                               0.500000   0.500000   0.000000
    Fractional                               0.500000   0.000000   0.500000
--------------------------------------------------------------------------------

  Interstitials:

--------------------------------------------------------------------------------
    Specification type     Symbol/Number         x          y          z
--------------------------------------------------------------------------------
    Atom/Fractional         Na               0.500000   0.210000   0.290000
--------------------------------------------------------------------------------


  Symmetry reduced region 1 (Relative to defect centre) :

--------------------------------------------------------------------------------
   No.   Atomic       x            y             z       Radius  Multiplicity   
         Label      (Angs)       (Angs)        (Angs)    (Angs)     
--------------------------------------------------------------------------------
     1  Na    c      0.0000      -0.3606       0.3606    0.0000     1    Defect
     2  O     c      0.0000       0.9466 *     1.3073 *  0.0000     1          
     3  Na    c      2.2539 *     0.9466 *     1.3073 *  0.0000     2          
     4  Cl    c      2.2539 *    -1.3073 *    -0.9466 *  0.0000     2          
     5  O     c      0.0000       0.9466 *    -3.2005 *  0.0000     1          
     6  Na    c      0.0000      -1.3073 *    -3.2005 *  0.0000     1          
     7  Na    c      0.0000       3.2005 *     1.3073 *  0.0000     1          
     8  Na    c      0.0000       0.9466 *     3.5612 *  0.0000     1          
     9  Na    c      0.0000      -3.5612 *    -0.9466 *  0.0000     1          
    10  O     c      0.0000      -3.5612 *     1.3073 *  0.0000     1          
    11  Cl    c      2.2539 *     3.2005 *    -0.9466 *  0.0000     2          
    12  Na    c      2.2539 *     0.9466 *    -3.2005 *  0.0000     2          
    13  Cl    c      2.2539 *    -1.3073 *     3.5612 *  0.0000     2          
    14  Na    c      2.2539 *    -3.5612 *     1.3073 *  0.0000     2          
    15  Na    c      0.0000       3.2005 *    -3.2005 *  0.0000     1          
    16  Na    c     -4.5078 *     0.9466 *    -0.9466 *  0.0000     2          
    17  O     c      0.0000      -3.5612 *    -3.2005 *  0.0000     1          
    18  O     c     -4.5078 *     0.9466 *     1.3073 *  0.0000     2          
    19  Na    c     -4.5078 *    -1.3073 *     1.3073 *  0.0000     2          
    20  Na    c      0.0000      -3.5612 *     3.5612 *  0.0000     1          
    21  Cl    c      2.2539 *     3.2005 *     3.5612 *  0.0000     2          
    22  Na    c      2.2539 *    -3.5612 *    -3.2005 *  0.0000     2          
    23  Na    c      0.0000       5.4544 *    -0.9466 *  0.0000     1          
    24  Na    c      0.0000       0.9466 *    -5.4544 *  0.0000     1          
    25  O     c      0.0000       5.4544 *     1.3073 *  0.0000     1          
    26  O     c     -4.5078 *     0.9466 *    -3.2005 *  0.0000     2          
    27  Na    c     -4.5078 *    -1.3073 *    -3.2005 *  0.0000     2          
    28  Na    c     -4.5078 *     3.2005 *     1.3073 *  0.0000     2          
    29  Na    c     -4.5078 *     0.9466 *     3.5612 *  0.0000     2          
    30  Na    c     -4.5078 *    -3.5612 *    -0.9466 *  0.0000     2          
    31  O     c      0.0000       0.9466 *     5.8150 *  0.0000     1          
    32  O     c     -4.5078 *    -3.5612 *     1.3073 *  0.0000     2          
    33  Na    c      0.0000      -1.3073 *     5.8150 *  0.0000     1          
    34  Na    c      0.0000      -5.8150 *     1.3073 *  0.0000     1          
    35  Na    c      2.2539 *     5.4544 *     1.3073 *  0.0000     2          
    36  Cl    c      2.2539 *    -1.3073 *    -5.4544 *  0.0000     2          
    37  Cl    c      2.2539 *    -5.8150 *    -0.9466 *  0.0000     2          
    38  Na    c      2.2539 *     0.9466 *     5.8150 *  0.0000     2          
    39  O     c      0.0000       5.4544 *    -3.2005 *  0.0000     1          
    40  Na    c     -4.5078 *     3.2005 *    -3.2005 *  0.0000     2          
    41  Na    c      0.0000       5.4544 *     3.5612 *  0.0000     1          
    42  Na    c      0.0000      -3.5612 *    -5.4544 *  0.0000     1          
    43  O     c     -4.5078 *    -3.5612 *    -3.2005 *  0.0000     2          
    44  Na    c      0.0000       3.2005 *     5.8150 *  0.0000     1          
    45  Na    c      0.0000      -5.8150 *    -3.2005 *  0.0000     1          
    46  Na    c      2.2539 *     5.4544 *    -3.2005 *  0.0000     2          
    47  Cl    c      2.2539 *     3.2005 *    -5.4544 *  0.0000     2          
    48  Na    c     -4.5078 *    -3.5612 *     3.5612 *  0.0000     2          
    49  O     c      0.0000      -3.5612 *     5.8150 *  0.0000     1          
    50  Na    c      6.7617 *     0.9466 *     1.3073 *  0.0000     2          
    51  Cl    c      6.7617 *    -1.3073 *    -0.9466 *  0.0000     2          
    52  Na    c      4.5078 *     5.4544 *    -0.9466 *  0.0000     2          
    53  Na    c     -4.5078 *     0.9466 *    -5.4544 *  0.0000     2          
    54  Cl    c      2.2539 *    -5.8150 *     3.5612 *  0.0000     2          
    55  Na    c      2.2539 *    -3.5612 *     5.8150 *  0.0000     2          
    56  O     c      4.5078 *     5.4544 *     1.3073 *  0.0000     2          
    57  O     c     -4.5078 *     0.9466 *     5.8150 *  0.0000     2          
    58  Na    c     -4.5078 *    -1.3073 *     5.8150 *  0.0000     2          
    59  Na    c      4.5078 *    -5.8150 *     1.3073 *  0.0000     2          
    60  Cl    c      6.7617 *     3.2005 *    -0.9466 *  0.0000     2          
    61  Na    c      6.7617 *     0.9466 *    -3.2005 *  0.0000     2          
    62  Na    c      0.0000       5.4544 *    -5.4544 *  0.0000     1          
    63  Na    c      6.7617 *    -3.5612 *     1.3073 *  0.0000     2          
    64  Cl    c      6.7617 *    -1.3073 *     3.5612 *  0.0000     2          
    65  O     c      0.0000       0.9466 *    -7.7083 *  0.0000     1          
    66  O     c      4.5078 *     5.4544 *    -3.2005 *  0.0000     2          
    67  Na    c      0.0000      -1.3073 *    -7.7083 *  0.0000     1          
    68  Na    c      0.0000       7.7083 *     1.3073 *  0.0000     1          
    69  Na    c      4.5078 *     5.4544 *     3.5612 *  0.0000     2          
    70  Na    c     -4.5078 *    -3.5612 *    -5.4544 *  0.0000     2          
    71  O     c      0.0000       5.4544 *     5.8150 *  0.0000     1          
    72  Na    c     -4.5078 *     3.2005 *     5.8150 *  0.0000     2          
    73  Na    c      4.5078 *    -5.8150 *    -3.2005 *  0.0000     2          
    74  Cl    c      2.2539 *     7.7083 *    -0.9466 *  0.0000     2          
    75  Na    c      2.2539 *     0.9466 *    -7.7083 *  0.0000     2          
    76  Na    c      0.0000       0.9466 *     8.0689 *  0.0000     1          
    77  Na    c      0.0000      -8.0689 *    -0.9466 *  0.0000     1          
    78  O     c      0.0000      -8.0689 *     1.3073 *  0.0000     1          
    79  O     c      4.5078 *    -3.5612 *     5.8150 *  0.0000     2          
    80  Na    c      0.0000      -5.8150 *     5.8150 *  0.0000     1          
    81  Cl    c      2.2539 *    -5.8150 *    -5.4544 *  0.0000     2          
    82  Na    c      2.2539 *     5.4544 *     5.8150 *  0.0000     2          
    83  Na    c      6.7617 *    -3.5612 *    -3.2005 *  0.0000     2          
    84  Cl    c      6.7617 *     3.2005 *     3.5612 *  0.0000     2          
    85  Na    c      0.0000       3.2005 *    -7.7083 *  0.0000     1          
    86  Na    c      0.0000       7.7083 *    -3.2005 *  0.0000     1          
    87  Cl    c      2.2539 *    -1.3073 *     8.0689 *  0.0000     2          
    88  Na    c      2.2539 *    -8.0689 *     1.3073 *  0.0000     2          
    89  O     c      0.0000      -3.5612 *    -7.7083 *  0.0000     1          
    90  O     c      0.0000      -8.0689 *    -3.2005 *  0.0000     1          
    91  Cl    c      2.2539 *     7.7083 *     3.5612 *  0.0000     2          
    92  Na    c      2.2539 *    -3.5612 *    -7.7083 *  0.0000     2          
    93  Na    c      6.7617 *     5.4544 *     1.3073 *  0.0000     2          
    94  Cl    c      6.7617 *    -1.3073 *    -5.4544 *  0.0000     2          
    95  Na    c      0.0000      -3.5612 *     8.0689 *  0.0000     1          
    96  Na    c      0.0000      -8.0689 *     3.5612 *  0.0000     1          
    97  Na    c      4.5078 *     5.4544 *    -5.4544 *  0.0000     2          
    98  Cl    c      2.2539 *     3.2005 *     8.0689 *  0.0000     2          
    99  Na    c      2.2539 *    -8.0689 *    -3.2005 *  0.0000     2          
   100  Cl    c      6.7617 *    -5.8150 *    -0.9466 *  0.0000     2          
   101  Na    c      6.7617 *     0.9466 *     5.8150 *  0.0000     2          
   102  O     c     -4.5078 *     0.9466 *    -7.7083 *  0.0000     2          
   103  Na    c     -4.5078 *     7.7083 *     1.3073 *  0.0000     2          
   104  Na    c      4.5078 *    -1.3073 *    -7.7083 *  0.0000     2          
   105  Na    c      9.0156 *     0.9466 *    -0.9466 *  0.0000     2          
   106  O     c      4.5078 *     5.4544 *     5.8150 *  0.0000     2          
   107  O     c      9.0156 *     0.9466 *     1.3073 *  0.0000     2          
   108  Na    c      9.0156 *    -1.3073 *     1.3073 *  0.0000     2          
   109  Na    c      6.7617 *     5.4544 *    -3.2005 *  0.0000     2          
   110  Cl    c      6.7617 *     3.2005 *    -5.4544 *  0.0000     2          
   111  Na    c     -4.5078 *     0.9466 *     8.0689 *  0.0000     2          
   112  Na    c     -4.5078 *    -8.0689 *    -0.9466 *  0.0000     2          
   113  O     c     -4.5078 *    -8.0689 *     1.3073 *  0.0000     2          
   114  Na    c      4.5078 *    -5.8150 *     5.8150 *  0.0000     2          
   115  O     c      0.0000       5.4544 *    -7.7083 *  0.0000     1          
   116  Na    c      4.5078 *     3.2005 *    -7.7083 *  0.0000     2          
   117  Na    c      4.5078 *     7.7083 *    -3.2005 *  0.0000     2          
   118  Na    c      6.7617 *    -3.5612 *     5.8150 *  0.0000     2          
   119  Cl    c      6.7617 *    -5.8150 *     3.5612 *  0.0000     2          
   120  O     c      9.0156 *     0.9466 *    -3.2005 *  0.0000     2          
   121  O     c     -4.5078 *    -3.5612 *    -7.7083 *  0.0000     2          
   122  Na    c      0.0000       7.7083 *     5.8150 *  0.0000     1          
   123  Na    c      0.0000      -5.8150 *    -7.7083 *  0.0000     1          
   124  Na    c      9.0156 *    -1.3073 *    -3.2005 *  0.0000     2          
   125  Na    c      9.0156 *     3.2005 *     1.3073 *  0.0000     2          
   126  Na    c      2.2539 *     5.4544 *    -7.7083 *  0.0000     2          
   127  Cl    c      2.2539 *     7.7083 *    -5.4544 *  0.0000     2          
   128  Na    c      0.0000       5.4544 *     8.0689 *  0.0000     1          
   129  Na    c      0.0000      -8.0689 *    -5.4544 *  0.0000     1          
   130  Na    c      9.0156 *     0.9466 *     3.5612 *  0.0000     2          
   131  Na    c      9.0156 *    -3.5612 *    -0.9466 *  0.0000     2          
   132  O     c      4.5078 *    -8.0689 *    -3.2005 *  0.0000     2          
   133  O     c      9.0156 *    -3.5612 *     1.3073 *  0.0000     2          
   134  Na    c     -4.5078 *    -3.5612 *     8.0689 *  0.0000     2          
   135  Na    c     -4.5078 *    -8.0689 *     3.5612 *  0.0000     2          
   136  O     c      0.0000      -8.0689 *     5.8150 *  0.0000     1          
   137  Na    c      0.0000       0.9466 *    -9.9622 *  0.0000     1          
   138  Na    c      0.0000       9.9622 *    -0.9466 *  0.0000     1          
   139  O     c      0.0000       9.9622 *     1.3073 *  0.0000     1          
   140  Na    c      9.0156 *     3.2005 *    -3.2005 *  0.0000     2          
   141  Cl    c      2.2539 *    -5.8150 *     8.0689 *  0.0000     2          
   142  Na    c      2.2539 *    -8.0689 *     5.8150 *  0.0000     2          
   143  O     c      9.0156 *    -3.5612 *    -3.2005 *  0.0000     2          
   144  Cl    c      2.2539 *    -1.3073 *    -9.9622 *  0.0000     2          
   145  Cl    c      6.7617 *     7.7083 *    -0.9466 *  0.0000     2          
   146  Na    c      2.2539 *     9.9622 *     1.3073 *  0.0000     2          
   147  Na    c      6.7617 *     0.9466 *    -7.7083 *  0.0000     2          
   148  Na    c      9.0156 *    -3.5612 *     3.5612 *  0.0000     2          
   149  O     c      0.0000       0.9466 *    10.3228 *  0.0000     1          
   150  Na    c      0.0000      -1.3073 *    10.3228 *  0.0000     1          
   151  Na    c      0.0000     -10.3228 *     1.3073 *  0.0000     1          
   152  Na    c      6.7617 *     5.4544 *     5.8150 *  0.0000     2          
   153  Cl    c      6.7617 *    -5.8150 *    -5.4544 *  0.0000     2          
   154  O     c      4.5078 *     5.4544 *    -7.7083 *  0.0000     2          
   155  O     c      0.0000       9.9622 *    -3.2005 *  0.0000     1          
   156  Na    c      9.0156 *     5.4544 *    -0.9466 *  0.0000     2          
   157  Na    c      0.0000       9.9622 *     3.5612 *  0.0000     1          
   158  Na    c      0.0000      -3.5612 *    -9.9622 *  0.0000     1          
   159  Na    c      9.0156 *     0.9466 *    -5.4544 *  0.0000     2          
   160  Cl    c      6.7617 *    -1.3073 *     8.0689 *  0.0000     2          
   161  Na    c      6.7617 *    -8.0689 *     1.3073 *  0.0000     2          
   162  Cl    c      2.2539 *   -10.3228 *    -0.9466 *  0.0000     2          
   163  Na    c      2.2539 *     0.9466 *    10.3228 *  0.0000     2          
   164  O     c      9.0156 *     5.4544 *     1.3073 *  0.0000     2          
   165  Na    c      4.5078 *     7.7083 *     5.8150 *  0.0000     2          
   166  Na    c      4.5078 *    -5.8150 *    -7.7083 *  0.0000     2          
   167  Cl    c      2.2539 *     3.2005 *    -9.9622 *  0.0000     2          
   168  Na    c      2.2539 *     9.9622 *    -3.2005 *  0.0000     2          
   169  Na    c      4.5078 *     5.4544 *     8.0689 *  0.0000     2          
   170  Na    c     -4.5078 *    -8.0689 *    -5.4544 *  0.0000     2          
   171  O     c      9.0156 *     0.9466 *     5.8150 *  0.0000     2          
   172  Na    c      0.0000       3.2005 *    10.3228 *  0.0000     1          
   173  Na    c      0.0000     -10.3228 *    -3.2005 *  0.0000     1          
   174  Na    c      9.0156 *    -1.3073 *     5.8150 *  0.0000     2          
   175  Na    c      9.0156 *    -5.8150 *     1.3073 *  0.0000     2          
   176  Cl    c      6.7617 *     7.7083 *     3.5612 *  0.0000     2          
   177  Na    c      6.7617 *    -3.5612 *    -7.7083 *  0.0000     2          
   178  Na    c      0.0000       7.7083 *    -7.7083 *  0.0000     1          
   179  O     c      4.5078 *    -8.0689 *     5.8150 *  0.0000     2          
   180  O     c      0.0000      -3.5612 *    10.3228 *  0.0000     1          
   181  Na    c     -4.5078 *     0.9466 *    -9.9622 *  0.0000     2          
   182  Na    c     -4.5078 *     9.9622 *    -0.9466 *  0.0000     2          
   183  Cl    c      6.7617 *     3.2005 *     8.0689 *  0.0000     2          
   184  Na    c      6.7617 *    -8.0689 *    -3.2005 *  0.0000     2          
   185  O     c      9.0156 *     5.4544 *    -3.2005 *  0.0000     2          
   186  O     c     -4.5078 *     9.9622 *     1.3073 *  0.0000     2          
   187  Na    c      9.0156 *     5.4544 *     3.5612 *  0.0000     2          
   188  Na    c      9.0156 *    -3.5612 *    -5.4544 *  0.0000     2          
   189  Cl    c      2.2539 *   -10.3228 *     3.5612 *  0.0000     2          
   190  Na    c      2.2539 *    -3.5612 *    10.3228 *  0.0000     2          
   191  O     c      0.0000      -8.0689 *    -7.7083 *  0.0000     1          
   192  Na    c      9.0156 *     3.2005 *     5.8150 *  0.0000     2          
   193  Na    c      9.0156 *    -5.8150 *    -3.2005 *  0.0000     2          
   194  O     c      9.0156 *    -3.5612 *     5.8150 *  0.0000     2          
   195  O     c      4.5078 *     0.9466 *    10.3228 *  0.0000     2          
   196  Na    c     -4.5078 *    -1.3073 *    10.3228 *  0.0000     2          
   197  Na    c     -4.5078 *   -10.3228 *     1.3073 *  0.0000     2          
   198  Na    c      0.0000       5.4544 *    -9.9622 *  0.0000     1          
   199  Na    c      0.0000       9.9622 *    -5.4544 *  0.0000     1          
   200  Cl    c      2.2539 *     7.7083 *     8.0689 *  0.0000     2          
   201  Cl    c     11.2695 *    -1.3073 *    -0.9466 *  0.0000     2          
   202  Na    c      2.2539 *    -8.0689 *    -7.7083 *  0.0000     2          
   203  Na    c     11.2695 *     0.9466 *     1.3073 *  0.0000     2          
   204  O     c      4.5078 *     9.9622 *    -3.2005 *  0.0000     2          
   205  Na    c      0.0000      -8.0689 *     8.0689 *  0.0000     1          
   206  Na    c     -4.5078 *     9.9622 *     3.5612 *  0.0000     2          
   207  Na    c     -4.5078 *    -3.5612 *    -9.9622 *  0.0000     2          
   208  O     c      0.0000       9.9622 *     5.8150 *  0.0000     1          
   209  Cl    c      6.7617 *     7.7083 *    -5.4544 *  0.0000     2          
   210  Na    c      6.7617 *     5.4544 *    -7.7083 *  0.0000     2          
   211  O     c      0.0000       5.4544 *    10.3228 *  0.0000     1          
   212  Na    c     -4.5078 *     3.2005 *    10.3228 *  0.0000     2          
   213  Na    c     -4.5078 *   -10.3228 *    -3.2005 *  0.0000     2          
   214  Cl    c     11.2695 *     3.2005 *    -0.9466 *  0.0000     2          
   215  Na    c     11.2695 *     0.9466 *    -3.2005 *  0.0000     2          
   216  Cl    c      2.2539 *    -5.8150 *    -9.9622 *  0.0000     2          
   217  Na    c      2.2539 *     9.9622 *     5.8150 *  0.0000     2          
   218  Na    c     -4.5078 *     7.7083 *    -7.7083 *  0.0000     2          
   219  O     c      4.5078 *    -3.5612 *    10.3228 *  0.0000     2          
   220  Na    c      0.0000      -5.8150 *    10.3228 *  0.0000     1          
   221  Na    c      0.0000     -10.3228 *     5.8150 *  0.0000     1          
   222  Na    c      9.0156 *     5.4544 *    -5.4544 *  0.0000     2          
   223  Cl    c     11.2695 *    -1.3073 *     3.5612 *  0.0000     2          
   224  Na    c     11.2695 *    -3.5612 *     1.3073 *  0.0000     2          
   225  Cl    c      2.2539 *   -10.3228 *    -5.4544 *  0.0000     2          
   226  Na    c      2.2539 *     5.4544 *    10.3228 *  0.0000     2          
   227  O     c      9.0156 *     0.9466 *    -7.7083 *  0.0000     2          
   228  Na    c      9.0156 *    -1.3073 *    -7.7083 *  0.0000     2          
   229  Na    c      9.0156 *     7.7083 *     1.3073 *  0.0000     2          
   230  O     s      0.0000       0.9466 *     1.3073 *  0.0000     1          
   231  Cl    s      2.2539 *    -1.3073 *    -0.9466 *  0.0000     2          
   232  O     s      0.0000       0.9466 *    -3.2005 *  0.0000     1          
   233  O     s      0.0000      -3.5612 *     1.3073 *  0.0000     1          
   234  Cl    s      2.2539 *     3.2005 *    -0.9466 *  0.0000     2          
   235  Cl    s      2.2539 *    -1.3073 *     3.5612 *  0.0000     2          
   236  O     s      0.0000      -3.5612 *    -3.2005 *  0.0000     1          
   237  O     s     -4.5078 *     0.9466 *     1.3073 *  0.0000     2          
   238  Cl    s      2.2539 *     3.2005 *     3.5612 *  0.0000     2          
   239  O     s      0.0000       5.4544 *     1.3073 *  0.0000     1          
   240  O     s     -4.5078 *     0.9466 *    -3.2005 *  0.0000     2          
   241  O     s      0.0000       0.9466 *     5.8150 *  0.0000     1          
   242  O     s     -4.5078 *    -3.5612 *     1.3073 *  0.0000     2          
   243  Cl    s      2.2539 *    -1.3073 *    -5.4544 *  0.0000     2          
   244  Cl    s      2.2539 *    -5.8150 *    -0.9466 *  0.0000     2          
   245  O     s      0.0000       5.4544 *    -3.2005 *  0.0000     1          
   246  O     s     -4.5078 *    -3.5612 *    -3.2005 *  0.0000     2          
   247  Cl    s      2.2539 *     3.2005 *    -5.4544 *  0.0000     2          
   248  O     s      0.0000      -3.5612 *     5.8150 *  0.0000     1          
   249  Cl    s      6.7617 *    -1.3073 *    -0.9466 *  0.0000     2          
   250  Cl    s      2.2539 *    -5.8150 *     3.5612 *  0.0000     2          
   251  O     s      4.5078 *     5.4544 *     1.3073 *  0.0000     2          
   252  O     s     -4.5078 *     0.9466 *     5.8150 *  0.0000     2          
   253  Cl    s      6.7617 *     3.2005 *    -0.9466 *  0.0000     2          
   254  Cl    s      6.7617 *    -1.3073 *     3.5612 *  0.0000     2          
   255  O     s      0.0000       0.9466 *    -7.7083 *  0.0000     1          
   256  O     s      4.5078 *     5.4544 *    -3.2005 *  0.0000     2          
   257  O     s      0.0000       5.4544 *     5.8150 *  0.0000     1          
   258  Cl    s      2.2539 *     7.7083 *    -0.9466 *  0.0000     2          
   259  O     s      0.0000      -8.0689 *     1.3073 *  0.0000     1          
   260  O     s      4.5078 *    -3.5612 *     5.8150 *  0.0000     2          
   261  Cl    s      2.2539 *    -5.8150 *    -5.4544 *  0.0000     2          
   262  Cl    s      6.7617 *     3.2005 *     3.5612 *  0.0000     2          
   263  Cl    s      2.2539 *    -1.3073 *     8.0689 *  0.0000     2          
   264  O     s      0.0000      -3.5612 *    -7.7083 *  0.0000     1          
   265  O     s      0.0000      -8.0689 *    -3.2005 *  0.0000     1          
   266  Cl    s      2.2539 *     7.7083 *     3.5612 *  0.0000     2          
   267  Cl    s      6.7617 *    -1.3073 *    -5.4544 *  0.0000     2          
   268  Cl    s      2.2539 *     3.2005 *     8.0689 *  0.0000     2          
   269  Cl    s      6.7617 *    -5.8150 *    -0.9466 *  0.0000     2          
   270  O     s     -4.5078 *     0.9466 *    -7.7083 *  0.0000     2          
   271  O     s      4.5078 *     5.4544 *     5.8150 *  0.0000     2          
   272  O     s      9.0156 *     0.9466 *     1.3073 *  0.0000     2          
   273  Cl    s      6.7617 *     3.2005 *    -5.4544 *  0.0000     2          
   274  O     s     -4.5078 *    -8.0689 *     1.3073 *  0.0000     2          
   275  O     s      0.0000       5.4544 *    -7.7083 *  0.0000     1          
   276  Cl    s      6.7617 *    -5.8150 *     3.5612 *  0.0000     2          
   277  O     s      9.0156 *     0.9466 *    -3.2005 *  0.0000     2          
   278  O     s     -4.5078 *    -3.5612 *    -7.7083 *  0.0000     2          
   279  Cl    s      2.2539 *     7.7083 *    -5.4544 *  0.0000     2          
   280  O     s      4.5078 *    -8.0689 *    -3.2005 *  0.0000     2          
   281  O     s      9.0156 *    -3.5612 *     1.3073 *  0.0000     2          
   282  O     s      0.0000      -8.0689 *     5.8150 *  0.0000     1          
   283  O     s      0.0000       9.9622 *     1.3073 *  0.0000     1          
   284  Cl    s      2.2539 *    -5.8150 *     8.0689 *  0.0000     2          
   285  O     s      9.0156 *    -3.5612 *    -3.2005 *  0.0000     2          
   286  Cl    s      2.2539 *    -1.3073 *    -9.9622 *  0.0000     2          
   287  Cl    s      6.7617 *     7.7083 *    -0.9466 *  0.0000     2          
   288  O     s      0.0000       0.9466 *    10.3228 *  0.0000     1          
   289  Cl    s      6.7617 *    -5.8150 *    -5.4544 *  0.0000     2          
   290  O     s      4.5078 *     5.4544 *    -7.7083 *  0.0000     2          
   291  O     s      0.0000       9.9622 *    -3.2005 *  0.0000     1          
   292  Cl    s      6.7617 *    -1.3073 *     8.0689 *  0.0000     2          
   293  Cl    s      2.2539 *   -10.3228 *    -0.9466 *  0.0000     2          
   294  O     s      9.0156 *     5.4544 *     1.3073 *  0.0000     2          
   295  Cl    s      2.2539 *     3.2005 *    -9.9622 *  0.0000     2          
   296  O     s      9.0156 *     0.9466 *     5.8150 *  0.0000     2          
   297  Cl    s      6.7617 *     7.7083 *     3.5612 *  0.0000     2          
   298  O     s      4.5078 *    -8.0689 *     5.8150 *  0.0000     2          
   299  O     s      0.0000      -3.5612 *    10.3228 *  0.0000     1          
   300  Cl    s      6.7617 *     3.2005 *     8.0689 *  0.0000     2          
   301  O     s      9.0156 *     5.4544 *    -3.2005 *  0.0000     2          
   302  O     s     -4.5078 *     9.9622 *     1.3073 *  0.0000     2          
   303  Cl    s      2.2539 *   -10.3228 *     3.5612 *  0.0000     2          
   304  O     s      0.0000      -8.0689 *    -7.7083 *  0.0000     1          
   305  O     s      9.0156 *    -3.5612 *     5.8150 *  0.0000     2          
   306  O     s      4.5078 *     0.9466 *    10.3228 *  0.0000     2          
   307  Cl    s      2.2539 *     7.7083 *     8.0689 *  0.0000     2          
   308  Cl    s     11.2695 *    -1.3073 *    -0.9466 *  0.0000     2          
   309  O     s      4.5078 *     9.9622 *    -3.2005 *  0.0000     2          
   310  O     s      0.0000       9.9622 *     5.8150 *  0.0000     1          
   311  Cl    s      6.7617 *     7.7083 *    -5.4544 *  0.0000     2          
   312  O     s      0.0000       5.4544 *    10.3228 *  0.0000     1          
   313  Cl    s     11.2695 *     3.2005 *    -0.9466 *  0.0000     2          
   314  Cl    s      2.2539 *    -5.8150 *    -9.9622 *  0.0000     2          
   315  O     s      4.5078 *    -3.5612 *    10.3228 *  0.0000     2          
   316  Cl    s     11.2695 *    -1.3073 *     3.5612 *  0.0000     2          
   317  Cl    s      2.2539 *   -10.3228 *    -5.4544 *  0.0000     2          
   318  O     s      9.0156 *     0.9466 *    -7.7083 *  0.0000     2          
--------------------------------------------------------------------------------

  Components of defect energy : 

--------------------------------------------------------------------------------
  Region 1 - region 1                   =      5.88835057 eV
  Region 1 - region 2a (unrelaxed)      =      4.61757793 eV
  Region 1 - 2a (relaxed - correction)  =     -0.29168866 eV
  Region 1 (Total)                      =     10.21423983 eV
  Region 2a                             =      0.14576662 eV
  Region 2b                             =     -0.42976716 eV
--------------------------------------------------------------------------------
  Total defect energy                   =      9.93023929 eV
--------------------------------------------------------------------------------

  Largest displacement in region 2 =   0.0221 Angstroms


  Number of variables =      865

  Maximum number of calculations  =        1000
  Maximum Hessian update interval =          10
  Maximum step size               =   1.0000000
  Maximum parameter tolerance     =   0.0000100
  Maximum function  tolerance     =   0.0000100
  Maximum gradient  tolerance     =   0.0010000

  Symmetry adapted optimisation

  Symmetry to be used for second derivatives

  Newton-Raphson optimiser to be used

  BFGS hessian update to be used

  Lower half triangular hessian to be used

  Start of defect optimisation :

  Cycle:      0 Defect Energy:   9.930239  Gnorm:     0.023281  CPU:    2.467
  ** Hessian calculated **
  Cycle:      1 Defect Energy:   8.398249  Gnorm:     0.013224  CPU:    6.672
  Cycle:      2 Defect Energy:   7.858080  Gnorm:     0.012080  CPU:   10.326
  Cycle:      3 Defect Energy:   7.610343  Gnorm:     0.010019  CPU:   13.324
  Cycle:      4 Defect Energy:   7.191206  Gnorm:     0.010277  CPU:   17.919
  Cycle:      5 Defect Energy:   6.772082  Gnorm:     0.007362  CPU:   21.691
  Cycle:      6 Defect Energy:   6.353224  Gnorm:     0.007057  CPU:   24.736
  Cycle:      7 Defect Energy:   5.932434  Gnorm:     0.008476  CPU:   28.442
  Cycle:      8 Defect Energy:   5.664619  Gnorm:     0.004035  CPU:   31.382
  Cycle:      9 Defect Energy:   5.585441  Gnorm:     0.003360  CPU:   32.196
  Cycle:     10 Defect Energy:   5.500045  Gnorm:     0.002678  CPU:   33.055
  ** Hessian calculated **
  Cycle:     11 Defect Energy:   5.454415  Gnorm:     0.002537  CPU:   35.273
  Cycle:     12 Defect Energy:   5.410361  Gnorm:     0.002392  CPU:   36.132
  ** Hessian calculated **
  Cycle:     13 Defect Energy:   5.393963  Gnorm:     0.002105  CPU:   38.326
  Cycle:     14 Defect Energy:   5.373581  Gnorm:     0.002013  CPU:   39.175
  Cycle:     15 Defect Energy:   5.347877  Gnorm:     0.001953  CPU:   40.026
  Cycle:     16 Defect Energy:   5.320940  Gnorm:     0.001877  CPU:   40.881
  Cycle:     17 Defect Energy:   5.301060  Gnorm:     0.001799  CPU:   41.710
  Cycle:     18 Defect Energy:   5.286230  Gnorm:     0.001729  CPU:   42.546
  Cycle:     19 Defect Energy:   5.274822  Gnorm:     0.001694  CPU:   43.353
  Cycle:     20 Defect Energy:   5.264370  Gnorm:     0.001629  CPU:   44.210
  Cycle:     21 Defect Energy:   5.253318  Gnorm:     0.001557  CPU:   45.063
  Cycle:     22 Defect Energy:   5.241444  Gnorm:     0.001520  CPU:   45.916
  ** Hessian calculated **
  Cycle:     23 Defect Energy:   5.238032  Gnorm:     0.001473  CPU:   48.131
  Cycle:     24 Defect Energy:   5.233445  Gnorm:     0.001459  CPU:   48.992
  Cycle:     25 Defect Energy:   5.226696  Gnorm:     0.001443  CPU:   49.863
  Cycle:     26 Defect Energy:   5.217519  Gnorm:     0.001420  CPU:   50.743
  Cycle:     27 Defect Energy:   5.205234  Gnorm:     0.001388  CPU:   51.613
  Cycle:     28 Defect Energy:   5.193829  Gnorm:     0.001370  CPU:   52.486
  Cycle:     29 Defect Energy:   5.185459  Gnorm:     0.001363  CPU:   53.344
  Cycle:     30 Defect Energy:   5.178031  Gnorm:     0.001318  CPU:   54.183
  Cycle:     31 Defect Energy:   5.170440  Gnorm:     0.001307  CPU:   55.022
  Cycle:     32 Defect Energy:   5.160375  Gnorm:     0.001274  CPU:   55.844
  ** Hessian calculated **
  Cycle:     33 Defect Energy:   5.137028  Gnorm:     0.001155  CPU:   57.967
  Cycle:     34 Defect Energy:   5.107658  Gnorm:     0.000982  CPU:   58.795
  Cycle:     35 Defect Energy:   5.087607  Gnorm:     0.000823  CPU:   59.617
  ** Hessian calculated **
  Cycle:     36 Defect Energy:   5.067529  Gnorm:     0.000702  CPU:   61.763
  Cycle:     37 Defect Energy:   5.042899  Gnorm:     0.000447  CPU:   62.605
  Cycle:     38 Defect Energy:   5.037319  Gnorm:     0.000405  CPU:   63.433
  ** Hessian calculated **
  Cycle:     39 Defect Energy:   5.028177  Gnorm:     0.000308  CPU:   65.571
  Cycle:     40 Defect Energy:   5.017834  Gnorm:     0.000338  CPU:   66.366
  Cycle:     41 Defect Energy:   5.013378  Gnorm:     0.000299  CPU:   67.196
  Cycle:     42 Defect Energy:   5.007657  Gnorm:     0.000370  CPU:   68.017
  Cycle:     43 Defect Energy:   4.999448  Gnorm:     0.000553  CPU:   68.833
  Cycle:     44 Defect Energy:   4.993530  Gnorm:     0.000740  CPU:   69.650
  Cycle:     45 Defect Energy:   4.993322  Gnorm:     0.000736  CPU:   70.485
  ** Hessian calculated **
  Cycle:     46 Defect Energy:   4.985742  Gnorm:     0.000693  CPU:   72.611
  Cycle:     47 Defect Energy:   4.977913  Gnorm:     0.000639  CPU:   73.435
  ** Hessian calculated **
  Cycle:     48 Defect Energy:   4.974684  Gnorm:     0.000395  CPU:   75.554
  Cycle:     49 Defect Energy:   4.973117  Gnorm:     0.000304  CPU:   76.382
  Cycle:     50 Defect Energy:   4.971780  Gnorm:     0.000297  CPU:   77.205
  Cycle:     51 Defect Energy:   4.970566  Gnorm:     0.000285  CPU:   78.048
  Cycle:     52 Defect Energy:   4.969594  Gnorm:     0.000299  CPU:   78.848
  Cycle:     53 Defect Energy:   4.968628  Gnorm:     0.000315  CPU:   79.673
  Cycle:     54 Defect Energy:   4.967677  Gnorm:     0.000333  CPU:   80.491
  Cycle:     55 Defect Energy:   4.966687  Gnorm:     0.000344  CPU:   81.327
  Cycle:     56 Defect Energy:   4.965620  Gnorm:     0.000359  CPU:   82.150
  Cycle:     57 Defect Energy:   4.964597  Gnorm:     0.000361  CPU:   82.968
  ** Hessian calculated **
  Cycle:     58 Defect Energy:   4.964266  Gnorm:     0.000342  CPU:   85.097
  Cycle:     59 Defect Energy:   4.963845  Gnorm:     0.000329  CPU:   85.919
  Cycle:     60 Defect Energy:   4.963331  Gnorm:     0.000315  CPU:   86.746
  Cycle:     61 Defect Energy:   4.962765  Gnorm:     0.000304  CPU:   87.578
  Cycle:     62 Defect Energy:   4.962329  Gnorm:     0.000291  CPU:   88.367
  Cycle:     63 Defect Energy:   4.961906  Gnorm:     0.000285  CPU:   89.198
  Cycle:     64 Defect Energy:   4.961496  Gnorm:     0.000285  CPU:   90.024
  Cycle:     65 Defect Energy:   4.960861  Gnorm:     0.000276  CPU:   90.857
  Cycle:     66 Defect Energy:   4.960263  Gnorm:     0.000279  CPU:   91.687
  Cycle:     67 Defect Energy:   4.959354  Gnorm:     0.000275  CPU:   92.515
  ** Hessian calculated **
  Cycle:     68 Defect Energy:   4.959039  Gnorm:     0.000272  CPU:   94.636
  Cycle:     69 Defect Energy:   4.958588  Gnorm:     0.000270  CPU:   95.467
  Cycle:     70 Defect Energy:   4.958060  Gnorm:     0.000275  CPU:   96.291
  Cycle:     71 Defect Energy:   4.957394  Gnorm:     0.000276  CPU:   97.123
  Cycle:     72 Defect Energy:   4.957029  Gnorm:     0.000280  CPU:   97.961
  Cycle:     73 Defect Energy:   4.956699  Gnorm:     0.000285  CPU:   98.783
  Cycle:     74 Defect Energy:   4.956412  Gnorm:     0.000293  CPU:   99.599
  Cycle:     75 Defect Energy:   4.956033  Gnorm:     0.000298  CPU:  100.433
  Cycle:     76 Defect Energy:   4.955658  Gnorm:     0.000304  CPU:  101.267
  Cycle:     77 Defect Energy:   4.955052  Gnorm:     0.000313  CPU:  102.096
  ** Hessian calculated **
  Cycle:     78 Defect Energy:   4.954860  Gnorm:     0.000305  CPU:  104.176
  Cycle:     79 Defect Energy:   4.954591  Gnorm:     0.000300  CPU:  104.997
  Cycle:     80 Defect Energy:   4.954240  Gnorm:     0.000291  CPU:  105.817
  Cycle:     81 Defect Energy:   4.953780  Gnorm:     0.000283  CPU:  106.637
  Cycle:     82 Defect Energy:   4.953292  Gnorm:     0.000274  CPU:  107.466
  Cycle:     83 Defect Energy:   4.952842  Gnorm:     0.000267  CPU:  108.285
  Cycle:     84 Defect Energy:   4.952489  Gnorm:     0.000269  CPU:  109.101
  Cycle:     85 Defect Energy:   4.951937  Gnorm:     0.000262  CPU:  109.921
  Cycle:     86 Defect Energy:   4.951294  Gnorm:     0.000269  CPU:  110.748
  Cycle:     87 Defect Energy:   4.950171  Gnorm:     0.000279  CPU:  111.560
  ** Hessian calculated **
  Cycle:     88 Defect Energy:   4.949632  Gnorm:     0.000275  CPU:  113.634
  Cycle:     89 Defect Energy:   4.948871  Gnorm:     0.000273  CPU:  114.449
  Cycle:     90 Defect Energy:   4.947871  Gnorm:     0.000272  CPU:  115.268
  Cycle:     91 Defect Energy:   4.946570  Gnorm:     0.000273  CPU:  116.093
  Cycle:     92 Defect Energy:   4.945029  Gnorm:     0.000285  CPU:  116.931
  Cycle:     93 Defect Energy:   4.943696  Gnorm:     0.000302  CPU:  117.756
  Cycle:     94 Defect Energy:   4.942223  Gnorm:     0.000331  CPU:  118.582
  Cycle:     95 Defect Energy:   4.940339  Gnorm:     0.000371  CPU:  119.371
  Cycle:     96 Defect Energy:   4.937681  Gnorm:     0.000437  CPU:  120.215
  Cycle:     97 Defect Energy:   4.933671  Gnorm:     0.000531  CPU:  121.049
  ** Hessian calculated **
  Cycle:     98 Defect Energy:   4.931328  Gnorm:     0.000503  CPU:  123.184
  Cycle:     99 Defect Energy:   4.928117  Gnorm:     0.000487  CPU:  123.994
  Cycle:    100 Defect Energy:   4.923844  Gnorm:     0.000454  CPU:  124.807
  Cycle:    101 Defect Energy:   4.918453  Gnorm:     0.000428  CPU:  125.623
  Cycle:    102 Defect Energy:   4.912386  Gnorm:     0.000420  CPU:  126.446
  Cycle:    103 Defect Energy:   4.907492  Gnorm:     0.000428  CPU:  127.286
  Cycle:    104 Defect Energy:   4.902981  Gnorm:     0.000472  CPU:  128.114
  Cycle:    105 Defect Energy:   4.897790  Gnorm:     0.000506  CPU:  128.953
  Cycle:    106 Defect Energy:   4.892118  Gnorm:     0.000583  CPU:  129.780
  Cycle:    107 Defect Energy:   4.884943  Gnorm:     0.000667  CPU:  130.596
  ** Hessian calculated **
  Cycle:    108 Defect Energy:   4.881406  Gnorm:     0.000644  CPU:  132.737
  Cycle:    109 Defect Energy:   4.876508  Gnorm:     0.000638  CPU:  133.553
  Cycle:    110 Defect Energy:   4.870061  Gnorm:     0.000619  CPU:  134.369
  Cycle:    111 Defect Energy:   4.861950  Gnorm:     0.000611  CPU:  135.200
  Cycle:    112 Defect Energy:   4.854887  Gnorm:     0.000626  CPU:  136.028
  Cycle:    113 Defect Energy:   4.849592  Gnorm:     0.000644  CPU:  136.866
  Cycle:    114 Defect Energy:   4.845379  Gnorm:     0.000673  CPU:  137.698
  Cycle:    115 Defect Energy:   4.841402  Gnorm:     0.000692  CPU:  138.544
  Cycle:    116 Defect Energy:   4.837532  Gnorm:     0.000729  CPU:  139.376
  Cycle:    117 Defect Energy:   4.832870  Gnorm:     0.000757  CPU:  140.185
  ** Hessian calculated **
  Cycle:    118 Defect Energy:   4.822174  Gnorm:     0.000725  CPU:  142.319
  Cycle:    119 Defect Energy:   4.809319  Gnorm:     0.000685  CPU:  143.168
  Cycle:    120 Defect Energy:   4.792869  Gnorm:     0.000632  CPU:  143.995
  Cycle:    121 Defect Energy:   4.759073  Gnorm:     0.000425  CPU:  144.811
  Cycle:    122 Defect Energy:   4.748538  Gnorm:     0.000292  CPU:  145.644
  Cycle:    123 Defect Energy:   4.745056  Gnorm:     0.000110  CPU:  146.469
  Cycle:    124 Defect Energy:   4.744037  Gnorm:     0.000062  CPU:  147.300
  Cycle:    125 Defect Energy:   4.743691  Gnorm:     0.000066  CPU:  148.131
  Cycle:    126 Defect Energy:   4.743563  Gnorm:     0.000050  CPU:  148.915
  Cycle:    127 Defect Energy:   4.743494  Gnorm:     0.000048  CPU:  149.760
  ** Hessian calculated **
  Cycle:    128 Defect Energy:   4.743392  Gnorm:     0.000036  CPU:  151.889
  Cycle:    129 Defect Energy:   4.743347  Gnorm:     0.000026  CPU:  152.673


  **** Optimisation achieved ****


  Final defect energy  =        4.74333886
  Final defect Gnorm   =        0.00001852

  Components of defect energy : 

--------------------------------------------------------------------------------
  Region 1 - region 1                   =      1.53292752 eV
  Region 1 - region 2a (unrelaxed)      =      3.75267668 eV
  Region 1 - 2a (relaxed - correction)  =     -0.22414759 eV
  Region 1 (Total)                      =      5.06145662 eV
  Region 2a                             =      0.11194302 eV
  Region 2b                             =     -0.43006077 eV
--------------------------------------------------------------------------------
  Total defect energy                   =      4.74333886 eV
--------------------------------------------------------------------------------

  Largest displacement in region 2 =   0.0221 Angstroms

  Final coordinates of region 1 :

--------------------------------------------------------------------------------
   No.  Atomic        x           y           z          Radius      Charge
        Label       (Angs)      (Angs)      (Angs)       (Angs)       (e) 
--------------------------------------------------------------------------------
     1  Na    c     2.253894    0.946635    1.307258    0.000000    1.000000
     2  O     c     2.253894    2.646611    2.532225    0.000000    0.183000
     3  Na    c     4.497379    2.644782    2.539680    0.000000    1.000000
     4  Na    c     0.010408    2.644782    2.539680    0.000000    1.000000
     5  Cl    c     4.530550   -0.034507   -0.054270    0.000000    1.485000
     6  Cl    c    -0.022763   -0.034507   -0.054270    0.000000    1.485000
     7  O     c     2.253894    2.307200   -2.290062    0.000000    0.183000
     8  Na    c     2.253894    0.078792   -2.114797    0.000000    1.000000
     9  Na    c     2.253894    4.625809    1.641234    0.000000    1.000000
    10  Na    c     2.253894    2.107891    4.629940    0.000000    1.000000
    11  Na    c     2.253894   -2.378851    0.045084    0.000000    1.000000
    12  O     c     2.253894   -2.217691    2.271692    0.000000    0.183000
    13  Cl    c     4.629010    4.679310    0.015785    0.000000    1.485000
    14  Cl    c    -0.121222    4.679310    0.015785    0.000000    1.485000
    15  Na    c     4.439019    2.299521   -1.957680    0.000000    1.000000
    16  Na    c     0.068768    2.299521   -1.957680    0.000000    1.000000
    17  Cl    c     4.559932    0.069369    4.624926    0.000000    1.485000
    18  Cl    c    -0.052145    0.069369    4.624926    0.000000    1.485000
    19  Na    c     4.454591   -1.962168    2.243624    0.000000    1.000000
    20  Na    c     0.053196   -1.962168    2.243624    0.000000    1.000000
    21  Na    c     2.253894    4.474400   -1.772740    0.000000    1.000000
    22  Na    c    -2.165341    1.865548    0.068800    0.000000    1.000000
    23  Na    c     6.673128    1.865548    0.068800    0.000000    1.000000
    24  O     c     2.253894   -2.223520   -2.231239    0.000000    0.183000
    25  O     c    -2.245576    2.317485    2.301396    0.000000    0.183000
    26  O     c     6.753363    2.317485    2.301396    0.000000    0.183000
    27  Na    c    -2.202215    0.070250    2.703928    0.000000    1.000000
    28  Na    c     6.710002    0.070250    2.703928    0.000000    1.000000
    29  Na    c     2.253894   -1.652485    4.442464    0.000000    1.000000
    30  Cl    c     4.659502    4.563334    4.721046    0.000000    1.485000
    31  Cl    c    -0.151714    4.563334    4.721046    0.000000    1.485000
    32  Na    c     4.506089   -2.253845   -2.207417    0.000000    1.000000
    33  Na    c     0.001698   -2.253845   -2.207417    0.000000    1.000000
    34  Na    c     2.253894    7.302471   -0.008049    0.000000    1.000000
    35  Na    c     2.253894    2.452563   -4.485475    0.000000    1.000000
    36  O     c     2.253894    6.823513    2.225464    0.000000    0.183000
    37  O     c    -2.216142    2.252889   -2.187149    0.000000    0.183000
    38  O     c     6.723929    2.252889   -2.187149    0.000000    0.183000
    39  Na    c    -2.140807    0.018620   -2.625407    0.000000    1.000000
    40  Na    c     6.648595    0.018620   -2.625407    0.000000    1.000000
    41  Na    c    -2.350051    4.547296    1.863020    0.000000    1.000000
    42  Na    c     6.857838    4.547296    1.863020    0.000000    1.000000
    43  Na    c    -2.371024    2.664780    4.552158    0.000000    1.000000
    44  Na    c     6.878811    2.664780    4.552158    0.000000    1.000000
    45  Na    c    -2.218472   -1.857834    0.010369    0.000000    1.000000
    46  Na    c     6.726260   -1.857834    0.010369    0.000000    1.000000
    47  O     c     2.253894    2.232965    6.864883    0.000000    0.183000
    48  O     c    -2.223874   -2.181935    2.261085    0.000000    0.183000
    49  O     c     6.731661   -2.181935    2.261085    0.000000    0.183000
    50  Na    c     2.253894   -0.006744    7.128053    0.000000    1.000000
    51  Na    c     2.253894   -4.434255    2.607108    0.000000    1.000000
    52  Na    c     4.520888    6.785259    2.211759    0.000000    1.000000
    53  Na    c    -0.013101    6.785259    2.211759    0.000000    1.000000
    54  Cl    c     4.514519   -0.086731   -4.589599    0.000000    1.485000
    55  Cl    c    -0.006732   -0.086731   -4.589599    0.000000    1.485000
    56  Cl    c     4.530148   -4.540472   -0.065113    0.000000    1.485000
    57  Cl    c    -0.022361   -4.540472   -0.065113    0.000000    1.485000
    58  Na    c     4.523351    2.239691    6.723081    0.000000    1.000000
    59  Na    c    -0.015564    2.239691    6.723081    0.000000    1.000000
    60  O     c     2.253894    6.746885   -2.220190    0.000000    0.183000
    61  Na    c    -2.298961    4.507207   -1.879797    0.000000    1.000000
    62  Na    c     6.806748    4.507207   -1.879797    0.000000    1.000000
    63  Na    c     2.253894    6.232899    4.434400    0.000000    1.000000
    64  Na    c     2.253894   -2.061609   -4.477880    0.000000    1.000000
    65  O     c    -2.258847   -2.229690   -2.237401    0.000000    0.183000
    66  O     c     6.766634   -2.229690   -2.237401    0.000000    0.183000
    67  Na    c     2.253894    4.487542    6.914084    0.000000    1.000000
    68  Na    c     2.253894   -4.472557   -2.449592    0.000000    1.000000
    69  Na    c     4.512184    6.670654   -2.207748    0.000000    1.000000
    70  Na    c    -0.004397    6.670654   -2.207748    0.000000    1.000000
    71  Cl    c     4.560276    4.567838   -4.617960    0.000000    1.485000
    72  Cl    c    -0.052488    4.567838   -4.617960    0.000000    1.485000
    73  Na    c    -2.278046   -2.603127    4.486338    0.000000    1.000000
    74  Na    c     6.785834   -2.603127    4.486338    0.000000    1.000000
    75  O     c     2.253894   -2.223846    6.710908    0.000000    0.183000
    76  Na    c     9.013865    2.224709    2.200580    0.000000    1.000000
    77  Na    c    -4.506077    2.224709    2.200580    0.000000    1.000000
    78  Cl    c     9.024269    0.020832    0.039447    0.000000    1.485000
    79  Cl    c    -4.516482    0.020832    0.039447    0.000000    1.485000
    80  Na    c     6.772651    7.115495    0.008243    0.000000    1.000000
    81  Na    c    -2.264863    7.115495    0.008243    0.000000    1.000000
    82  Na    c    -2.192129    2.599725   -4.443692    0.000000    1.000000
    83  Na    c     6.699917    2.599725   -4.443692    0.000000    1.000000
    84  Cl    c     4.585514   -4.568536    4.567613    0.000000    1.485000
    85  Cl    c    -0.077727   -4.568536    4.567613    0.000000    1.485000
    86  Na    c     4.506734   -2.234795    6.641049    0.000000    1.000000
    87  Na    c     0.001053   -2.234795    6.641049    0.000000    1.000000
    88  O     c     6.782181    6.781226    2.264870    0.000000    0.183000
    89  O     c    -2.274394    6.781226    2.264870    0.000000    0.183000
    90  O     c    -2.278465    2.259724    6.788396    0.000000    0.183000
    91  O     c     6.786252    2.259724    6.788396    0.000000    0.183000
    92  Na    c    -2.241831    0.006148    6.450444    0.000000    1.000000
    93  Na    c     6.749618    0.006148    6.450444    0.000000    1.000000
    94  Na    c     6.656806   -4.450950    1.940287    0.000000    1.000000
    95  Na    c    -2.149018   -4.450950    1.940287    0.000000    1.000000
    96  Cl    c     9.064396    4.537526    0.013677    0.000000    1.485000
    97  Cl    c    -4.556608    4.537526    0.013677    0.000000    1.485000
    98  Na    c     8.989005    2.177042   -2.160225    0.000000    1.000000
    99  Na    c    -4.481218    2.177042   -2.160225    0.000000    1.000000
   100  Na    c     2.253894    6.379535   -4.475557    0.000000    1.000000
   101  Na    c     8.992701   -2.182978    2.182182    0.000000    1.000000
   102  Na    c    -4.484913   -2.182978    2.182182    0.000000    1.000000
   103  Cl    c     9.051249    0.033968    4.528215    0.000000    1.485000
   104  Cl    c    -4.543462    0.033968    4.528215    0.000000    1.485000
   105  O     c     2.253894    2.262697   -6.767531    0.000000    0.183000
   106  O     c     6.773005    6.758956   -2.241135    0.000000    0.183000
   107  O     c    -2.265218    6.758956   -2.241135    0.000000    0.183000
   108  Na    c     2.253894    0.015354   -6.690335    0.000000    1.000000
   109  Na    c     2.253894    9.026634    2.663697    0.000000    1.000000
   110  Na    c     6.777141    6.438714    4.517943    0.000000    1.000000
   111  Na    c    -2.269354    6.438714    4.517943    0.000000    1.000000
   112  Na    c    -2.277324   -2.575667   -4.481566    0.000000    1.000000
   113  Na    c     6.785111   -2.575667   -4.481566    0.000000    1.000000
   114  O     c     2.253894    6.734893    6.696504    0.000000    0.183000
   115  Na    c    -2.198887    4.509439    7.089291    0.000000    1.000000
   116  Na    c     6.706674    4.509439    7.089291    0.000000    1.000000
   117  Na    c     6.793438   -4.487647   -1.918212    0.000000    1.000000
   118  Na    c    -2.285651   -4.487647   -1.918212    0.000000    1.000000
   119  Cl    c     4.551826    9.071705   -0.002122    0.000000    1.485000
   120  Cl    c    -0.044039    9.071705   -0.002122    0.000000    1.485000
   121  Na    c     4.504432    2.245603   -6.686859    0.000000    1.000000
   122  Na    c     0.003355    2.245603   -6.686859    0.000000    1.000000
   123  Na    c     2.253894    2.356140    9.077198    0.000000    1.000000
   124  Na    c     2.253894   -6.463258    0.019936    0.000000    1.000000
   125  O     c     2.253894   -6.719898    2.277166    0.000000    0.183000
   126  O     c     6.766332   -2.249761    6.737429    0.000000    0.183000
   127  O     c    -2.258544   -2.249761    6.737429    0.000000    0.183000
   128  Na    c     2.253894   -4.479100    6.366800    0.000000    1.000000
   129  Cl    c     4.496249   -4.523931   -4.526835    0.000000    1.485000
   130  Cl    c     0.011538   -4.523931   -4.526835    0.000000    1.485000
   131  Na    c     4.513185    6.769027    6.658169    0.000000    1.000000
   132  Na    c    -0.005398    6.769027    6.658169    0.000000    1.000000
   133  Na    c     9.011785   -2.150211   -2.193371    0.000000    1.000000
   134  Na    c    -4.503997   -2.150211   -2.193371    0.000000    1.000000
   135  Cl    c     9.086851    4.553645    4.520072    0.000000    1.485000
   136  Cl    c    -4.579064    4.553645    4.520072    0.000000    1.485000
   137  Na    c     2.253894    4.505097   -6.986435    0.000000    1.000000
   138  Na    c     2.253894    8.991756   -2.610161    0.000000    1.000000
   139  Cl    c     4.518868   -0.009282    9.093143    0.000000    1.485000
   140  Cl    c    -0.011081   -0.009282    9.093143    0.000000    1.485000
   141  Na    c     4.502696   -6.696235    2.259559    0.000000    1.000000
   142  Na    c     0.005091   -6.696235    2.259559    0.000000    1.000000
   143  O     c     2.253894   -2.242600   -6.742381    0.000000    0.183000
   144  O     c     2.253894   -6.727714   -2.243532    0.000000    0.183000
   145  Cl    c     4.545192    9.108588    4.542321    0.000000    1.485000
   146  Cl    c    -0.037405    9.108588    4.542321    0.000000    1.485000
   147  Na    c     4.510559   -2.246154   -6.671852    0.000000    1.000000
   148  Na    c    -0.002772   -2.246154   -6.671852    0.000000    1.000000
   149  Na    c     9.029531    6.776789    2.302961    0.000000    1.000000
   150  Na    c    -4.521744    6.776789    2.302961    0.000000    1.000000
   151  Cl    c     9.052655   -0.002501   -4.489412    0.000000    1.485000
   152  Cl    c    -4.544868   -0.002501   -4.489412    0.000000    1.485000
   153  Na    c     2.253894   -2.533632    8.971186    0.000000    1.000000
   154  Na    c     2.253894   -7.069209    4.498158    0.000000    1.000000
   155  Na    c     6.749550    6.502098   -4.499043    0.000000    1.000000
   156  Na    c    -2.241763    6.502098   -4.499043    0.000000    1.000000
   157  Cl    c     4.475209    4.514572    9.070399    0.000000    1.485000
   158  Cl    c     0.032578    4.514572    9.070399    0.000000    1.485000
   159  Na    c     4.510337   -6.677786   -2.199847    0.000000    1.000000
   160  Na    c    -0.002549   -6.677786   -2.199847    0.000000    1.000000
   161  Cl    c     9.055909   -4.514330    0.017856    0.000000    1.485000
   162  Cl    c    -4.548122   -4.514330    0.017856    0.000000    1.485000
   163  Na    c     9.025503    2.191023    6.828523    0.000000    1.000000
   164  Na    c    -4.517716    2.191023    6.828523    0.000000    1.000000
   165  O     c    -2.247867    2.250629   -6.712495    0.000000    0.183000
   166  O     c     6.755654    2.250629   -6.712495    0.000000    0.183000
   167  Na    c    -2.273263    9.020316    2.553895    0.000000    1.000000
   168  Na    c     6.781051    9.020316    2.553895    0.000000    1.000000
   169  Na    c     6.740365   -0.006958   -6.465741    0.000000    1.000000
   170  Na    c    -2.232578   -0.006958   -6.465741    0.000000    1.000000
   171  Na    c    11.304354    1.922645    0.010210    0.000000    1.000000
   172  Na    c    -6.796567    1.922645    0.010210    0.000000    1.000000
[...]
    238 y          4.507787      4.570702     0.062915    Cartesian    1.40
    238 z          4.507787      4.727411     0.219623    Cartesian    4.87
    239 x          2.253894      2.253894     0.000000    Cartesian    0.00
    239 y          6.761681      6.823523     0.061842    Cartesian    0.91
    239 z          2.253894      2.225436    -0.028458    Cartesian   -1.26
    240 x         -2.253894     -2.216169     0.037725    Cartesian   -1.67
    240 y          2.253894      2.252884    -0.001009    Cartesian   -0.04
    240 z         -2.253894     -2.187140     0.066754    Cartesian   -2.96
    241 x          2.253894      2.253894     0.000000    Cartesian    0.00
    241 y          2.253894      2.232972    -0.020922    Cartesian   -0.93
    241 z          6.761681      6.864923     0.103243    Cartesian    1.53
    242 x         -2.253894     -2.223900     0.029994    Cartesian   -1.33
    242 y         -2.253894     -2.181925     0.071969    Cartesian   -3.19
    242 z          2.253894      2.261095     0.007201    Cartesian    0.32
    243 x          4.507787      4.525167     0.017380    Cartesian    0.39
    243 y          0.000000     -0.099403    -0.099403    Cartesian    0.00
    243 z         -4.507787     -4.601361    -0.093574    Cartesian    2.08
    244 x          4.507787      4.539191     0.031404    Cartesian    0.70
    244 y         -4.507787     -4.550244    -0.042457    Cartesian    0.94
    244 z          0.000000     -0.073057    -0.073057    Cartesian    0.00
    245 x          2.253894      2.253894     0.000000    Cartesian    0.00
    245 y          6.761681      6.746933    -0.014748    Cartesian   -0.22
    245 z         -2.253894     -2.220187     0.033707    Cartesian   -1.50
    246 x         -2.253894     -2.258847    -0.004953    Cartesian    0.22
    246 y         -2.253894     -2.229685     0.024209    Cartesian   -1.07
    246 z         -2.253894     -2.237409     0.016485    Cartesian   -0.73
    247 x          4.507787      4.569400     0.061613    Cartesian    1.37
    247 y          4.507787      4.577372     0.069585    Cartesian    1.54
    247 z         -4.507787     -4.629700    -0.121913    Cartesian    2.70
    248 x          2.253894      2.253894     0.000000    Cartesian    0.00
    248 y         -2.253894     -2.223797     0.030096    Cartesian   -1.34
    248 z          6.761681      6.710969    -0.050711    Cartesian   -0.75
    249 x          9.015574      9.022376     0.006801    Cartesian    0.08
    249 y          0.000000      0.022688     0.022688    Cartesian    0.00
    249 z          0.000000      0.040437     0.040437    Cartesian    0.00
    250 x          4.507787      4.590707     0.082920    Cartesian    1.84
    250 y         -4.507787     -4.574876    -0.067089    Cartesian    1.49
    250 z          4.507787      4.577498     0.069711    Cartesian    1.55
    251 x          6.761681      6.782210     0.020529    Cartesian    0.30
    251 y          6.761681      6.781244     0.019563    Cartesian    0.29
    251 z          2.253894      2.264854     0.010960    Cartesian    0.49
    252 x         -2.253894     -2.278482    -0.024588    Cartesian    1.09
    252 y          2.253894      2.259733     0.005840    Cartesian    0.26
    252 z          6.761681      6.788418     0.026737    Cartesian    0.40
    253 x          9.015574      9.060344     0.044770    Cartesian    0.50
    253 y          4.507787      4.539612     0.031825    Cartesian    0.71
    253 z          0.000000      0.017057     0.017057    Cartesian    0.00
    254 x          9.015574      9.050448     0.034873    Cartesian    0.39
    254 y          0.000000      0.034897     0.034897    Cartesian    0.00
    254 z          4.507787      4.525545     0.017758    Cartesian    0.39
    255 x          2.253894      2.253894     0.000000    Cartesian    0.00
    255 y          2.253894      2.262695     0.008801    Cartesian    0.39
    255 z         -6.761681     -6.767571    -0.005891    Cartesian    0.09
    256 x          6.761681      6.773022     0.011341    Cartesian    0.17
    256 y          6.761681      6.758988    -0.002693    Cartesian   -0.04
    256 z         -2.253894     -2.241132     0.012762    Cartesian   -0.57
    257 x          2.253894      2.253894     0.000000    Cartesian    0.00
    257 y          6.761681      6.734852    -0.026829    Cartesian   -0.40
    257 z          6.761681      6.696539    -0.065142    Cartesian   -0.96
    258 x          4.507787      4.550555     0.042768    Cartesian    0.95
    258 y          9.015574      9.069571     0.053997    Cartesian    0.60
    258 z          0.000000     -0.001029    -0.001029    Cartesian    0.00
    259 x          2.253894      2.253894     0.000000    Cartesian    0.00
    259 y         -6.761681     -6.719941     0.041740    Cartesian   -0.62
    259 z          2.253894      2.277202     0.023308    Cartesian    1.03
    260 x          6.761681      6.766342     0.004661    Cartesian    0.07
    260 y         -2.253894     -2.249805     0.004089    Cartesian   -0.18
    260 z          6.761681      6.737427    -0.024254    Cartesian   -0.36
    261 x          4.507787      4.497372    -0.010415    Cartesian   -0.23
    261 y         -4.507787     -4.524130    -0.016343    Cartesian    0.36
    261 z         -4.507787     -4.529334    -0.021547    Cartesian    0.48
    262 x          9.015574      9.085768     0.070194    Cartesian    0.78
    262 y          4.507787      4.553079     0.045291    Cartesian    1.00
    262 z          4.507787      4.522138     0.014351    Cartesian    0.32
    263 x          4.507787      4.522108     0.014321    Cartesian    0.32
    263 y          0.000000     -0.007435    -0.007435    Cartesian    0.00
    263 z          9.015574      9.098170     0.082596    Cartesian    0.92
    264 x          2.253894      2.253894     0.000000    Cartesian    0.00
    264 y         -2.253894     -2.242567     0.011327    Cartesian   -0.50
    264 z         -6.761681     -6.742353     0.019328    Cartesian   -0.29
    265 x          2.253894      2.253894     0.000000    Cartesian    0.00
    265 y         -6.761681     -6.727682     0.033999    Cartesian   -0.50
    265 z         -2.253894     -2.243567     0.010327    Cartesian   -0.46
    266 x          4.507787      4.545715     0.037928    Cartesian    0.84
    266 y          9.015574      9.117149     0.101574    Cartesian    1.13
    266 z          4.507787      4.543684     0.035897    Cartesian    0.80
    267 x          9.015574      9.056009     0.040434    Cartesian    0.45
    267 y          0.000000     -0.003700    -0.003700    Cartesian    0.00
    267 z         -4.507787     -4.485944     0.021843    Cartesian   -0.48
    268 x          4.507787      4.474034    -0.033753    Cartesian   -0.75
    268 y          4.507787      4.513161     0.005374    Cartesian    0.12
    268 z          9.015574      9.071090     0.055516    Cartesian    0.62
    269 x          9.015574      9.056775     0.041201    Cartesian    0.46
    269 y         -4.507787     -4.518472    -0.010685    Cartesian    0.24
    269 z          0.000000      0.017618     0.017618    Cartesian    0.00
    270 x         -2.253894     -2.247849     0.006044    Cartesian   -0.27
    270 y          2.253894      2.250671    -0.003223    Cartesian   -0.14
    270 z         -6.761681     -6.712518     0.049162    Cartesian   -0.73
    271 x          6.761681      6.774073     0.012392    Cartesian    0.18
    271 y          6.761681      6.761441    -0.000239    Cartesian   -0.00
    271 z          6.761681      6.776669     0.014988    Cartesian    0.22
    272 x         11.269468     11.272614     0.003146    Cartesian    0.03
    272 y          2.253894      2.246591    -0.007303    Cartesian   -0.32
    272 z          2.253894      2.255276     0.001382    Cartesian    0.06
    273 x          9.015574      9.054883     0.039308    Cartesian    0.44
    273 y          4.507787      4.531645     0.023858    Cartesian    0.53
    273 z         -4.507787     -4.510390    -0.002603    Cartesian    0.06
    274 x         -2.253894     -2.246455     0.007438    Cartesian   -0.33
    274 y         -6.761681     -6.726422     0.035259    Cartesian   -0.52
    274 z          2.253894      2.240803    -0.013090    Cartesian   -0.58
    275 x          2.253894      2.253894     0.000000    Cartesian    0.00
    275 y          6.761681      6.746504    -0.015176    Cartesian   -0.22
    275 z         -6.761681     -6.737257     0.024423    Cartesian   -0.36
    276 x          9.015574      9.072372     0.056798    Cartesian    0.63
    276 y         -4.507787     -4.499615     0.008172    Cartesian   -0.18
    276 z          4.507787      4.537092     0.029305    Cartesian    0.65
    277 x         11.269468     11.260250    -0.009218    Cartesian   -0.08
    277 y          2.253894      2.239387    -0.014506    Cartesian   -0.64
    277 z         -2.253894     -2.233149     0.020745    Cartesian   -0.92
    278 x         -2.253894     -2.259482    -0.005588    Cartesian    0.25
    278 y         -2.253894     -2.267298    -0.013404    Cartesian    0.59
    278 z         -6.761681     -6.738213     0.023468    Cartesian   -0.35
    279 x          4.507787      4.524356     0.016569    Cartesian    0.37
    279 y          9.015574      9.091489     0.075915    Cartesian    0.84
    279 z         -4.507787     -4.515149    -0.007361    Cartesian    0.16
    280 x          6.761681      6.767093     0.005413    Cartesian    0.08
    280 y         -6.761681     -6.749598     0.012083    Cartesian   -0.18
    280 z         -2.253894     -2.237130     0.016764    Cartesian   -0.74
    281 x         11.269468     11.260524    -0.008944    Cartesian   -0.08
    281 y         -2.253894     -2.227333     0.026561    Cartesian   -1.18
    281 z          2.253894      2.263705     0.009811    Cartesian    0.44
    282 x          2.253894      2.253894     0.000000    Cartesian    0.00
    282 y         -6.761681     -6.748337     0.013344    Cartesian   -0.20
    282 z          6.761681      6.727860    -0.033821    Cartesian   -0.50
    283 x          2.253894      2.253894     0.000000    Cartesian    0.00
    283 y         11.269468     11.261963    -0.007505    Cartesian   -0.07
    283 z          2.253894      2.271657     0.017763    Cartesian    0.79
    284 x          4.507787      4.528006     0.020219    Cartesian    0.45
    284 y         -4.507787     -4.522113    -0.014326    Cartesian    0.32
    284 z          9.015574      9.067711     0.052137    Cartesian    0.58
    285 x         11.269468     11.269093    -0.000375    Cartesian   -0.00
    285 y         -2.253894     -2.227796     0.026097    Cartesian   -1.16
    285 z         -2.253894     -2.254441    -0.000547    Cartesian    0.02
    286 x          4.507787      4.517342     0.009555    Cartesian    0.21
    286 y          0.000000      0.008405     0.008405    Cartesian    0.00
    286 z         -9.015574     -9.098006    -0.082432    Cartesian    0.91
    287 x          9.015574      9.083602     0.068028    Cartesian    0.75
    287 y          9.015574      9.021826     0.006251    Cartesian    0.07
    287 z          0.000000      0.006610     0.006610    Cartesian    0.00
    288 x          2.253894      2.253894     0.000000    Cartesian    0.00
    288 y          2.253894      2.258881     0.004987    Cartesian    0.22
    288 z         11.269468     11.294243     0.024775    Cartesian    0.22
    289 x          9.015574      9.062914     0.047339    Cartesian    0.53
    289 y         -4.507787     -4.520661    -0.012874    Cartesian    0.29
    289 z         -4.507787     -4.533383    -0.025596    Cartesian    0.57
    290 x          6.761681      6.768586     0.006905    Cartesian    0.10
    290 y          6.761681      6.742529    -0.019151    Cartesian   -0.28
    290 z         -6.761681     -6.759830     0.001850    Cartesian   -0.03
    291 x          2.253894      2.253894     0.000000    Cartesian    0.00
    291 y         11.269468     11.249706    -0.019762    Cartesian   -0.18
    291 z         -2.253894     -2.268041    -0.014148    Cartesian    0.63
    292 x          9.015574      9.008806    -0.006768    Cartesian   -0.08
    292 y          0.000000     -0.003148    -0.003148    Cartesian    0.00
    292 z          9.015574      9.057284     0.041709    Cartesian    0.46
    293 x          4.507787      4.491572    -0.016215    Cartesian   -0.36
    293 y         -9.015574     -9.053948    -0.038373    Cartesian    0.43
    293 z          0.000000      0.009112     0.009112    Cartesian    0.00
    294 x         11.269468     11.278904     0.009436    Cartesian    0.08
    294 y          6.761681      6.759634    -0.002047    Cartesian   -0.03
    294 z          2.253894      2.247771    -0.006123    Cartesian   -0.27
    295 x          4.507787      4.528416     0.020629    Cartesian    0.46
    295 y          4.507787      4.514879     0.007092    Cartesian    0.16
    295 z         -9.015574     -9.025904    -0.010330    Cartesian    0.11
    296 x         11.269468     11.275924     0.006455    Cartesian    0.06
    296 y          2.253894      2.267428     0.013534    Cartesian    0.60
    296 z          6.761681      6.759170    -0.002511    Cartesian   -0.04
    297 x          9.015574      9.036335     0.020761    Cartesian    0.23
    297 y          9.015574      9.058924     0.043350    Cartesian    0.48
    297 z          4.507787      4.502467    -0.005320    Cartesian   -0.12
    298 x          6.761681      6.770777     0.009097    Cartesian    0.13
    298 y         -6.761681     -6.744809     0.016871    Cartesian   -0.25
    298 z          6.761681      6.777457     0.015776    Cartesian    0.23
    299 x          2.253894      2.253894     0.000000    Cartesian    0.00
    299 y         -2.253894     -2.288052    -0.034159    Cartesian    1.52
    299 z         11.269468     11.249166    -0.020302    Cartesian   -0.18
    300 x          9.015574      9.109090     0.093516    Cartesian    1.04
    300 y          4.507787      4.513866     0.006079    Cartesian    0.13
    300 z          9.015574      9.027645     0.012070    Cartesian    0.13
    301 x         11.269468     11.273216     0.003748    Cartesian    0.03
    301 y          6.761681      6.761742     0.000061    Cartesian    0.00
    301 z         -2.253894     -2.233250     0.020644    Cartesian   -0.92
    302 x         -2.253894     -2.257016    -0.003122    Cartesian    0.14
    302 y         11.269468     11.267659    -0.001809    Cartesian   -0.02
    302 z          2.253894      2.270568     0.016674    Cartesian    0.74
    303 x          4.507787      4.523071     0.015284    Cartesian    0.34
    303 y         -9.015574     -9.042110    -0.026536    Cartesian    0.29
    303 z          4.507787      4.506878    -0.000910    Cartesian   -0.02
    304 x          2.253894      2.253894     0.000000    Cartesian    0.00
    304 y         -6.761681     -6.769136    -0.007455    Cartesian    0.11
    304 z         -6.761681     -6.748689     0.012992    Cartesian   -0.19
    305 x         11.269468     11.273825     0.004357    Cartesian    0.04
    305 y         -2.253894     -2.256769    -0.002876    Cartesian    0.13
    305 z          6.761681      6.754426    -0.007255    Cartesian   -0.11
    306 x          6.761681      6.764067     0.002386    Cartesian    0.04
    306 y          2.253894      2.233949    -0.019944    Cartesian   -0.88
    306 z         11.269468     11.272369     0.002901    Cartesian    0.03
    307 x          4.507787      4.536738     0.028951    Cartesian    0.64
    307 y          9.015574      9.029107     0.013533    Cartesian    0.15
    307 z          9.015574      9.064492     0.048917    Cartesian    0.54
    308 x         13.523362     13.571813     0.048452    Cartesian    0.36
    308 y          0.000000     -0.008480    -0.008480    Cartesian    0.00
    308 z          0.000000     -0.004117    -0.004117    Cartesian    0.00
    309 x          6.761681      6.768776     0.007096    Cartesian    0.10
    309 y         11.269468     11.256743    -0.012725    Cartesian   -0.11
    309 z         -2.253894     -2.260162    -0.006268    Cartesian    0.28
    310 x          2.253894      2.253894     0.000000    Cartesian    0.00
    310 y         11.269468     11.261644    -0.007824    Cartesian   -0.07
    310 z          6.761681      6.757008    -0.004673    Cartesian   -0.07
    311 x          9.015574      9.021658     0.006084    Cartesian    0.07
    311 y          9.015574      9.057153     0.041578    Cartesian    0.46
    311 z         -4.507787     -4.501703     0.006084    Cartesian   -0.13
    312 x          2.253894      2.253894     0.000000    Cartesian    0.00
    312 y          6.761681      6.770588     0.008907    Cartesian    0.13
    312 z         11.269468     11.260534    -0.008934    Cartesian   -0.08
    313 x         13.523362     13.577500     0.054139    Cartesian    0.40
    313 y          4.507787      4.503839    -0.003948    Cartesian   -0.09
    313 z          0.000000     -0.000255    -0.000255    Cartesian    0.00
    314 x          4.507787      4.554437     0.046650    Cartesian    1.03
    314 y         -4.507787     -4.540791    -0.033003    Cartesian    0.73
    314 z         -9.015574     -9.040416    -0.024842    Cartesian    0.28
    315 x          6.761681      6.764672     0.002991    Cartesian    0.04
    315 y         -2.253894     -2.246613     0.007280    Cartesian   -0.32
    315 z         11.269468     11.276558     0.007090    Cartesian    0.06
    316 x         13.523362     13.573627     0.050265    Cartesian    0.37
    316 y          0.000000     -0.008594    -0.008594    Cartesian    0.00
    316 z          4.507787      4.518248     0.010461    Cartesian    0.23
    317 x          4.507787      4.512667     0.004879    Cartesian    0.11
    317 y         -9.015574     -9.053572    -0.037997    Cartesian    0.42
    317 z         -4.507787     -4.521050    -0.013263    Cartesian    0.29
    318 x         11.269468     11.271448     0.001980    Cartesian    0.02
    318 y          2.253894      2.266682     0.012789    Cartesian    0.57
    318 z         -6.761681     -6.745022     0.016659    Cartesian   -0.25
--------------------------------------------------------------------------------


  Time to end of optimisation  =      153.5388 seconds


  Peak dynamic memory used =      93.00 MB 


  Timing analysis for GULP :

--------------------------------------------------------------------------------
  Task / Subroutine                                          Time (Seconds)
--------------------------------------------------------------------------------
  Calculation of reciprocal space energy and derivatives          0.0007
  Calculation of reciprocal space energy using symmetry           0.0008
  Calculation of real space energy and derivatives                0.0031
  Calculation of real space energy using symmetry                 0.0076
  Calculation for region 1 energy and derivatives (2-b)          83.3372
  Calculation for region 2a energy                               63.8433
  Calculation for region 2b energy                                0.0253
  Calculation and manipulation of Hessian matrix                  0.2150
  Calculation of matrix inversion                                 5.5853
  Symmetry generation of equivalent positions                     0.0044
--------------------------------------------------------------------------------
  Total CPU time                                                153.5389
--------------------------------------------------------------------------------


  Dump file written as Na3OCl.grs


  Job Finished at 10:47.09  4th December   2020                               

