********************************************************************************
*                       GENERAL UTILITY LATTICE PROGRAM                        *
*                                 Julian Gale                                  *
*                       Curtin Institute for Computation                       *
*                    School of Molecular and Life Sciences                     *
*                    Curtin University, Western Australia                      *
********************************************************************************
* Version = 5.2.0 * Last modified =  10th September 2020                       *
********************************************************************************
*  optimise     - perform optimisation run                                     *
*  conp         - constant pressure calculation                                *
*  property     - calculate properties for final geometry                      *
*  defect       - perform defect calculation after bulk run                    *
*  compare      - compare initial and final structures                         *
********************************************************************************

  Job Started  at 10:45.50  4th December   2020                               

  Number of CPUs =     1


  Total number of configurations input =      1

********************************************************************************
*  Input for Configuration =   1                                               *
********************************************************************************

  Formula = ClONa3                                                      

  Number of irreducible atoms/shells =       5


  Total number atoms/shells =       7

  Dimensionality = 3               :  Bulk   


  Symmetry :

  Crystal family                   :  Cubic       
  Crystal class  (Groth - 1921)    :  Cubic Hexakisoctahedral              

  Space group (centrosymmetric)    :  P M 3 M         

  Patterson group                  :  P m -3 m 

  Cartesian lattice vectors (Angstroms) :

        4.504000    0.000000    0.000000
        0.000000    4.504000    0.000000
        0.000000    0.000000    4.504000

  Cell parameters (Angstroms/Degrees):

  a =       4.5040    alpha =  90.0000
  b =       4.5040    beta  =  90.0000
  c =       4.5040    gamma =  90.0000

  Initial cell volume =          91.368216 Angs**3

  Temperature of configuration =   0.00     K 

  Pressure of configuration =         0.000 GPa 

  Fractional coordinates of asymmetric unit :

--------------------------------------------------------------------------------
   No.  Atomic       x           y          z         Charge      Occupancy
        Label      (Frac)      (Frac)     (Frac)        (e)         (Frac)  
--------------------------------------------------------------------------------
      1 Cl    c    0.000000    0.000000    0.000000     1.48500    1.000000    
      2 O     c    0.500000    0.500000    0.500000     0.18300    1.000000    
      3 Na    c    0.500000    0.500000    0.000000     1.00000    1.000000    
      4 Cl    s    0.000000    0.000000    0.000000    -2.48500    1.000000    
      5 O     s    0.500000    0.500000    0.500000    -2.18300    1.000000    
--------------------------------------------------------------------------------


  Constraints : 

--------------------------------------------------------------------------------
  Constraint no.      Unconstrained     Constrained    Coefficient    Offset
                         Variable         Variable
--------------------------------------------------------------------------------
           1              Strain 1        Strain 2       1.00000      0.0000
           2              Strain 1        Strain 3       1.00000      0.0000
--------------------------------------------------------------------------------


********************************************************************************
*  General input information                                                   *
********************************************************************************

  Species output for all configurations : 

--------------------------------------------------------------------------------
  Species    Type    Atomic    Atomic    Charge       Radii (Angs)     Library
                     Number     Mass       (e)     Cova   Ionic  VDW   Symbol
--------------------------------------------------------------------------------
    Na       Core       11      22.99   1.000000   0.970  0.000  2.300          
    O        Core        8      16.00   0.183000   0.730  0.000  1.360          
    O        Shell       8       0.00  -2.183000   0.730  0.000  1.360          
    Cl       Core       17      35.45   1.485000   0.990  0.000  1.650          
    Cl       Shell      17       0.00  -2.485000   0.990  0.000  1.650          
    Mg       Core       12      24.31   0.415000   1.100  0.000  0.000          
    Mg       Shell      12       0.00   1.585000   1.100  0.000  0.000          
    Ca       Core       20      40.08  -1.135000   0.990  0.000  0.000          
    Ca       Shell      20       0.00   3.135000   0.990  0.000  0.000          
    Sr       Core       38      87.62  -1.251000   1.120  0.000  0.000          
    Sr       Shell      38       0.00   3.251000   1.120  0.000  0.000          
    Ba       Core       56     137.33  -7.203000   1.340  0.000  0.000          
    Ba       Shell      56       0.00   9.203000   1.340  0.000  0.000          
--------------------------------------------------------------------------------


  Lattice summation method               =    Ewald          (3-D)
                                         =    Parry          (2-D)
                                         =    Saunders et al (1-D)
  Accuracy factor for lattice sums       =   12.000


  Analytic derivatives to be used

  Time limit = Infinity

  Maximum range for interatomic potentials =    100000.000000 Angstroms

  General interatomic potentials :

--------------------------------------------------------------------------------
Atom  Types   Potential      Parameter       Value         Units   Cutoffs(Ang)
  1     2                                                            Min /  Max 
--------------------------------------------------------------------------------
O    c O    s Spring (c-s)  Spring k 2       593.71600    eV*Ang^-2 0.000  0.800
                            Spring k 4       0.0000000    eV*Ang^-4 
--------------------------------------------------------------------------------
Cl   c Cl   s Spring (c-s)  Spring k 2       29.380000    eV*Ang^-2 0.000  0.800
                            Spring k 4       0.0000000    eV*Ang^-4 
--------------------------------------------------------------------------------
Mg   c Mg   s Spring (c-s)  Spring k 2       361.60000    eV*Ang^-2 0.000  0.800
                            Spring k 4       0.0000000    eV*Ang^-4 
--------------------------------------------------------------------------------
Ca   c Ca   s Spring (c-s)  Spring k 2       110.20000    eV*Ang^-2 0.000  0.800
                            Spring k 4       0.0000000    eV*Ang^-4 
--------------------------------------------------------------------------------
Sr   c Sr   s Spring (c-s)  Spring k 2       71.700000    eV*Ang^-2 0.000  0.800
                            Spring k 4       0.0000000    eV*Ang^-4 
--------------------------------------------------------------------------------
Ba   c Ba   s Spring (c-s)  Spring k 2       495.20000    eV*Ang^-2 0.000  0.800
                            Spring k 4       0.0000000    eV*Ang^-4 
--------------------------------------------------------------------------------
Na   c Na   c Buckingham    Buckingham A     1788.1900    eV        0.000 12.000
                            Buckingham rho  0.15900000    Ang       
                            Buckingham C     0.0000000    eV*Ang^6  
--------------------------------------------------------------------------------
Na   c O    s Buckingham    Buckingham A     1226.8400    eV        0.000 12.000
                            Buckingham rho  0.30700000    Ang       
                            Buckingham C     0.0000000    eV*Ang^6  
--------------------------------------------------------------------------------
Na   c Cl   s Buckingham    Buckingham A     2314.7000    eV        0.000 12.000
                            Buckingham rho  0.29000000    Ang       
                            Buckingham C     0.0000000    eV*Ang^6  
--------------------------------------------------------------------------------
O    s O    s Buckingham    Buckingham A     22764.300    eV        0.000 12.000
                            Buckingham rho  0.14900000    Ang       
                            Buckingham C     13.190000    eV*Ang^6  
--------------------------------------------------------------------------------
O    s Cl   s Buckingham    Buckingham A     8286.9100    eV        0.000 12.000
                            Buckingham rho  0.25900000    Ang       
                            Buckingham C     62.200000    eV*Ang^6  
--------------------------------------------------------------------------------
Cl   s Cl   s Buckingham    Buckingham A     1227.2000    eV        0.000 12.000
                            Buckingham rho  0.32100000    Ang       
                            Buckingham C     14.530000    eV*Ang^6  
--------------------------------------------------------------------------------
O    s Mg   s Buckingham    Buckingham A     1428.5000    eV        0.000 12.000
                            Buckingham rho  0.29450000    Ang       
                            Buckingham C     0.0000000    eV*Ang^6  
--------------------------------------------------------------------------------
Mg   s Cl   s Buckingham    Buckingham A     4914.5400    eV        0.000 12.000
                            Buckingham rho  0.25700000    Ang       
                            Buckingham C     0.0000000    eV*Ang^6  
--------------------------------------------------------------------------------
O    s Ca   s Buckingham    Buckingham A     1090.4000    eV        0.000 12.000
                            Buckingham rho  0.34370000    Ang       
                            Buckingham C     0.0000000    eV*Ang^6  
--------------------------------------------------------------------------------
Cl   s Ca   s Buckingham    Buckingham A     2302.0000    eV        0.000 12.000
                            Buckingham rho  0.34020000    Ang       
                            Buckingham C     0.0000000    eV*Ang^6  
--------------------------------------------------------------------------------
O    s Sr   s Buckingham    Buckingham A     959.10000    eV        0.000 12.000
                            Buckingham rho  0.37210000    Ang       
                            Buckingham C     0.0000000    eV*Ang^6  
--------------------------------------------------------------------------------
Cl   s Sr   s Buckingham    Buckingham A     2191.0900    eV        0.000 12.000
                            Buckingham rho  0.34570000    Ang       
                            Buckingham C     0.0000000    eV*Ang^6  
--------------------------------------------------------------------------------
O    s Ba   s Buckingham    Buckingham A     905.70000    eV        0.000 12.000
                            Buckingham rho  0.39760000    Ang       
                            Buckingham C     0.0000000    eV*Ang^6  
--------------------------------------------------------------------------------
Cl   s Ba   s Buckingham    Buckingham A     2704.5500    eV        0.000 12.000
                            Buckingham rho  0.35280000    Ang       
                            Buckingham C     0.0000000    eV*Ang^6  
--------------------------------------------------------------------------------

********************************************************************************
*  Output for configuration   1                                                *
********************************************************************************


  Components of energy : 

--------------------------------------------------------------------------------
  Interatomic potentials     =           5.13022605 eV    
  Monopole - monopole (real) =         -10.03624526 eV    
  Monopole - monopole (recip)=         -29.53581274 eV    
  Monopole - monopole (total)=         -39.57205800 eV    
--------------------------------------------------------------------------------
  Total lattice energy       =         -34.44183194 eV    
--------------------------------------------------------------------------------
  Total lattice energy       =           -3323.1103 kJ/(mole unit cells)
--------------------------------------------------------------------------------


  Number of variables =        1

  Maximum number of calculations  =          1000
  Maximum Hessian update interval =            10
  Maximum step size               =   1.000000000
  Maximum parameter tolerance     =   0.000010000
  Maximum function  tolerance     =   0.000010000
  Maximum gradient  tolerance     =   0.001000000
  Maximum gradient  component     =   0.010000000

  Symmetry constrained optimisation

  Symmetry used for second derivatives

  Cell parameters to be optimised using strains

  Newton-Raphson optimiser to be used

  BFGS hessian update to be used

  Lower half triangular hessian to be used

  Start of bulk optimisation :

  Cycle:      0 Energy:       -34.441832  Gnorm:      0.196570  CPU:    0.013
  ** Hessian calculated **
  Cycle:      1 Energy:       -34.441914  Gnorm:      0.000103  CPU:    0.017


  **** Optimisation achieved ****


  Final energy =     -34.44191447 eV
  Final Gnorm  =       0.00000000

  Components of energy : 

--------------------------------------------------------------------------------
  Interatomic potentials     =           5.09689708 eV    
  Monopole - monopole (real) =         -10.02781331 eV    
  Monopole - monopole (recip)=         -29.51099824 eV    
  Monopole - monopole (total)=         -39.53881155 eV    
--------------------------------------------------------------------------------
  Total lattice energy       =         -34.44191447 eV    
--------------------------------------------------------------------------------
  Total lattice energy       =           -3323.1183 kJ/(mole unit cells)
--------------------------------------------------------------------------------

  Final asymmetric unit coordinates :

--------------------------------------------------------------------------------
   No.  Atomic        x           y           z         Radius
        Label       (Frac)      (Frac)      (Frac)       (Angs) 
--------------------------------------------------------------------------------
     1  Cl    c     0.000000    0.000000    0.000000    0.000000
     2  O     c     0.500000    0.500000    0.500000    0.000000
     3  Na    c     0.500000    0.500000    0.000000    0.000000
     4  Cl    s     0.000000    0.000000    0.000000    0.000000
     5  O     s     0.500000    0.500000    0.500000    0.000000
--------------------------------------------------------------------------------

  Final Cartesian lattice vectors (Angstroms) :

        4.507787    0.000000    0.000000
        0.000000    4.507787    0.000000
        0.000000    0.000000    4.507787


  Final cell parameters and derivatives :

--------------------------------------------------------------------------------
       a            4.507787 Angstrom     dE/de1(xx)     0.000000 eV/strain
       b            4.507787 Angstrom     dE/de2(yy)     0.000000 eV/strain
       c            4.507787 Angstrom     dE/de3(zz)     0.000000 eV/strain
       alpha       90.000000 Degrees      dE/de4(yz)     0.000000 eV/strain
       beta        90.000000 Degrees      dE/de5(xz)     0.000000 eV/strain
       gamma       90.000000 Degrees      dE/de6(xy)     0.000000 eV/strain
--------------------------------------------------------------------------------

  Primitive cell volume =            91.598892 Angs**3

  Density of cell =      2.183054 g/cm**3

  Non-primitive cell volume =            91.598892 Angs**3


  Final internal derivatives :

--------------------------------------------------------------------------------
   No.  Atomic          a             b             c           Radius
        Label          (eV)          (eV)          (eV)        (eV/Angs)
--------------------------------------------------------------------------------
      1 Cl    c       0.000000      0.000000      0.000000      0.000000
      2 O     c       0.000000      0.000000      0.000000      0.000000
      3 Na    c       0.000000      0.000000      0.000000      0.000000
      4 Cl    s       0.000000      0.000000      0.000000      0.000000
      5 O     s       0.000000      0.000000      0.000000      0.000000
--------------------------------------------------------------------------------
  Maximum abs         0.000000      0.000000      0.000000      0.000000
--------------------------------------------------------------------------------

  Comparison of initial and final structures : 

--------------------------------------------------------------------------------
  Parameter   Initial value   Final value   Difference    Units      Percent
--------------------------------------------------------------------------------
    Volume        91.368216     91.598892     0.230676    Angs**3      0.25
    a              4.504000      4.507787     0.003787    Angstroms    0.08
    b              4.504000      4.507787     0.003787    Angstroms    0.08
    c              4.504000      4.507787     0.003787    Angstroms    0.08
    alpha         90.000000     90.000000     0.000000    Degrees      0.00
    beta          90.000000     90.000000     0.000000    Degrees      0.00
    gamma         90.000000     90.000000     0.000000    Degrees      0.00
      1 x          0.000000      0.000000     0.000000    Fractional   0.00
      1 y          0.000000      0.000000     0.000000    Fractional   0.00
      1 z          0.000000      0.000000     0.000000    Fractional   0.00
      2 x          0.500000      0.500000     0.000000    Fractional   0.00
      2 y          0.500000      0.500000     0.000000    Fractional   0.00
      2 z          0.500000      0.500000     0.000000    Fractional   0.00
      3 x          0.500000      0.500000     0.000000    Fractional   0.00
      3 y          0.500000      0.500000     0.000000    Fractional   0.00
      3 z          0.000000      0.000000     0.000000    Fractional   0.00
      4 x          0.000000      0.000000     0.000000    Fractional   0.00
      4 y          0.000000      0.000000     0.000000    Fractional   0.00
      4 z          0.000000      0.000000     0.000000    Fractional   0.00
      5 x          0.500000      0.500000     0.000000    Fractional   0.00
      5 y          0.500000      0.500000     0.000000    Fractional   0.00
      5 z          0.500000      0.500000     0.000000    Fractional   0.00
--------------------------------------------------------------------------------


  Born effective charge tensors : 

-------------------------------------------------------------------------------
  Atom             x           y             z
-------------------------------------------------------------------------------
    1 Cl    x      -1.0181     -0.0000      0.0000
            y      -0.0000     -1.0181      0.0000
            z       0.0000      0.0000     -1.0181
-------------------------------------------------------------------------------
    2 O     x      -2.2647      0.0000     -0.0000
            y       0.0000     -2.2647     -0.0000
            z      -0.0000     -0.0000     -2.2647
-------------------------------------------------------------------------------
    3 Na    x       1.2258     -0.0000      0.0000
            y      -0.0000      1.2258     -0.0000
            z       0.0000     -0.0000      0.8313
-------------------------------------------------------------------------------




  Elastic Constant Matrix: (Units=GPa)

-------------------------------------------------------------------------------
  Indices      1         2         3         4         5         6    
-------------------------------------------------------------------------------
       1     95.8177   20.0737   20.0737   -0.0000   -0.0000    0.0000
       2     20.0737   95.8177   20.0737   -0.0000   -0.0000    0.0000
       3     20.0737   20.0737   95.8177   -0.0000   -0.0000    0.0000
       4     -0.0000   -0.0000   -0.0000   20.0737   -0.0000    0.0000
       5     -0.0000   -0.0000   -0.0000   -0.0000   20.0737    0.0000
       6      0.0000    0.0000    0.0000    0.0000    0.0000   20.0737
-------------------------------------------------------------------------------


  Elastic Compliance Matrix: (Units=1/GPa)

-------------------------------------------------------------------------------
  Indices      1         2         3         4         5         6    
-------------------------------------------------------------------------------
       1    0.011253 -0.001949 -0.001949  0.000000  0.000000 -0.000000
       2   -0.001949  0.011253 -0.001949  0.000000  0.000000  0.000000
       3   -0.001949 -0.001949  0.011253  0.000000  0.000000 -0.000000
       4    0.000000  0.000000  0.000000  0.049816  0.000000 -0.000000
       5    0.000000  0.000000  0.000000  0.000000  0.049816 -0.000000
       6   -0.000000  0.000000 -0.000000 -0.000000 -0.000000  0.049816
-------------------------------------------------------------------------------

  Mechanical properties :

-------------------------------------------------------------------------------
  Convention :                    Reuss         Voigt         Hill
-------------------------------------------------------------------------------
  Bulk  Modulus (GPa)     =      45.32174      45.32174      45.32174
  Shear Modulus (GPa)     =      24.72085      27.19304      25.95695
-------------------------------------------------------------------------------
  Velocity S-wave (km/s)  =       3.36511       3.52937       3.44822
  Velocity P-wave (km/s)  =       5.98827       6.11304       6.05098
-------------------------------------------------------------------------------
  Compressibility (1/GPa) =    0.02206447
-------------------------------------------------------------------------------
  Stress axis :                     x             y             z
-------------------------------------------------------------------------------
  Youngs Moduli (GPa)     =      88.86373      88.86373      88.86373
-------------------------------------------------------------------------------
  Poissons Ratio (x)      =                     0.17321       0.17321
  Poissons Ratio (y)      =       0.17321                     0.17321
  Poissons Ratio (z)      =       0.17321       0.17321
-------------------------------------------------------------------------------


  Piezoelectric Strain Matrix: (Units=C/m**2)

-------------------------------------------------------------------------------
  Indices      1         2         3         4         5         6    
-------------------------------------------------------------------------------
       x    -0.00000  -0.00000  -0.00000   0.00000  -0.00000  -0.00000
       y    -0.00000  -0.00000   0.00000  -0.00000   0.00000   0.00000
       z    -0.00000  -0.00000  -0.00000  -0.00000   0.00000   0.00000
-------------------------------------------------------------------------------


  Piezoelectric Stress Matrix: (Units=10**-11 C/N)

-------------------------------------------------------------------------------
  Indices      1         2         3         4         5         6    
-------------------------------------------------------------------------------
       x    -0.00000   0.00000   0.00000   0.00000  -0.00000  -0.00000
       y    -0.00000  -0.00000   0.00000  -0.00000   0.00000   0.00000
       z     0.00000   0.00000  -0.00000  -0.00000   0.00000   0.00000
-------------------------------------------------------------------------------


  Static dielectric constant tensor : 

-------------------------------------------------------------------------------
              x         y         z
-------------------------------------------------------------------------------
       x    22.84729   0.00000   0.00000
       y     0.00000  22.84729  -0.00000
       z     0.00000  -0.00000  22.84729
--------------------------------------------------------------------------------

  High frequency dielectric constant tensor : 

-------------------------------------------------------------------------------
              x         y         z
-------------------------------------------------------------------------------
       x     1.47557   0.00000  -0.00000
       y     0.00000   1.47557  -0.00000
       z    -0.00000  -0.00000   1.47557
-------------------------------------------------------------------------------

  Static refractive indices : 

-------------------------------------------------------------------------------
    1 =    4.77988      2 =    4.77988      3 =    4.77988
-------------------------------------------------------------------------------

  High frequency refractive indices : 

-------------------------------------------------------------------------------
    1 =    1.21473      2 =    1.21473      3 =    1.21473
-------------------------------------------------------------------------------


  Time to end of optimisation =       0.0247 seconds

********************************************************************************
*  Defect calculation for configuration   1 :                                  *
********************************************************************************

  Total number of defects =      3

  Total charge on defect  =  -1.00

  Defect centre is at   0.5000   0.2200   0.2800  Frac

  Region 1 radius =  12.0000      Number of ions =    555

  Number of symmetry inequivalent region 1 ions  =    321

  Region 2 radius =  16.0000      Number of ions =    772

  Number of symmetry inequivalent region 2a ions =    422

  Region 2a mode = 4 : screened electrostatics due to region 1 
                       neglect correction to region 1 forces from 2a
                       region 2a displacements based on defects only

  Region 2a ions will only interact with defects in region 1

  Vacancies:

--------------------------------------------------------------------------------
    Specification type     Symbol/Number         x          y          z
--------------------------------------------------------------------------------
    Fractional                               0.500000   0.500000   0.000000
    Fractional                               0.500000   0.000000   0.500000
--------------------------------------------------------------------------------

  Interstitials:

--------------------------------------------------------------------------------
    Specification type     Symbol/Number         x          y          z
--------------------------------------------------------------------------------
    Atom/Fractional         Na               0.500000   0.280000   0.220000
--------------------------------------------------------------------------------


  Symmetry reduced region 1 (Relative to defect centre) :

--------------------------------------------------------------------------------
   No.   Atomic       x            y             z       Radius  Multiplicity   
         Label      (Angs)       (Angs)        (Angs)    (Angs)     
--------------------------------------------------------------------------------
     1  Na    c      0.0000       0.2705      -0.2705    0.0000     1    Defect
     2  O     c      0.0000       1.2622 *     0.9917 *  0.0000     1          
     3  Na    c      2.2539 *     1.2622 *     0.9917 *  0.0000     2          
     4  Cl    c      2.2539 *    -0.9917 *    -1.2622 *  0.0000     2          
     5  O     c      0.0000      -3.2456 *     0.9917 *  0.0000     1          
     6  Na    c      0.0000       1.2622 *     3.2456 *  0.0000     1          
     7  Na    c      0.0000      -3.2456 *    -1.2622 *  0.0000     1          
     8  Na    c      0.0000       3.5161 *     0.9917 *  0.0000     1          
     9  Na    c      0.0000      -0.9917 *    -3.5161 *  0.0000     1          
    10  O     c      0.0000       1.2622 *    -3.5161 *  0.0000     1          
    11  Na    c      2.2539 *    -3.2456 *     0.9917 *  0.0000     2          
    12  Cl    c      2.2539 *    -0.9917 *     3.2456 *  0.0000     2          
    13  Cl    c      2.2539 *     3.5161 *    -1.2622 *  0.0000     2          
    14  Na    c      2.2539 *     1.2622 *    -3.5161 *  0.0000     2          
    15  Na    c      0.0000      -3.2456 *     3.2456 *  0.0000     1          
    16  Na    c     -4.5078 *    -0.9917 *     0.9917 *  0.0000     2          
    17  O     c      0.0000      -3.2456 *    -3.5161 *  0.0000     1          
    18  O     c     -4.5078 *     1.2622 *     0.9917 *  0.0000     2          
    19  Na    c     -4.5078 *     1.2622 *    -1.2622 *  0.0000     2          
    20  Na    c      0.0000       3.5161 *    -3.5161 *  0.0000     1          
    21  Cl    c      2.2539 *     3.5161 *     3.2456 *  0.0000     2          
    22  Na    c      2.2539 *    -3.2456 *    -3.5161 *  0.0000     2          
    23  Na    c      0.0000      -0.9917 *     5.4995 *  0.0000     1          
    24  Na    c      0.0000      -5.4995 *     0.9917 *  0.0000     1          
    25  O     c      0.0000       1.2622 *     5.4995 *  0.0000     1          
    26  O     c     -4.5078 *    -3.2456 *     0.9917 *  0.0000     2          
    27  Na    c     -4.5078 *     1.2622 *     3.2456 *  0.0000     2          
    28  Na    c     -4.5078 *    -3.2456 *    -1.2622 *  0.0000     2          
    29  Na    c     -4.5078 *    -0.9917 *    -3.5161 *  0.0000     2          
    30  Na    c     -4.5078 *     3.5161 *     0.9917 *  0.0000     2          
    31  O     c      0.0000       5.7700 *     0.9917 *  0.0000     1          
    32  O     c     -4.5078 *     1.2622 *    -3.5161 *  0.0000     2          
    33  Na    c      0.0000       1.2622 *    -5.7700 *  0.0000     1          
    34  Na    c      0.0000       5.7700 *    -1.2622 *  0.0000     1          
    35  Na    c      2.2539 *     1.2622 *     5.4995 *  0.0000     2          
    36  Cl    c      2.2539 *    -5.4995 *    -1.2622 *  0.0000     2          
    37  Cl    c      2.2539 *    -0.9917 *    -5.7700 *  0.0000     2          
    38  Na    c      2.2539 *     5.7700 *     0.9917 *  0.0000     2          
    39  O     c      0.0000      -3.2456 *     5.4995 *  0.0000     1          
    40  Na    c      4.5078 *    -3.2456 *     3.2456 *  0.0000     2          
    41  Na    c      0.0000       3.5161 *     5.4995 *  0.0000     1          
    42  Na    c      0.0000      -5.4995 *    -3.5161 *  0.0000     1          
    43  O     c     -4.5078 *    -3.2456 *    -3.5161 *  0.0000     2          
    44  Na    c      0.0000       5.7700 *     3.2456 *  0.0000     1          
    45  Na    c      0.0000      -3.2456 *    -5.7700 *  0.0000     1          
    46  Na    c      4.5078 *     3.5161 *    -3.5161 *  0.0000     2          
    47  O     c      0.0000       5.7700 *    -3.5161 *  0.0000     1          
    48  Na    c      2.2539 *    -3.2456 *     5.4995 *  0.0000     2          
    49  Cl    c      2.2539 *    -5.4995 *     3.2456 *  0.0000     2          
    50  Cl    c      6.7617 *    -0.9917 *    -1.2622 *  0.0000     2          
    51  Na    c      6.7617 *     1.2622 *     0.9917 *  0.0000     2          
    52  Cl    c      2.2539 *     3.5161 *    -5.7700 *  0.0000     2          
    53  Na    c      2.2539 *     5.7700 *    -3.5161 *  0.0000     2          
    54  Na    c     -4.5078 *    -0.9917 *     5.4995 *  0.0000     2          
    55  Na    c      4.5078 *    -5.4995 *     0.9917 *  0.0000     2          
    56  O     c      4.5078 *     1.2622 *     5.4995 *  0.0000     2          
    57  O     c     -4.5078 *     5.7700 *     0.9917 *  0.0000     2          
    58  Na    c     -4.5078 *     5.7700 *    -1.2622 *  0.0000     2          
    59  Na    c      4.5078 *     1.2622 *    -5.7700 *  0.0000     2          
    60  Na    c      6.7617 *    -3.2456 *     0.9917 *  0.0000     2          
    61  Cl    c      6.7617 *    -0.9917 *     3.2456 *  0.0000     2          
    62  Cl    c      6.7617 *     3.5161 *    -1.2622 *  0.0000     2          
    63  Na    c      6.7617 *     1.2622 *    -3.5161 *  0.0000     2          
    64  Na    c      0.0000      -5.4995 *     5.4995 *  0.0000     1          
    65  O     c     -4.5078 *    -3.2456 *     5.4995 *  0.0000     2          
    66  O     c      0.0000      -7.7534 *     0.9917 *  0.0000     1          
    67  Na    c      0.0000       1.2622 *     7.7534 *  0.0000     1          
    68  Na    c      0.0000      -7.7534 *    -1.2622 *  0.0000     1          
    69  Na    c     -4.5078 *     3.5161 *     5.4995 *  0.0000     2          
    70  Na    c      4.5078 *    -5.4995 *    -3.5161 *  0.0000     2          
    71  O     c      0.0000       5.7700 *     5.4995 *  0.0000     1          
    72  Na    c     -4.5078 *     5.7700 *     3.2456 *  0.0000     2          
    73  Na    c      4.5078 *    -3.2456 *    -5.7700 *  0.0000     2          
    74  Na    c      0.0000      -0.9917 *    -8.0239 *  0.0000     1          
    75  Na    c      0.0000       8.0239 *     0.9917 *  0.0000     1          
    76  O     c      0.0000       1.2622 *    -8.0239 *  0.0000     1          
    77  O     c     -4.5078 *     5.7700 *    -3.5161 *  0.0000     2          
    78  Cl    c      2.2539 *    -0.9917 *     7.7534 *  0.0000     2          
    79  Na    c      2.2539 *    -7.7534 *     0.9917 *  0.0000     2          
    80  Na    c      0.0000       5.7700 *    -5.7700 *  0.0000     1          
    81  Na    c      2.2539 *     5.7700 *     5.4995 *  0.0000     2          
    82  Cl    c      2.2539 *    -5.4995 *    -5.7700 *  0.0000     2          
    83  Cl    c      6.7617 *     3.5161 *     3.2456 *  0.0000     2          
    84  Na    c      6.7617 *    -3.2456 *    -3.5161 *  0.0000     2          
    85  Na    c      0.0000      -3.2456 *     7.7534 *  0.0000     1          
    86  Na    c      0.0000      -7.7534 *     3.2456 *  0.0000     1          
    87  Cl    c      2.2539 *     8.0239 *    -1.2622 *  0.0000     2          
    88  Na    c      2.2539 *     1.2622 *    -8.0239 *  0.0000     2          
    89  O     c      0.0000      -7.7534 *    -3.5161 *  0.0000     1          
    90  O     c      0.0000      -3.2456 *    -8.0239 *  0.0000     1          
    91  Na    c      0.0000       3.5161 *    -8.0239 *  0.0000     1          
    92  Na    c      0.0000       8.0239 *    -3.5161 *  0.0000     1          
    93  Cl    c      2.2539 *     3.5161 *     7.7534 *  0.0000     2          
    94  Cl    c      6.7617 *    -5.4995 *    -1.2622 *  0.0000     2          
    95  Na    c      2.2539 *    -7.7534 *    -3.5161 *  0.0000     2          
    96  Na    c      6.7617 *     1.2622 *     5.4995 *  0.0000     2          
    97  Cl    c      2.2539 *     8.0239 *     3.2456 *  0.0000     2          
    98  Na    c      2.2539 *    -3.2456 *    -8.0239 *  0.0000     2          
    99  Cl    c      6.7617 *    -0.9917 *    -5.7700 *  0.0000     2          
   100  Na    c      6.7617 *     5.7700 *     0.9917 *  0.0000     2          
   101  Na    c      4.5078 *    -5.4995 *     5.4995 *  0.0000     2          
   102  O     c      4.5078 *    -7.7534 *     0.9917 *  0.0000     2          
   103  Na    c     -4.5078 *     1.2622 *     7.7534 *  0.0000     2          
   104  Na    c      4.5078 *    -7.7534 *    -1.2622 *  0.0000     2          
   105  Na    c      9.0156 *    -0.9917 *     0.9917 *  0.0000     2          
   106  O     c      9.0156 *     1.2622 *     0.9917 *  0.0000     2          
   107  O     c     -4.5078 *     5.7700 *     5.4995 *  0.0000     2          
   108  Na    c      9.0156 *     1.2622 *    -1.2622 *  0.0000     2          
   109  Na    c     -4.5078 *     8.0239 *     0.9917 *  0.0000     2          
   110  Na    c      4.5078 *    -0.9917 *    -8.0239 *  0.0000     2          
   111  O     c      4.5078 *     1.2622 *    -8.0239 *  0.0000     2          
   112  Cl    c      6.7617 *    -5.4995 *     3.2456 *  0.0000     2          
   113  Na    c      6.7617 *    -3.2456 *     5.4995 *  0.0000     2          
   114  Na    c     -4.5078 *     5.7700 *    -5.7700 *  0.0000     2          
   115  O     c      0.0000      -7.7534 *     5.4995 *  0.0000     1          
   116  Na    c      4.5078 *    -7.7534 *     3.2456 *  0.0000     2          
   117  Na    c     -4.5078 *    -3.2456 *     7.7534 *  0.0000     2          
   118  Cl    c      6.7617 *     3.5161 *    -5.7700 *  0.0000     2          
   119  Na    c      6.7617 *     5.7700 *    -3.5161 *  0.0000     2          
   120  O     c      9.0156 *    -3.2456 *     0.9917 *  0.0000     2          
   121  O     c      4.5078 *    -7.7534 *    -3.5161 *  0.0000     2          
   122  Na    c      9.0156 *     1.2622 *     3.2456 *  0.0000     2          
   123  Na    c      0.0000       5.7700 *     7.7534 *  0.0000     1          
   124  Na    c      0.0000      -7.7534 *    -5.7700 *  0.0000     1          
   125  Na    c      9.0156 *    -3.2456 *    -1.2622 *  0.0000     2          
   126  Na    c      0.0000       8.0239 *     5.4995 *  0.0000     1          
   127  Na    c      0.0000      -5.4995 *    -8.0239 *  0.0000     1          
   128  Na    c      9.0156 *    -0.9917 *    -3.5161 *  0.0000     2          
   129  Na    c      9.0156 *     3.5161 *     0.9917 *  0.0000     2          
   130  O     c      4.5078 *    -3.2456 *    -8.0239 *  0.0000     2          
   131  O     c      9.0156 *     1.2622 *    -3.5161 *  0.0000     2          
   132  Cl    c      2.2539 *    -5.4995 *     7.7534 *  0.0000     2          
   133  Na    c      2.2539 *    -7.7534 *     5.4995 *  0.0000     2          
   134  Na    c      4.5078 *     3.5161 *    -8.0239 *  0.0000     2          
   135  Na    c     -4.5078 *     8.0239 *    -3.5161 *  0.0000     2          
   136  O     c      0.0000       5.7700 *    -8.0239 *  0.0000     1          
   137  Na    c      0.0000      -0.9917 *    10.0073 *  0.0000     1          
   138  Na    c      0.0000     -10.0073 *     0.9917 *  0.0000     1          
   139  O     c      0.0000       1.2622 *    10.0073 *  0.0000     1          
   140  Na    c      9.0156 *    -3.2456 *     3.2456 *  0.0000     2          
   141  Cl    c      2.2539 *     8.0239 *    -5.7700 *  0.0000     2          
   142  Na    c      2.2539 *     5.7700 *    -8.0239 *  0.0000     2          
   143  O     c      9.0156 *    -3.2456 *    -3.5161 *  0.0000     2          
   144  Na    c      9.0156 *     3.5161 *    -3.5161 *  0.0000     2          
   145  O     c      0.0000      10.2778 *     0.9917 *  0.0000     1          
   146  Na    c      6.7617 *    -7.7534 *     0.9917 *  0.0000     2          
   147  Cl    c      2.2539 *   -10.0073 *    -1.2622 *  0.0000     2          
   148  Cl    c      6.7617 *    -0.9917 *     7.7534 *  0.0000     2          
   149  Na    c      2.2539 *     1.2622 *    10.0073 *  0.0000     2          
   150  Na    c      0.0000       1.2622 *   -10.2778 *  0.0000     1          
   151  Na    c      0.0000      10.2778 *    -1.2622 *  0.0000     1          
   152  Cl    c      6.7617 *    -5.4995 *    -5.7700 *  0.0000     2          
   153  Na    c      6.7617 *     5.7700 *     5.4995 *  0.0000     2          
   154  O     c      0.0000      -3.2456 *    10.0073 *  0.0000     1          
   155  O     c      4.5078 *    -7.7534 *     5.4995 *  0.0000     2          
   156  Na    c      6.7617 *     1.2622 *    -8.0239 *  0.0000     2          
   157  Cl    c      2.2539 *    -0.9917 *   -10.2778 *  0.0000     2          
   158  Cl    c      6.7617 *     8.0239 *    -1.2622 *  0.0000     2          
   159  Na    c      2.2539 *    10.2778 *     0.9917 *  0.0000     2          
   160  Na    c      9.0156 *    -0.9917 *     5.4995 *  0.0000     2          
   161  Na    c      9.0156 *    -5.4995 *     0.9917 *  0.0000     2          
   162  Na    c      0.0000       3.5161 *    10.0073 *  0.0000     1          
   163  Na    c      0.0000     -10.0073 *    -3.5161 *  0.0000     1          
   164  O     c      9.0156 *     1.2622 *     5.4995 *  0.0000     2          
   165  Na    c      4.5078 *     5.7700 *     7.7534 *  0.0000     2          
   166  Na    c      4.5078 *    -7.7534 *    -5.7700 *  0.0000     2          
   167  Na    c     -4.5078 *     8.0239 *     5.4995 *  0.0000     2          
   168  Na    c      4.5078 *    -5.4995 *    -8.0239 *  0.0000     2          
   169  O     c      9.0156 *     5.7700 *     0.9917 *  0.0000     2          
   170  Cl    c      2.2539 *   -10.0073 *     3.2456 *  0.0000     2          
   171  Na    c      2.2539 *    -3.2456 *    10.0073 *  0.0000     2          
   172  Na    c      9.0156 *     1.2622 *    -5.7700 *  0.0000     2          
   173  Na    c      0.0000      10.2778 *     3.2456 *  0.0000     1          
   174  Na    c      0.0000      -3.2456 *   -10.2778 *  0.0000     1          
   175  Na    c      9.0156 *     5.7700 *    -1.2622 *  0.0000     2          
   176  O     c     -4.5078 *     5.7700 *    -8.0239 *  0.0000     2          
   177  O     c      0.0000      10.2778 *    -3.5161 *  0.0000     1          
   178  Cl    c      6.7617 *     3.5161 *     7.7534 *  0.0000     2          
   179  Na    c      6.7617 *    -7.7534 *    -3.5161 *  0.0000     2          
   180  Na    c      0.0000      -7.7534 *     7.7534 *  0.0000     1          
   181  Cl    c      6.7617 *     8.0239 *     3.2456 *  0.0000     2          
   182  Na    c      6.7617 *    -3.2456 *    -8.0239 *  0.0000     2          
   183  Na    c     -4.5078 *   -10.0073 *     0.9917 *  0.0000     2          
   184  Na    c      4.5078 *    -0.9917 *    10.0073 *  0.0000     2          
   185  O     c      9.0156 *    -3.2456 *     5.4995 *  0.0000     2          
   186  O     c      4.5078 *     1.2622 *    10.0073 *  0.0000     2          
   187  Cl    c      2.2539 *     3.5161 *   -10.2778 *  0.0000     2          
   188  Na    c      2.2539 *    10.2778 *    -3.5161 *  0.0000     2          
   189  Na    c      9.0156 *     3.5161 *     5.4995 *  0.0000     2          
   190  Na    c      9.0156 *    -5.4995 *    -3.5161 *  0.0000     2          
   191  O     c      0.0000      -7.7534 *    -8.0239 *  0.0000     1          
   192  Na    c      9.0156 *     5.7700 *     3.2456 *  0.0000     2          
   193  Na    c      9.0156 *    -3.2456 *    -5.7700 *  0.0000     2          
   194  O     c      9.0156 *     5.7700 *    -3.5161 *  0.0000     2          
   195  O     c     -4.5078 *    10.2778 *     0.9917 *  0.0000     2          
   196  Na    c      4.5078 *     1.2622 *   -10.2778 *  0.0000     2          
   197  Na    c     -4.5078 *    10.2778 *    -1.2622 *  0.0000     2          
   198  Na    c      0.0000       8.0239 *    -8.0239 *  0.0000     1          
   199  Cl    c     11.2695 *    -0.9917 *    -1.2622 *  0.0000     2          
   200  Cl    c      2.2539 *     8.0239 *     7.7534 *  0.0000     2          
   201  Na    c      2.2539 *    -7.7534 *    -8.0239 *  0.0000     2          
   202  Na    c     11.2695 *     1.2622 *     0.9917 *  0.0000     2          
   203  Na    c      0.0000      -5.4995 *    10.0073 *  0.0000     1          
   204  Na    c      0.0000     -10.0073 *     5.4995 *  0.0000     1          
   205  O     c      4.5078 *    -3.2456 *    10.0073 *  0.0000     2          
   206  Na    c      4.5078 *     3.5161 *    10.0073 *  0.0000     2          
   207  Na    c      4.5078 *   -10.0073 *    -3.5161 *  0.0000     2          
   208  O     c      0.0000       5.7700 *    10.0073 *  0.0000     1          
   209  O     c      0.0000      10.2778 *     5.4995 *  0.0000     1          
   210  Cl    c      6.7617 *    -5.4995 *     7.7534 *  0.0000     2          
   211  Na    c      6.7617 *    -7.7534 *     5.4995 *  0.0000     2          
   212  Na    c      4.5078 *    10.2778 *     3.2456 *  0.0000     2          
   213  Na    c      4.5078 *    -3.2456 *   -10.2778 *  0.0000     2          
   214  O     c      4.5078 *    10.2778 *    -3.5161 *  0.0000     2          
   215  Cl    c     11.2695 *    -0.9917 *     3.2456 *  0.0000     2          
   216  Cl    c      2.2539 *   -10.0073 *    -5.7700 *  0.0000     2          
   217  Na    c      2.2539 *     5.7700 *    10.0073 *  0.0000     2          
   218  Na    c     11.2695 *    -3.2456 *     0.9917 *  0.0000     2          
   219  Na    c      0.0000       5.7700 *   -10.2778 *  0.0000     1          
   220  Na    c      0.0000      10.2778 *    -5.7700 *  0.0000     1          
   221  Na    c      4.5078 *    -7.7534 *     7.7534 *  0.0000     2          
   222  Cl    c     11.2695 *     3.5161 *    -1.2622 *  0.0000     2          
   223  Na    c      2.2539 *    10.2778 *     5.4995 *  0.0000     2          
   224  Na    c     11.2695 *     1.2622 *    -3.5161 *  0.0000     2          
   225  Cl    c      2.2539 *    -5.4995 *   -10.2778 *  0.0000     2          
   226  Na    c      9.0156 *    -5.4995 *     5.4995 *  0.0000     2          
   227  O     c      9.0156 *    -7.7534 *     0.9917 *  0.0000     2          
   228  Na    c      9.0156 *     1.2622 *     7.7534 *  0.0000     2          
   229  Na    c      9.0156 *    -7.7534 *    -1.2622 *  0.0000     2          
   230  Cl    c      6.7617 *     8.0239 *    -5.7700 *  0.0000     2          
   231  Na    c      6.7617 *     5.7700 *    -8.0239 *  0.0000     2          
   232  O     s      0.0000       1.2622 *     0.9917 *  0.0000     1          
   233  Cl    s      2.2539 *    -0.9917 *    -1.2622 *  0.0000     2          
   234  O     s      0.0000      -3.2456 *     0.9917 *  0.0000     1          
   235  O     s      0.0000       1.2622 *    -3.5161 *  0.0000     1          
   236  Cl    s      2.2539 *    -0.9917 *     3.2456 *  0.0000     2          
   237  Cl    s      2.2539 *     3.5161 *    -1.2622 *  0.0000     2          
   238  O     s      0.0000      -3.2456 *    -3.5161 *  0.0000     1          
   239  O     s     -4.5078 *     1.2622 *     0.9917 *  0.0000     2          
   240  Cl    s      2.2539 *     3.5161 *     3.2456 *  0.0000     2          
   241  O     s      0.0000       1.2622 *     5.4995 *  0.0000     1          
   242  O     s     -4.5078 *    -3.2456 *     0.9917 *  0.0000     2          
   243  O     s      0.0000       5.7700 *     0.9917 *  0.0000     1          
   244  O     s     -4.5078 *     1.2622 *    -3.5161 *  0.0000     2          
   245  Cl    s      2.2539 *    -5.4995 *    -1.2622 *  0.0000     2          
   246  Cl    s      2.2539 *    -0.9917 *    -5.7700 *  0.0000     2          
   247  O     s      0.0000      -3.2456 *     5.4995 *  0.0000     1          
   248  O     s     -4.5078 *    -3.2456 *    -3.5161 *  0.0000     2          
   249  O     s      0.0000       5.7700 *    -3.5161 *  0.0000     1          
   250  Cl    s      2.2539 *    -5.4995 *     3.2456 *  0.0000     2          
   251  Cl    s      6.7617 *    -0.9917 *    -1.2622 *  0.0000     2          
   252  Cl    s      2.2539 *     3.5161 *    -5.7700 *  0.0000     2          
   253  O     s      4.5078 *     1.2622 *     5.4995 *  0.0000     2          
   254  O     s     -4.5078 *     5.7700 *     0.9917 *  0.0000     2          
   255  Cl    s      6.7617 *    -0.9917 *     3.2456 *  0.0000     2          
   256  Cl    s      6.7617 *     3.5161 *    -1.2622 *  0.0000     2          
   257  O     s     -4.5078 *    -3.2456 *     5.4995 *  0.0000     2          
   258  O     s      0.0000      -7.7534 *     0.9917 *  0.0000     1          
   259  O     s      0.0000       5.7700 *     5.4995 *  0.0000     1          
   260  O     s      0.0000       1.2622 *    -8.0239 *  0.0000     1          
   261  O     s     -4.5078 *     5.7700 *    -3.5161 *  0.0000     2          
   262  Cl    s      2.2539 *    -0.9917 *     7.7534 *  0.0000     2          
   263  Cl    s      2.2539 *    -5.4995 *    -5.7700 *  0.0000     2          
   264  Cl    s      6.7617 *     3.5161 *     3.2456 *  0.0000     2          
   265  Cl    s      2.2539 *     8.0239 *    -1.2622 *  0.0000     2          
   266  O     s      0.0000      -7.7534 *    -3.5161 *  0.0000     1          
   267  O     s      0.0000      -3.2456 *    -8.0239 *  0.0000     1          
   268  Cl    s      2.2539 *     3.5161 *     7.7534 *  0.0000     2          
   269  Cl    s      6.7617 *    -5.4995 *    -1.2622 *  0.0000     2          
   270  Cl    s      2.2539 *     8.0239 *     3.2456 *  0.0000     2          
   271  Cl    s      6.7617 *    -0.9917 *    -5.7700 *  0.0000     2          
   272  O     s      4.5078 *    -7.7534 *     0.9917 *  0.0000     2          
   273  O     s      9.0156 *     1.2622 *     0.9917 *  0.0000     2          
   274  O     s     -4.5078 *     5.7700 *     5.4995 *  0.0000     2          
   275  O     s      4.5078 *     1.2622 *    -8.0239 *  0.0000     2          
   276  Cl    s      6.7617 *    -5.4995 *     3.2456 *  0.0000     2          
   277  O     s      0.0000      -7.7534 *     5.4995 *  0.0000     1          
   278  Cl    s      6.7617 *     3.5161 *    -5.7700 *  0.0000     2          
   279  O     s      9.0156 *    -3.2456 *     0.9917 *  0.0000     2          
   280  O     s      4.5078 *    -7.7534 *    -3.5161 *  0.0000     2          
   281  O     s      4.5078 *    -3.2456 *    -8.0239 *  0.0000     2          
   282  O     s      9.0156 *     1.2622 *    -3.5161 *  0.0000     2          
   283  Cl    s      2.2539 *    -5.4995 *     7.7534 *  0.0000     2          
   284  O     s      0.0000       5.7700 *    -8.0239 *  0.0000     1          
   285  O     s      0.0000       1.2622 *    10.0073 *  0.0000     1          
   286  Cl    s      2.2539 *     8.0239 *    -5.7700 *  0.0000     2          
   287  O     s      9.0156 *    -3.2456 *    -3.5161 *  0.0000     2          
   288  O     s      0.0000      10.2778 *     0.9917 *  0.0000     1          
   289  Cl    s      2.2539 *   -10.0073 *    -1.2622 *  0.0000     2          
   290  Cl    s      6.7617 *    -0.9917 *     7.7534 *  0.0000     2          
   291  Cl    s      6.7617 *    -5.4995 *    -5.7700 *  0.0000     2          
   292  O     s      0.0000      -3.2456 *    10.0073 *  0.0000     1          
   293  O     s      4.5078 *    -7.7534 *     5.4995 *  0.0000     2          
   294  Cl    s      2.2539 *    -0.9917 *   -10.2778 *  0.0000     2          
   295  Cl    s      6.7617 *     8.0239 *    -1.2622 *  0.0000     2          
   296  O     s      9.0156 *     1.2622 *     5.4995 *  0.0000     2          
   297  O     s      9.0156 *     5.7700 *     0.9917 *  0.0000     2          
   298  Cl    s      2.2539 *   -10.0073 *     3.2456 *  0.0000     2          
   299  O     s     -4.5078 *     5.7700 *    -8.0239 *  0.0000     2          
   300  O     s      0.0000      10.2778 *    -3.5161 *  0.0000     1          
   301  Cl    s      6.7617 *     3.5161 *     7.7534 *  0.0000     2          
   302  Cl    s      6.7617 *     8.0239 *     3.2456 *  0.0000     2          
   303  O     s      9.0156 *    -3.2456 *     5.4995 *  0.0000     2          
   304  O     s      4.5078 *     1.2622 *    10.0073 *  0.0000     2          
   305  Cl    s      2.2539 *     3.5161 *   -10.2778 *  0.0000     2          
   306  O     s      0.0000      -7.7534 *    -8.0239 *  0.0000     1          
   307  O     s      9.0156 *     5.7700 *    -3.5161 *  0.0000     2          
   308  O     s     -4.5078 *    10.2778 *     0.9917 *  0.0000     2          
   309  Cl    s     11.2695 *    -0.9917 *    -1.2622 *  0.0000     2          
   310  Cl    s      2.2539 *     8.0239 *     7.7534 *  0.0000     2          
   311  O     s      4.5078 *    -3.2456 *    10.0073 *  0.0000     2          
   312  O     s      0.0000       5.7700 *    10.0073 *  0.0000     1          
   313  O     s      0.0000      10.2778 *     5.4995 *  0.0000     1          
   314  Cl    s      6.7617 *    -5.4995 *     7.7534 *  0.0000     2          
   315  O     s      4.5078 *    10.2778 *    -3.5161 *  0.0000     2          
   316  Cl    s     11.2695 *    -0.9917 *     3.2456 *  0.0000     2          
   317  Cl    s      2.2539 *   -10.0073 *    -5.7700 *  0.0000     2          
   318  Cl    s     11.2695 *     3.5161 *    -1.2622 *  0.0000     2          
   319  Cl    s      2.2539 *    -5.4995 *   -10.2778 *  0.0000     2          
   320  O     s      9.0156 *    -7.7534 *     0.9917 *  0.0000     2          
   321  Cl    s      6.7617 *     8.0239 *    -5.7700 *  0.0000     2          
--------------------------------------------------------------------------------

  Components of defect energy : 

--------------------------------------------------------------------------------
  Region 1 - region 1                   =      6.01926480 eV
  Region 1 - region 2a (unrelaxed)      =      4.59941597 eV
  Region 1 - 2a (relaxed - correction)  =     -0.28474500 eV
  Region 1 (Total)                      =     10.33393577 eV
  Region 2a                             =      0.14230048 eV
  Region 2b                             =     -0.42975839 eV
--------------------------------------------------------------------------------
  Total defect energy                   =     10.04647786 eV
--------------------------------------------------------------------------------

  Largest displacement in region 2 =   0.0204 Angstroms


  Number of variables =      874

  Maximum number of calculations  =        1000
  Maximum Hessian update interval =          10
  Maximum step size               =   1.0000000
  Maximum parameter tolerance     =   0.0000100
  Maximum function  tolerance     =   0.0000100
  Maximum gradient  tolerance     =   0.0010000

  Symmetry adapted optimisation

  Symmetry to be used for second derivatives

  Newton-Raphson optimiser to be used

  BFGS hessian update to be used

  Lower half triangular hessian to be used

  Start of defect optimisation :

  Cycle:      0 Defect Energy:  10.046478  Gnorm:     0.023418  CPU:    2.441
  ** Hessian calculated **
  Cycle:      1 Defect Energy:   8.830942  Gnorm:     0.019362  CPU:    7.927
  Cycle:      2 Defect Energy:   8.461166  Gnorm:     0.017751  CPU:   12.341
  ** Hessian calculated **
  Cycle:      3 Defect Energy:   7.550742  Gnorm:     0.013820  CPU:   18.078
  ** Hessian calculated **
  Cycle:      4 Defect Energy:   6.985253  Gnorm:     0.007417  CPU:   23.087
  Cycle:      5 Defect Energy:   6.812424  Gnorm:     0.007890  CPU:   26.393
  Cycle:      6 Defect Energy:   6.617226  Gnorm:     0.006179  CPU:   30.499
  Cycle:      7 Defect Energy:   6.411912  Gnorm:     0.005932  CPU:   34.191
  Cycle:      8 Defect Energy:   6.194090  Gnorm:     0.005601  CPU:   37.931
  Cycle:      9 Defect Energy:   5.940781  Gnorm:     0.005117  CPU:   41.649
  Cycle:     10 Defect Energy:   5.754096  Gnorm:     0.005642  CPU:   44.614
  Cycle:     11 Defect Energy:   5.585090  Gnorm:     0.003756  CPU:   48.345
  Cycle:     12 Defect Energy:   5.528658  Gnorm:     0.003317  CPU:   49.176
  Cycle:     13 Defect Energy:   5.455285  Gnorm:     0.002714  CPU:   50.008
  ** Hessian calculated **
  Cycle:     14 Defect Energy:   5.434929  Gnorm:     0.002375  CPU:   52.149
  Cycle:     15 Defect Energy:   5.409595  Gnorm:     0.002272  CPU:   52.984
  Cycle:     16 Defect Energy:   5.376149  Gnorm:     0.002202  CPU:   53.822
  Cycle:     17 Defect Energy:   5.332228  Gnorm:     0.002148  CPU:   54.658
  Cycle:     18 Defect Energy:   5.277775  Gnorm:     0.002053  CPU:   55.491
  Cycle:     19 Defect Energy:   5.232936  Gnorm:     0.002038  CPU:   56.309
  Cycle:     20 Defect Energy:   5.202418  Gnorm:     0.002043  CPU:   57.165
  Cycle:     21 Defect Energy:   5.180448  Gnorm:     0.001982  CPU:   58.006
  Cycle:     22 Defect Energy:   5.158309  Gnorm:     0.001892  CPU:   58.850
  Cycle:     23 Defect Energy:   5.134696  Gnorm:     0.001905  CPU:   59.660
  ** Hessian calculated **
  Cycle:     24 Defect Energy:   5.064084  Gnorm:     0.001727  CPU:   61.824
  Cycle:     25 Defect Energy:   4.956215  Gnorm:     0.001394  CPU:   62.668
  Cycle:     26 Defect Energy:   4.868490  Gnorm:     0.000968  CPU:   63.518
  Cycle:     27 Defect Energy:   4.837735  Gnorm:     0.000746  CPU:   64.348
  Cycle:     28 Defect Energy:   4.852763  Gnorm:     0.000730  CPU:   65.186
  Cycle:     29 Defect Energy:   4.850516  Gnorm:     0.000731  CPU:   66.039
  ** Hessian calculated **
  Cycle:     30 Defect Energy:   4.847301  Gnorm:     0.000600  CPU:   68.217
  Cycle:     31 Defect Energy:   4.843848  Gnorm:     0.000567  CPU:   69.039
  Cycle:     32 Defect Energy:   4.840073  Gnorm:     0.000553  CPU:   69.877
  Cycle:     33 Defect Energy:   4.836990  Gnorm:     0.000546  CPU:   70.713
  Cycle:     34 Defect Energy:   4.834589  Gnorm:     0.000537  CPU:   71.555
  Cycle:     35 Defect Energy:   4.832674  Gnorm:     0.000538  CPU:   72.398
  Cycle:     36 Defect Energy:   4.830893  Gnorm:     0.000540  CPU:   73.240
  Cycle:     37 Defect Energy:   4.829199  Gnorm:     0.000536  CPU:   74.078
  Cycle:     38 Defect Energy:   4.827451  Gnorm:     0.000532  CPU:   74.921
  Cycle:     39 Defect Energy:   4.825875  Gnorm:     0.000529  CPU:   75.765
  ** Hessian calculated **
  Cycle:     40 Defect Energy:   4.822823  Gnorm:     0.000518  CPU:   77.915
  Cycle:     41 Defect Energy:   4.818504  Gnorm:     0.000498  CPU:   78.733
  Cycle:     42 Defect Energy:   4.815280  Gnorm:     0.000465  CPU:   79.574
  ** Hessian calculated **
  Cycle:     43 Defect Energy:   4.803777  Gnorm:     0.000433  CPU:   81.748
  Cycle:     44 Defect Energy:   4.787420  Gnorm:     0.000305  CPU:   82.579
  Cycle:     45 Defect Energy:   4.781616  Gnorm:     0.000156  CPU:   83.424
  Cycle:     46 Defect Energy:   4.779240  Gnorm:     0.000105  CPU:   84.270
  Cycle:     47 Defect Energy:   4.778406  Gnorm:     0.000079  CPU:   85.113
  Cycle:     48 Defect Energy:   4.777733  Gnorm:     0.000060  CPU:   85.911
  Cycle:     49 Defect Energy:   4.777078  Gnorm:     0.000054  CPU:   86.746
  Cycle:     50 Defect Energy:   4.776389  Gnorm:     0.000048  CPU:   87.587
  Cycle:     51 Defect Energy:   4.775639  Gnorm:     0.000075  CPU:   88.420
  Cycle:     52 Defect Energy:   4.775197  Gnorm:     0.000071  CPU:   89.255
  ** Hessian calculated **
  Cycle:     53 Defect Energy:   4.774773  Gnorm:     0.000053  CPU:   91.424
  Cycle:     54 Defect Energy:   4.774564  Gnorm:     0.000040  CPU:   92.264
  Cycle:     55 Defect Energy:   4.774461  Gnorm:     0.000028  CPU:   93.083
  Cycle:     56 Defect Energy:   4.774417  Gnorm:     0.000021  CPU:   93.927
  Cycle:     57 Defect Energy:   4.774397  Gnorm:     0.000013  CPU:   94.761


  **** Optimisation achieved ****


  Final defect energy  =        4.77439263
  Final defect Gnorm   =        0.00001068

  Components of defect energy : 

--------------------------------------------------------------------------------
  Region 1 - region 1                   =      1.62320755 eV
  Region 1 - region 2a (unrelaxed)      =      3.69217665 eV
  Region 1 - 2a (relaxed - correction)  =     -0.22201888 eV
  Region 1 (Total)                      =      5.09336533 eV
  Region 2a                             =      0.11094497 eV
  Region 2b                             =     -0.42991767 eV
--------------------------------------------------------------------------------
  Total defect energy                   =      4.77439263 eV
--------------------------------------------------------------------------------

  Largest displacement in region 2 =   0.0204 Angstroms

  Final coordinates of region 1 :

--------------------------------------------------------------------------------
   No.  Atomic        x           y           z          Radius      Charge
        Label       (Angs)      (Angs)      (Angs)       (Angs)       (e) 
--------------------------------------------------------------------------------
     1  Na    c     2.253894    1.262180    0.991713    0.000000    1.000000
     2  O     c     2.253894    2.523572    2.664640    0.000000    0.183000
     3  Na    c     4.501082    2.518872    2.685540    0.000000    1.000000
     4  Na    c     0.006705    2.518872    2.685540    0.000000    1.000000
     5  Cl    c     4.546218   -0.050772   -0.037286    0.000000    1.485000
     6  Cl    c    -0.038431   -0.050772   -0.037286    0.000000    1.485000
     7  O     c     2.253894   -2.274448    2.307853    0.000000    0.183000
     8  Na    c     2.253894    1.618250    4.635750    0.000000    1.000000
     9  Na    c     2.253894   -2.157966    0.074490    0.000000    1.000000
    10  Na    c     2.253894    4.618659    2.106508    0.000000    1.000000
    11  Na    c     2.253894    0.049373   -2.373213    0.000000    1.000000
    12  O     c     2.253894    2.270860   -2.242450    0.000000    0.183000
    13  Na    c     4.440064   -1.924830    2.311501    0.000000    1.000000
    14  Na    c     0.067723   -1.924830    2.311501    0.000000    1.000000
    15  Cl    c     4.639098    0.018493    4.677268    0.000000    1.485000
    16  Cl    c    -0.131311    0.018493    4.677268    0.000000    1.485000
    17  Cl    c     4.561362    4.648989    0.060982    0.000000    1.485000
    18  Cl    c    -0.053575    4.648989    0.060982    0.000000    1.485000
    19  Na    c     4.454615    2.205551   -2.005513    0.000000    1.000000
    20  Na    c     0.053173    2.205551   -2.005513    0.000000    1.000000
    21  Na    c     2.253894   -1.767706    4.476301    0.000000    1.000000
    22  Na    c    -2.202150    0.066651    1.874411    0.000000    1.000000
    23  Na    c     6.709938    0.066651    1.874411    0.000000    1.000000
    24  O     c     2.253894   -2.223389   -2.227878    0.000000    0.183000
    25  O     c    -2.245298    2.302742    2.314845    0.000000    0.183000
    26  O     c     6.753085    2.302742    2.314845    0.000000    0.183000
    27  Na    c    -2.133432    2.698535    0.070427    0.000000    1.000000
    28  Na    c     6.641220    2.698535    0.070427    0.000000    1.000000
    29  Na    c     2.253894    4.437580   -1.665217    0.000000    1.000000
    30  Cl    c     4.677149    4.696978    4.590229    0.000000    1.485000
    31  Cl    c    -0.169362    4.696978    4.590229    0.000000    1.485000
    32  Na    c     4.505998   -2.150136   -2.269121    0.000000    1.000000
    33  Na    c     0.001789   -2.150136   -2.269121    0.000000    1.000000
    34  Na    c     2.253894   -0.003083    7.299634    0.000000    1.000000
    35  Na    c     2.253894   -4.475556    2.481135    0.000000    1.000000
    36  O     c     2.253894    2.235107    6.816853    0.000000    0.183000
    37  O     c    -2.213631   -2.190776    2.250461    0.000000    0.183000
    38  O     c     6.721418   -2.190776    2.250461    0.000000    0.183000
    39  Na    c    -2.409631    1.877604    4.546041    0.000000    1.000000
    40  Na    c     6.917418    1.877604    4.546041    0.000000    1.000000
    41  Na    c    -2.101232   -2.619468    0.016336    0.000000    1.000000
    42  Na    c     6.609020   -2.619468    0.016336    0.000000    1.000000
    43  Na    c    -2.295693    0.010867   -1.852082    0.000000    1.000000
    44  Na    c     6.803480    0.010867   -1.852082    0.000000    1.000000
    45  Na    c    -2.363506    4.552422    2.666111    0.000000    1.000000
    46  Na    c     6.871294    4.552422    2.666111    0.000000    1.000000
    47  O     c     2.253894    6.858454    2.231127    0.000000    0.183000
    48  O     c    -2.224596    2.263816   -2.180202    0.000000    0.183000
    49  O     c     6.732383    2.263816   -2.180202    0.000000    0.183000
    50  Na    c     2.253894    2.619473   -4.447845    0.000000    1.000000
    51  Na    c     2.253894    7.123443   -0.007607    0.000000    1.000000
    52  Na    c     4.521793    2.290753    6.743354    0.000000    1.000000
    53  Na    c    -0.014006    2.290753    6.743354    0.000000    1.000000
    54  Cl    c     4.513226   -4.601153   -0.086538    0.000000    1.485000
    55  Cl    c    -0.005439   -4.601153   -0.086538    0.000000    1.485000
    56  Cl    c     4.531076   -0.066000   -4.539464    0.000000    1.485000
    57  Cl    c    -0.023288   -0.066000   -4.539464    0.000000    1.485000
    58  Na    c     4.522269    6.723289    2.186924    0.000000    1.000000
    59  Na    c    -0.014482    6.723289    2.186924    0.000000    1.000000
    60  O     c     2.253894   -2.221495    6.740336    0.000000    0.183000
    61  Na    c     6.850433   -1.883091    4.505137    0.000000    1.000000
    62  Na    c    -2.342646   -1.883091    4.505137    0.000000    1.000000
    63  Na    c     2.253894    4.438534    6.206468    0.000000    1.000000
    64  Na    c     2.253894   -4.476231   -2.117801    0.000000    1.000000
    65  O     c    -2.255574   -2.240554   -2.229091    0.000000    0.183000
    66  O     c     6.763361   -2.240554   -2.229091    0.000000    0.183000
    67  Na    c     2.253894    6.931329    4.487430    0.000000    1.000000
    68  Na    c     2.253894   -2.427930   -4.476696    0.000000    1.000000
    69  Na    c     6.732472    4.487727   -2.613729    0.000000    1.000000
    70  Na    c    -2.224684    4.487727   -2.613729    0.000000    1.000000
    71  O     c     2.253894    6.715154   -2.221768    0.000000    0.183000
    72  Na    c     4.509678   -2.260463    6.633539    0.000000    1.000000
    73  Na    c    -0.001891   -2.260463    6.633539    0.000000    1.000000
    74  Cl    c     4.555495   -4.609300    4.582951    0.000000    1.485000
    75  Cl    c    -0.047708   -4.609300    4.582951    0.000000    1.485000
    76  Cl    c     9.053368    0.034239    0.036619    0.000000    1.485000
    77  Cl    c    -4.545581    0.034239    0.036619    0.000000    1.485000
    78  Na    c     9.011039    2.252472    2.129258    0.000000    1.000000
    79  Na    c    -4.503252    2.252472    2.129258    0.000000    1.000000
    80  Cl    c     4.579566    4.566116   -4.578235    0.000000    1.485000
    81  Cl    c    -0.071778    4.566116   -4.578235    0.000000    1.485000
    82  Na    c     4.507780    6.665190   -2.189811    0.000000    1.000000
    83  Na    c     0.000007    6.665190   -2.189811    0.000000    1.000000
    84  Na    c    -2.154791    0.009794    7.105673    0.000000    1.000000
    85  Na    c     6.662578    0.009794    7.105673    0.000000    1.000000
    86  Na    c     6.664846   -4.443926    2.600359    0.000000    1.000000
    87  Na    c    -2.157059   -4.443926    2.600359    0.000000    1.000000
    88  O     c     6.783582    2.261477    6.784228    0.000000    0.183000
    89  O     c    -2.275795    2.261477    6.784228    0.000000    0.183000
    90  O     c    -2.274553    6.787834    2.266284    0.000000    0.183000
    91  O     c     6.782340    6.787834    2.266284    0.000000    0.183000
    92  Na    c    -2.310386    6.441886    0.009153    0.000000    1.000000
    93  Na    c     6.818174    6.441886    0.009153    0.000000    1.000000
    94  Na    c     6.708555    1.923793   -4.449059    0.000000    1.000000
    95  Na    c    -2.200768    1.923793   -4.449059    0.000000    1.000000
    96  Na    c     8.984772   -2.233085    2.119333    0.000000    1.000000
    97  Na    c    -4.476985   -2.233085    2.119333    0.000000    1.000000
    98  Cl    c     9.098459    0.007082    4.544597    0.000000    1.485000
    99  Cl    c    -4.590672    0.007082    4.544597    0.000000    1.485000
   100  Cl    c     9.060266    4.490820    0.034359    0.000000    1.485000
   101  Cl    c    -4.552479    4.490820    0.034359    0.000000    1.485000
   102  Na    c     8.995547    2.292567   -2.120111    0.000000    1.000000
   103  Na    c    -4.487760    2.292567   -2.120111    0.000000    1.000000
   104  Na    c     2.253894   -4.480235    6.392556    0.000000    1.000000
   105  O     c    -2.260098   -2.236508    6.760565    0.000000    0.183000
   106  O     c     6.767885   -2.236508    6.760565    0.000000    0.183000
   107  O     c     2.253894   -6.760151    2.259842    0.000000    0.183000
   108  Na    c     2.253894    2.656240    9.023777    0.000000    1.000000
   109  Na    c     2.253894   -6.641211    0.014577    0.000000    1.000000
   110  Na    c    -2.350382    4.516766    6.440061    0.000000    1.000000
   111  Na    c     6.858170    4.516766    6.440061    0.000000    1.000000
   112  Na    c     6.709687   -4.482748   -2.583717    0.000000    1.000000
   113  Na    c    -2.201899   -4.482748   -2.583717    0.000000    1.000000
   114  O     c     2.253894    6.689454    6.735462    0.000000    0.183000
   115  Na    c    -2.119606    7.091397    4.512629    0.000000    1.000000
   116  Na    c     6.627393    7.091397    4.512629    0.000000    1.000000
   117  Na    c     6.814021   -1.910755   -4.486808    0.000000    1.000000
   118  Na    c    -2.306234   -1.910755   -4.486808    0.000000    1.000000
   119  Na    c     2.253894    0.021151   -6.480161    0.000000    1.000000
   120  Na    c     2.253894    9.074929    2.350405    0.000000    1.000000
   121  O     c     2.253894    2.279952   -6.724360    0.000000    0.183000
   122  O     c    -2.261075    6.737503   -2.252055    0.000000    0.183000
   123  O     c     6.768863    6.737503   -2.252055    0.000000    0.183000
   124  Cl    c     4.540316   -0.008105    9.091692    0.000000    1.485000
   125  Cl    c    -0.032529   -0.008105    9.091692    0.000000    1.485000
   126  Na    c     4.501757   -6.702378    2.195500    0.000000    1.000000
   127  Na    c     0.006030   -6.702378    2.195500    0.000000    1.000000
   128  Na    c     2.253894    6.369428   -4.477005    0.000000    1.000000
   129  Na    c     4.515326    6.610270    6.808416    0.000000    1.000000
   130  Na    c    -0.007539    6.610270    6.808416    0.000000    1.000000
   131  Cl    c     4.483803   -4.524585   -4.533313    0.000000    1.485000
   132  Cl    c     0.023984   -4.524585   -4.533313    0.000000    1.485000
   133  Cl    c     9.108700    4.524868    4.521723    0.000000    1.485000
   134  Cl    c    -4.600913    4.524868    4.521723    0.000000    1.485000
   135  Na    c     9.008791   -2.304227   -2.138182    0.000000    1.000000
   136  Na    c    -4.501004   -2.304227   -2.138182    0.000000    1.000000
   137  Na    c     2.253894   -2.589787    8.990880    0.000000    1.000000
   138  Na    c     2.253894   -6.983460    4.504664    0.000000    1.000000
   139  Cl    c     4.515443    9.082577   -0.010386    0.000000    1.485000
   140  Cl    c    -0.007656    9.082577   -0.010386    0.000000    1.485000
   141  Na    c     4.503791    2.272257   -6.671962    0.000000    1.000000
   142  Na    c     0.003997    2.272257   -6.671962    0.000000    1.000000
   143  O     c     2.253894   -6.746802   -2.239790    0.000000    0.183000
   144  O     c     2.253894   -2.244214   -6.729253    0.000000    0.183000
   145  Na    c     2.253894    4.500150   -7.079647    0.000000    1.000000
   146  Na    c     2.253894    8.972724   -2.539554    0.000000    1.000000
   147  Cl    c     4.543407    4.545265    9.105838    0.000000    1.485000
   148  Cl    c    -0.035620    4.545265    9.105838    0.000000    1.485000
   149  Cl    c     9.058697   -4.477485    0.004958    0.000000    1.485000
   150  Cl    c    -4.550910   -4.477485    0.004958    0.000000    1.485000
   151  Na    c     4.508747   -6.711751   -2.207209    0.000000    1.000000
   152  Na    c    -0.000960   -6.711751   -2.207209    0.000000    1.000000
   153  Na    c     9.026209    2.178072    6.876232    0.000000    1.000000
   154  Na    c    -4.518421    2.178072    6.876232    0.000000    1.000000
   155  Cl    c     4.466797    9.081042    4.509367    0.000000    1.485000
   156  Cl    c     0.040990    9.081042    4.509367    0.000000    1.485000
   157  Na    c     4.510862   -2.221349   -6.668720    0.000000    1.000000
   158  Na    c    -0.003075   -2.221349   -6.668720    0.000000    1.000000
   159  Cl    c     9.059305    0.011798   -4.520376    0.000000    1.485000
   160  Cl    c    -4.551517    0.011798   -4.520376    0.000000    1.485000
   161  Na    c     9.022658    6.843980    2.312884    0.000000    1.000000
   162  Na    c    -4.514871    6.843980    2.312884    0.000000    1.000000
   163  Na    c     6.803637   -4.494510    6.498384    0.000000    1.000000
   164  Na    c    -2.295849   -4.494510    6.498384    0.000000    1.000000
   165  O     c     6.750191   -6.710985    2.253907    0.000000    0.183000
   166  O     c    -2.242404   -6.710985    2.253907    0.000000    0.183000
   167  Na    c    -2.246559    2.560384    9.023080    0.000000    1.000000
   168  Na    c     6.754346    2.560384    9.023080    0.000000    1.000000
   169  Na    c     6.795987   -6.460991   -0.006452    0.000000    1.000000
   170  Na    c    -2.288200   -6.460991   -0.006452    0.000000    1.000000
   171  Na    c    11.245014    0.005624    2.175388    0.000000    1.000000
   172  Na    c    -6.737227    0.005624    2.175388    0.000000    1.000000
   173  O     c    11.269874    2.259421    2.255270    0.000000    0.183000
   174  O     c    -6.762087    2.259421    2.255270    0.000000    0.183000
   175  O     c    -2.266845    6.778167    6.758902    0.000000    0.183000
   176  O     c     6.774632    6.778167    6.758902    0.000000    0.183000
   177  Na    c    11.370747    2.359223    0.007196    0.000000    1.000000
   178  Na    c    -6.862959    2.359223    0.007196    0.000000    1.000000
   179  Na    c    -2.232182    9.021754    1.967877    0.000000    1.000000
   180  Na    c     6.739970    9.021754    1.967877    0.000000    1.000000
   181  Na    c     6.754162    0.003459   -7.027790    0.000000    1.000000
   182  Na    c    -2.246375    0.003459   -7.027790    0.000000    1.000000
   183  O     c     6.754897    2.237192   -6.726821    0.000000    0.183000
   184  O     c    -2.247110    2.237192   -6.726821    0.000000    0.183000
   185  Cl    c     9.055612   -4.507485    4.509511    0.000000    1.485000
   186  Cl    c    -4.547825   -4.507485    4.509511    0.000000    1.485000
   187  Na    c     9.011682   -2.188702    6.833631    0.000000    1.000000
   188  Na    c    -4.503895   -2.188702    6.833631    0.000000    1.000000
   189  Na    c    -2.212240    6.980104   -4.492589    0.000000    1.000000
   190  Na    c     6.720027    6.980104   -4.492589    0.000000    1.000000
   191  O     c     2.253894   -6.736901    6.750036    0.000000    0.183000
   192  Na    c     6.674699   -6.950421    4.495300    0.000000    1.000000
   193  Na    c    -2.166912   -6.950421    4.495300    0.000000    1.000000
   194  Na    c    -2.186210   -2.487062    9.003406    0.000000    1.000000
   195  Na    c     6.693997   -2.487062    9.003406    0.000000    1.000000
   196  Cl    c     9.063930    4.534292   -4.493011    0.000000    1.485000
   197  Cl    c    -4.556142    4.534292   -4.493011    0.000000    1.485000
   198  Na    c     9.016252    6.739769   -2.273023    0.000000    1.000000
   199  Na    c    -4.508465    6.739769   -2.273023    0.000000    1.000000
   200  O     c    11.256920   -2.247707    2.252875    0.000000    0.183000
   201  O     c    -6.749132   -2.247707    2.252875    0.000000    0.183000
   202  O     c     6.763796   -6.736962   -2.269477    0.000000    0.183000
   203  O     c    -2.256009   -6.736962   -2.269477    0.000000    0.183000
   204  Na    c    11.179059    2.220554    4.513124    0.000000    1.000000
   205  Na    c    -6.671272    2.220554    4.513124    0.000000    1.000000
   206  Na    c     2.253894    6.508502    8.989627    0.000000    1.000000
   207  Na    c     2.253894   -6.662587   -4.502134    0.000000    1.000000
   208  Na    c    11.359926   -2.353270    0.009097    0.000000    1.000000
   209  Na    c    -6.852139   -2.353270    0.009097    0.000000    1.000000
   210  Na    c     2.253894    8.973564    6.865196    0.000000    1.000000
   211  Na    c     2.253894   -4.492308   -6.869596    0.000000    1.000000
   212  Na    c    11.224379   -0.000474   -2.165411    0.000000    1.000000
   213  Na    c    -6.716592   -0.000474   -2.165411    0.000000    1.000000
   214  Na    c    11.230912    4.513762    2.329509    0.000000    1.000000
   215  Na    c    -6.723125    4.513762    2.329509    0.000000    1.000000
   216  O     c     6.766893   -2.237011   -6.749692    0.000000    0.183000
   217  O     c    -2.259106   -2.237011   -6.749692    0.000000    0.183000
   218  O     c    11.263266    2.257269   -2.239839    0.000000    0.183000
   219  O     c    -6.755479    2.257269   -2.239839    0.000000    0.183000
   220  Cl    c     4.518134   -4.523072    9.078620    0.000000    1.485000
   221  Cl    c    -0.010346   -4.523072    9.078620    0.000000    1.485000
   222  Na    c     4.509784   -6.677329    6.782108    0.000000    1.000000
   223  Na    c    -0.001997   -6.677329    6.782108    0.000000    1.000000
   224  Na    c     6.760512    4.505433   -6.558583    0.000000    1.000000
   225  Na    c    -2.252724    4.505433   -6.558583    0.000000    1.000000
   226  Na    c    -2.253005    9.000354   -2.056468    0.000000    1.000000
   227  Na    c     6.760792    9.000354   -2.056468    0.000000    1.000000
   228  O     c     2.253894    6.728305   -6.751765    0.000000    0.183000
   229  Na    c     2.253894   -0.000524   11.113837    0.000000    1.000000
   230  Na    c     2.253894   -9.016286    2.155913    0.000000    1.000000
   231  O     c     2.253894    2.271999   11.263153    0.000000    0.183000
   232  Na    c    11.161385   -2.211176    4.507246    0.000000    1.000000
   233  Na    c    -6.653598   -2.211176    4.507246    0.000000    1.000000
   234  Cl    c     4.528085    9.067421   -4.520869    0.000000    1.485000
   235  Cl    c    -0.020298    9.067421   -4.520869    0.000000    1.485000
   236  Na    c     4.508165    6.716069   -6.730031    0.000000    1.000000
   237  Na    c    -0.000377    6.716069   -6.730031    0.000000    1.000000
   238  O     c    11.268157   -2.258242   -2.238058    0.000000    0.183000
   239  O     c    -6.760370   -2.258242   -2.238058    0.000000    0.183000
   240  Na    c    11.277376    4.505847   -2.332288    0.000000    1.000000
   241  Na    c    -6.769588    4.505847   -2.332288    0.000000    1.000000
   242  O     c     2.253894   11.293190    2.257726    0.000000    0.183000
   243  Na    c     9.001360   -6.714499    2.278674    0.000000    1.000000
   244  Na    c    -4.493573   -6.714499    2.278674    0.000000    1.000000
   245  Cl    c     4.511824   -9.083191    0.005020    0.000000    1.485000
[...]
    241 y          2.253894      2.235097    -0.018797    Cartesian   -0.83
    241 z          6.761681      6.816840     0.055159    Cartesian    0.82
    242 x         -2.253894     -2.213660     0.040234    Cartesian   -1.79
    242 y         -2.253894     -2.190772     0.063121    Cartesian   -2.80
    242 z          2.253894      2.250447    -0.003447    Cartesian   -0.15
    243 x          2.253894      2.253894     0.000000    Cartesian    0.00
    243 y          6.761681      6.858500     0.096819    Cartesian    1.43
    243 z          2.253894      2.231111    -0.022782    Cartesian   -1.01
    244 x         -2.253894     -2.224617     0.029277    Cartesian   -1.30
    244 y          2.253894      2.263838     0.009945    Cartesian    0.44
    244 z         -2.253894     -2.180187     0.073706    Cartesian   -3.27
    245 x          4.507787      4.523495     0.015708    Cartesian    0.35
    245 y         -4.507787     -4.613377    -0.105590    Cartesian    2.34
    245 z          0.000000     -0.097335    -0.097335    Cartesian    0.00
    246 x          4.507787      4.539039     0.031252    Cartesian    0.69
    246 y          0.000000     -0.075265    -0.075265    Cartesian    0.00
    246 z         -4.507787     -4.547499    -0.039712    Cartesian    0.88
    247 x          2.253894      2.253894     0.000000    Cartesian    0.00
    247 y         -2.253894     -2.221511     0.032382    Cartesian   -1.44
    247 z          6.761681      6.740365    -0.021315    Cartesian   -0.32
    248 x         -2.253894     -2.255570    -0.001676    Cartesian    0.07
    248 y         -2.253894     -2.240573     0.013321    Cartesian   -0.59
    248 z         -2.253894     -2.229083     0.024811    Cartesian   -1.10
    249 x          2.253894      2.253894     0.000000    Cartesian    0.00
    249 y          6.761681      6.715229    -0.046452    Cartesian   -0.69
    249 z         -2.253894     -2.221702     0.032191    Cartesian   -1.43
    250 x          4.507787      4.563694     0.055906    Cartesian    1.24
    250 y         -4.507787     -4.618982    -0.111195    Cartesian    2.47
    250 z          4.507787      4.593183     0.085396    Cartesian    1.89
    251 x          9.015574      9.047184     0.031610    Cartesian    0.35
    251 y          0.000000      0.036655     0.036655    Cartesian    0.00
    251 z          0.000000      0.039417     0.039417    Cartesian    0.00
    252 x          4.507787      4.585942     0.078155    Cartesian    1.73
    252 y          4.507787      4.574488     0.066701    Cartesian    1.48
    252 z         -4.507787     -4.585017    -0.077230    Cartesian    1.71
    253 x          6.761681      6.783612     0.021931    Cartesian    0.32
    253 y          2.253894      2.261450     0.007556    Cartesian    0.34
    253 z          6.761681      6.784257     0.022576    Cartesian    0.33
    254 x         -2.253894     -2.274567    -0.020674    Cartesian    0.92
    254 y          6.761681      6.787855     0.026174    Cartesian    0.39
    254 z          2.253894      2.266307     0.012413    Cartesian    0.55
    255 x          9.015574      9.092981     0.077407    Cartesian    0.86
    255 y          0.000000      0.009442     0.009442    Cartesian    0.00
    255 z          4.507787      4.549033     0.041245    Cartesian    0.91
    256 x          9.015574      9.055964     0.040389    Cartesian    0.45
    256 y          4.507787      4.486350    -0.021437    Cartesian   -0.48
    256 z          0.000000      0.035687     0.035687    Cartesian    0.00
    257 x         -2.253894     -2.260109    -0.006215    Cartesian    0.28
    257 y         -2.253894     -2.236496     0.017398    Cartesian   -0.77
    257 z          6.761681      6.760604    -0.001076    Cartesian   -0.02
    258 x          2.253894      2.253894     0.000000    Cartesian    0.00
    258 y         -6.761681     -6.760192     0.001488    Cartesian   -0.02
    258 z          2.253894      2.259823     0.005930    Cartesian    0.26
    259 x          2.253894      2.253894     0.000000    Cartesian    0.00
    259 y          6.761681      6.689473    -0.072207    Cartesian   -1.07
    259 z          6.761681      6.735433    -0.026248    Cartesian   -0.39
    260 x          2.253894      2.253894     0.000000    Cartesian    0.00
    260 y          2.253894      2.279993     0.026099    Cartesian    1.16
    260 z         -6.761681     -6.724393     0.037288    Cartesian   -0.55
    261 x         -2.253894     -2.261088    -0.007194    Cartesian    0.32
    261 y          6.761681      6.737499    -0.024182    Cartesian   -0.36
    261 z         -2.253894     -2.252108     0.001786    Cartesian   -0.08
    262 x          4.507787      4.541164     0.033377    Cartesian    0.74
    262 y          0.000000     -0.008010    -0.008010    Cartesian    0.00
    262 z          9.015574      9.090901     0.075326    Cartesian    0.84
    263 x          4.507787      4.485880    -0.021907    Cartesian   -0.49
    263 y         -4.507787     -4.525889    -0.018101    Cartesian    0.40
    263 z         -4.507787     -4.533640    -0.025853    Cartesian    0.57
    264 x          9.015574      9.106096     0.090521    Cartesian    1.00
    264 y          4.507787      4.527284     0.019497    Cartesian    0.43
    264 z          4.507787      4.519886     0.012099    Cartesian    0.27
    265 x          4.507787      4.517887     0.010100    Cartesian    0.22
    265 y          9.015574      9.085608     0.070034    Cartesian    0.78
    265 z          0.000000     -0.008667    -0.008667    Cartesian    0.00
    266 x          2.253894      2.253894     0.000000    Cartesian    0.00
    266 y         -6.761681     -6.746784     0.014897    Cartesian   -0.22
    266 z         -2.253894     -2.239750     0.014144    Cartesian   -0.63
    267 x          2.253894      2.253894     0.000000    Cartesian    0.00
    267 y         -2.253894     -2.244253     0.009640    Cartesian   -0.43
    267 z         -6.761681     -6.729213     0.032468    Cartesian   -0.48
    268 x          4.507787      4.543894     0.036107    Cartesian    0.80
    268 y          4.507787      4.546904     0.039117    Cartesian    0.87
    268 z          9.015574      9.112556     0.096982    Cartesian    1.08
    269 x          9.015574      9.058516     0.042941    Cartesian    0.48
    269 y         -4.507787     -4.474260     0.033528    Cartesian   -0.74
    269 z          0.000000      0.004248     0.004248    Cartesian    0.00
    270 x          4.507787      4.466647    -0.041141    Cartesian   -0.91
    270 y          9.015574      9.081550     0.065975    Cartesian    0.73
    270 z          4.507787      4.507431    -0.000356    Cartesian   -0.01
    271 x          9.015574      9.058368     0.042794    Cartesian    0.47
    271 y          0.000000      0.011012     0.011012    Cartesian    0.00
    271 z         -4.507787     -4.525408    -0.017621    Cartesian    0.39
    272 x          6.761681      6.750170    -0.011511    Cartesian   -0.17
    272 y         -6.761681     -6.711006     0.050675    Cartesian   -0.75
    272 z          2.253894      2.253955     0.000061    Cartesian    0.00
    273 x         11.269468     11.269880     0.000412    Cartesian    0.00
    273 y          2.253894      2.259429     0.005535    Cartesian    0.25
    273 z          2.253894      2.255251     0.001357    Cartesian    0.06
    274 x         -2.253894     -2.266861    -0.012968    Cartesian    0.58
    274 y          6.761681      6.778211     0.016530    Cartesian    0.24
    274 z          6.761681      6.758907    -0.002774    Cartesian   -0.04
    275 x          6.761681      6.754890    -0.006790    Cartesian   -0.10
    275 y          2.253894      2.237157    -0.016737    Cartesian   -0.74
    275 z         -6.761681     -6.726867     0.034814    Cartesian   -0.51
    276 x          9.015574      9.056868     0.041294    Cartesian    0.46
    276 y         -4.507787     -4.510516    -0.002728    Cartesian    0.06
    276 z          4.507787      4.510487     0.002700    Cartesian    0.06
    277 x          2.253894      2.253894     0.000000    Cartesian    0.00
    277 y         -6.761681     -6.736933     0.024748    Cartesian   -0.37
    277 z          6.761681      6.750014    -0.011667    Cartesian   -0.17
    278 x          9.015574      9.064905     0.049330    Cartesian    0.55
    278 y          4.507787      4.538402     0.030615    Cartesian    0.68
    278 z         -4.507787     -4.489980     0.017807    Cartesian   -0.40
    279 x         11.269468     11.256940    -0.012528    Cartesian   -0.11
    279 y         -2.253894     -2.247716     0.006177    Cartesian   -0.27
    279 z          2.253894      2.252854    -0.001040    Cartesian   -0.05
    280 x          6.761681      6.763797     0.002116    Cartesian    0.03
    280 y         -6.761681     -6.736971     0.024710    Cartesian   -0.37
    280 z         -2.253894     -2.269529    -0.015635    Cartesian    0.69
    281 x          6.761681      6.766904     0.005223    Cartesian    0.08
    281 y         -2.253894     -2.236978     0.016916    Cartesian   -0.75
    281 z         -6.761681     -6.749733     0.011947    Cartesian   -0.18
    282 x         11.269468     11.263291    -0.006177    Cartesian   -0.05
    282 y          2.253894      2.257288     0.003394    Cartesian    0.15
    282 z         -2.253894     -2.239823     0.014070    Cartesian   -0.62
    283 x          4.507787      4.518467     0.010680    Cartesian    0.24
    283 y         -4.507787     -4.520046    -0.012259    Cartesian    0.27
    283 z          9.015574      9.085808     0.070233    Cartesian    0.78
    284 x          2.253894      2.253894     0.000000    Cartesian    0.00
    284 y          6.761681      6.728261    -0.033420    Cartesian   -0.49
    284 z         -6.761681     -6.751840     0.009841    Cartesian   -0.15
    285 x          2.253894      2.253894     0.000000    Cartesian    0.00
    285 y          2.253894      2.272049     0.018155    Cartesian    0.81
    285 z         11.269468     11.263175    -0.006293    Cartesian   -0.06
    286 x          4.507787      4.528322     0.020534    Cartesian    0.46
    286 y          9.015574      9.071594     0.056020    Cartesian    0.62
    286 z         -4.507787     -4.522021    -0.014233    Cartesian    0.32
    287 x         11.269468     11.268167    -0.001301    Cartesian   -0.01
    287 y         -2.253894     -2.258265    -0.004371    Cartesian    0.19
    287 z         -2.253894     -2.238035     0.015859    Cartesian   -0.70
    288 x          2.253894      2.253894     0.000000    Cartesian    0.00
    288 y         11.269468     11.293154     0.023686    Cartesian    0.21
    288 z          2.253894      2.257770     0.003876    Cartesian    0.17
    289 x          4.507787      4.513934     0.006147    Cartesian    0.14
    289 y         -9.015574     -9.091927    -0.076353    Cartesian    0.85
    289 z          0.000000      0.006565     0.006565    Cartesian    0.00
    290 x          9.015574      9.068315     0.052741    Cartesian    0.58
    290 y          0.000000      0.008603     0.008603    Cartesian    0.00
    290 z          9.015574      9.012975    -0.002599    Cartesian   -0.03
    291 x          9.015574      9.050847     0.035273    Cartesian    0.39
    291 y         -4.507787     -4.534869    -0.027081    Cartesian    0.60
    291 z         -4.507787     -4.504799     0.002988    Cartesian   -0.07
    292 x          2.253894      2.253894     0.000000    Cartesian    0.00
    292 y         -2.253894     -2.267057    -0.013164    Cartesian    0.58
    292 z         11.269468     11.252391    -0.017077    Cartesian   -0.15
    293 x          6.761681      6.769959     0.008278    Cartesian    0.12
    293 y         -6.761681     -6.758400     0.003281    Cartesian   -0.05
    293 z          6.761681      6.741460    -0.020221    Cartesian   -0.30
    294 x          4.507787      4.494243    -0.013544    Cartesian   -0.30
    294 y          0.000000      0.008382     0.008382    Cartesian    0.00
    294 z         -9.015574     -9.056300    -0.040725    Cartesian    0.45
    295 x          9.015574      9.018299     0.002725    Cartesian    0.03
    295 y          9.015574      9.058604     0.043030    Cartesian    0.48
    295 z          0.000000      0.000091     0.000091    Cartesian    0.00
    296 x         11.269468     11.274488     0.005020    Cartesian    0.04
    296 y          2.253894      2.247746    -0.006148    Cartesian   -0.27
    296 z          6.761681      6.773049     0.011368    Cartesian    0.17
    297 x         11.269468     11.275377     0.005909    Cartesian    0.05
    297 y          6.761681      6.768013     0.006332    Cartesian    0.09
    297 z          2.253894      2.260424     0.006530    Cartesian    0.29
    298 x          4.507787      4.529032     0.021245    Cartesian    0.47
    298 y         -9.015574     -9.029431    -0.013856    Cartesian    0.15
    298 z          4.507787      4.512235     0.004448    Cartesian    0.10
    299 x         -2.253894     -2.257714    -0.003821    Cartesian    0.17
    299 y          6.761681      6.773690     0.012009    Cartesian    0.18
    299 z         -6.761681     -6.742518     0.019163    Cartesian   -0.28
    300 x          2.253894      2.253894     0.000000    Cartesian    0.00
    300 y         11.269468     11.248750    -0.020718    Cartesian   -0.18
    300 z         -2.253894     -2.289181    -0.035287    Cartesian    1.57
    301 x          9.015574      9.035824     0.020250    Cartesian    0.22
    301 y          4.507787      4.497705    -0.010082    Cartesian   -0.22
    301 z          9.015574      9.051668     0.036094    Cartesian    0.40
    302 x          9.015574      9.083746     0.068171    Cartesian    0.76
    302 y          9.015574      9.021036     0.005462    Cartesian    0.06
    302 z          4.507787      4.515922     0.008134    Cartesian    0.18
    303 x         11.269468     11.269138    -0.000330    Cartesian   -0.00
    303 y         -2.253894     -2.247747     0.006147    Cartesian   -0.27
    303 z          6.761681      6.766735     0.005054    Cartesian    0.07
    304 x          6.761681      6.762562     0.000881    Cartesian    0.01
    304 y          2.253894      2.271358     0.017464    Cartesian    0.77
    304 z         11.269468     11.268547    -0.000921    Cartesian   -0.01
    305 x          4.507787      4.522486     0.014699    Cartesian    0.33
    305 y          4.507787      4.509371     0.001584    Cartesian    0.04
    305 z         -9.015574     -9.045721    -0.030147    Cartesian    0.33
    306 x          2.253894      2.253894     0.000000    Cartesian    0.00
    306 y         -6.761681     -6.750485     0.011196    Cartesian   -0.17
    306 z         -6.761681     -6.770325    -0.008645    Cartesian    0.13
    307 x         11.269468     11.272430     0.002962    Cartesian    0.03
    307 y          6.761681      6.760416    -0.001265    Cartesian   -0.02
    307 z         -2.253894     -2.256549    -0.002656    Cartesian    0.12
    308 x         -2.253894     -2.256392    -0.002499    Cartesian    0.11
    308 y         11.269468     11.271904     0.002436    Cartesian    0.02
    308 z          2.253894      2.232781    -0.021112    Cartesian   -0.94
    309 x         13.523362     13.542679     0.019317    Cartesian    0.14
    309 y          0.000000     -0.008812    -0.008812    Cartesian    0.00
    309 z          0.000000     -0.008833    -0.008833    Cartesian    0.00
    310 x          4.507787      4.533785     0.025998    Cartesian    0.58
    310 y          9.015574      9.065532     0.049957    Cartesian    0.55
    310 z          9.015574      9.031208     0.015633    Cartesian    0.17
    311 x          6.761681      6.767333     0.005653    Cartesian    0.08
    311 y         -2.253894     -2.260792    -0.006899    Cartesian    0.31
    311 z         11.269468     11.257096    -0.012372    Cartesian   -0.11
    312 x          2.253894      2.253894     0.000000    Cartesian    0.00
    312 y          6.761681      6.757242    -0.004438    Cartesian   -0.07
    312 z         11.269468     11.260362    -0.009106    Cartesian   -0.08
    313 x          2.253894      2.253894     0.000000    Cartesian    0.00
    313 y         11.269468     11.260725    -0.008744    Cartesian   -0.08
    313 z          6.761681      6.770409     0.008728    Cartesian    0.13
    314 x          9.015574      9.023448     0.007873    Cartesian    0.09
    314 y         -4.507787     -4.502268     0.005520    Cartesian   -0.12
    314 z          9.015574      9.058204     0.042629    Cartesian    0.47
    315 x          6.761681      6.765796     0.004115    Cartesian    0.06
    315 y         11.269468     11.273972     0.004504    Cartesian    0.04
    315 z         -2.253894     -2.244632     0.009262    Cartesian   -0.41
    316 x         13.523362     13.588297     0.064935    Cartesian    0.48
    316 y          0.000000     -0.001270    -0.001270    Cartesian    0.00
    316 z          4.507787      4.515631     0.007844    Cartesian    0.17
    317 x          4.507787      4.552929     0.045142    Cartesian    1.00
    317 y         -9.015574     -9.038862    -0.023288    Cartesian    0.26
    317 z         -4.507787     -4.541605    -0.033818    Cartesian    0.75
    318 x         13.523362     13.548376     0.025014    Cartesian    0.18
    318 y          4.507787      4.519443     0.011656    Cartesian    0.26
    318 z          0.000000     -0.011423    -0.011423    Cartesian    0.00
    319 x          4.507787      4.513391     0.005604    Cartesian    0.12
    319 y         -4.507787     -4.524004    -0.016216    Cartesian    0.36
    319 z         -9.015574     -9.054670    -0.039095    Cartesian    0.43
    320 x         11.269468     11.268956    -0.000512    Cartesian   -0.00
    320 y         -6.761681     -6.758367     0.003314    Cartesian   -0.05
    320 z          2.253894      2.261621     0.007728    Cartesian    0.34
    321 x          9.015574      9.036468     0.020893    Cartesian    0.23
    321 y          9.015574      9.028415     0.012840    Cartesian    0.14
    321 z         -4.507787     -4.530598    -0.022810    Cartesian    0.51
--------------------------------------------------------------------------------


  Time to end of optimisation  =       95.5997 seconds


  Peak dynamic memory used =      94.95 MB 


  Timing analysis for GULP :

--------------------------------------------------------------------------------
  Task / Subroutine                                          Time (Seconds)
--------------------------------------------------------------------------------
  Calculation of reciprocal space energy and derivatives          0.0006
  Calculation of reciprocal space energy using symmetry           0.0008
  Calculation of real space energy and derivatives                0.0033
  Calculation of real space energy using symmetry                 0.0079
  Calculation for region 1 energy and derivatives (2-b)          51.0541
  Calculation for region 2a energy                               41.1251
  Calculation for region 2b energy                                0.0154
  Calculation and manipulation of Hessian matrix                  0.1306
  Calculation of matrix inversion                                 2.9785
  Symmetry generation of equivalent positions                     0.0040
--------------------------------------------------------------------------------
  Total CPU time                                                 95.5998
--------------------------------------------------------------------------------


  Dump file written as Na3OCl.grs


  Job Finished at 10:47.27  4th December   2020                               

