********************************************************************************
*                       GENERAL UTILITY LATTICE PROGRAM                        *
*                                 Julian Gale                                  *
*                       Curtin Institute for Computation                       *
*                    School of Molecular and Life Sciences                     *
*                    Curtin University, Western Australia                      *
********************************************************************************
* Version = 5.2.0 * Last modified =  10th September 2020                       *
********************************************************************************
*  optimise     - perform optimisation run                                     *
*  conp         - constant pressure calculation                                *
*  property     - calculate properties for final geometry                      *
*  defect       - perform defect calculation after bulk run                    *
*  compare      - compare initial and final structures                         *
********************************************************************************

  Job Started  at 10:47.27  4th December   2020                               

  Number of CPUs =     1


  Total number of configurations input =      1

********************************************************************************
*  Input for Configuration =   1                                               *
********************************************************************************

  Formula = ClONa3                                                      

  Number of irreducible atoms/shells =       5


  Total number atoms/shells =       7

  Dimensionality = 3               :  Bulk   


  Symmetry :

  Crystal family                   :  Cubic       
  Crystal class  (Groth - 1921)    :  Cubic Hexakisoctahedral              

  Space group (centrosymmetric)    :  P M 3 M         

  Patterson group                  :  P m -3 m 

  Cartesian lattice vectors (Angstroms) :

        4.504000    0.000000    0.000000
        0.000000    4.504000    0.000000
        0.000000    0.000000    4.504000

  Cell parameters (Angstroms/Degrees):

  a =       4.5040    alpha =  90.0000
  b =       4.5040    beta  =  90.0000
  c =       4.5040    gamma =  90.0000

  Initial cell volume =          91.368216 Angs**3

  Temperature of configuration =   0.00     K 

  Pressure of configuration =         0.000 GPa 

  Fractional coordinates of asymmetric unit :

--------------------------------------------------------------------------------
   No.  Atomic       x           y          z         Charge      Occupancy
        Label      (Frac)      (Frac)     (Frac)        (e)         (Frac)  
--------------------------------------------------------------------------------
      1 Cl    c    0.000000    0.000000    0.000000     1.48500    1.000000    
      2 O     c    0.500000    0.500000    0.500000     0.18300    1.000000    
      3 Na    c    0.500000    0.500000    0.000000     1.00000    1.000000    
      4 Cl    s    0.000000    0.000000    0.000000    -2.48500    1.000000    
      5 O     s    0.500000    0.500000    0.500000    -2.18300    1.000000    
--------------------------------------------------------------------------------


  Constraints : 

--------------------------------------------------------------------------------
  Constraint no.      Unconstrained     Constrained    Coefficient    Offset
                         Variable         Variable
--------------------------------------------------------------------------------
           1              Strain 1        Strain 2       1.00000      0.0000
           2              Strain 1        Strain 3       1.00000      0.0000
--------------------------------------------------------------------------------


********************************************************************************
*  General input information                                                   *
********************************************************************************

  Species output for all configurations : 

--------------------------------------------------------------------------------
  Species    Type    Atomic    Atomic    Charge       Radii (Angs)     Library
                     Number     Mass       (e)     Cova   Ionic  VDW   Symbol
--------------------------------------------------------------------------------
    Na       Core       11      22.99   1.000000   0.970  0.000  2.300          
    O        Core        8      16.00   0.183000   0.730  0.000  1.360          
    O        Shell       8       0.00  -2.183000   0.730  0.000  1.360          
    Cl       Core       17      35.45   1.485000   0.990  0.000  1.650          
    Cl       Shell      17       0.00  -2.485000   0.990  0.000  1.650          
    Mg       Core       12      24.31   0.415000   1.100  0.000  0.000          
    Mg       Shell      12       0.00   1.585000   1.100  0.000  0.000          
    Ca       Core       20      40.08  -1.135000   0.990  0.000  0.000          
    Ca       Shell      20       0.00   3.135000   0.990  0.000  0.000          
    Sr       Core       38      87.62  -1.251000   1.120  0.000  0.000          
    Sr       Shell      38       0.00   3.251000   1.120  0.000  0.000          
    Ba       Core       56     137.33  -7.203000   1.340  0.000  0.000          
    Ba       Shell      56       0.00   9.203000   1.340  0.000  0.000          
--------------------------------------------------------------------------------


  Lattice summation method               =    Ewald          (3-D)
                                         =    Parry          (2-D)
                                         =    Saunders et al (1-D)
  Accuracy factor for lattice sums       =   12.000


  Analytic derivatives to be used

  Time limit = Infinity

  Maximum range for interatomic potentials =    100000.000000 Angstroms

  General interatomic potentials :

--------------------------------------------------------------------------------
Atom  Types   Potential      Parameter       Value         Units   Cutoffs(Ang)
  1     2                                                            Min /  Max 
--------------------------------------------------------------------------------
O    c O    s Spring (c-s)  Spring k 2       593.71600    eV*Ang^-2 0.000  0.800
                            Spring k 4       0.0000000    eV*Ang^-4 
--------------------------------------------------------------------------------
Cl   c Cl   s Spring (c-s)  Spring k 2       29.380000    eV*Ang^-2 0.000  0.800
                            Spring k 4       0.0000000    eV*Ang^-4 
--------------------------------------------------------------------------------
Mg   c Mg   s Spring (c-s)  Spring k 2       361.60000    eV*Ang^-2 0.000  0.800
                            Spring k 4       0.0000000    eV*Ang^-4 
--------------------------------------------------------------------------------
Ca   c Ca   s Spring (c-s)  Spring k 2       110.20000    eV*Ang^-2 0.000  0.800
                            Spring k 4       0.0000000    eV*Ang^-4 
--------------------------------------------------------------------------------
Sr   c Sr   s Spring (c-s)  Spring k 2       71.700000    eV*Ang^-2 0.000  0.800
                            Spring k 4       0.0000000    eV*Ang^-4 
--------------------------------------------------------------------------------
Ba   c Ba   s Spring (c-s)  Spring k 2       495.20000    eV*Ang^-2 0.000  0.800
                            Spring k 4       0.0000000    eV*Ang^-4 
--------------------------------------------------------------------------------
Na   c Na   c Buckingham    Buckingham A     1788.1900    eV        0.000 12.000
                            Buckingham rho  0.15900000    Ang       
                            Buckingham C     0.0000000    eV*Ang^6  
--------------------------------------------------------------------------------
Na   c O    s Buckingham    Buckingham A     1226.8400    eV        0.000 12.000
                            Buckingham rho  0.30700000    Ang       
                            Buckingham C     0.0000000    eV*Ang^6  
--------------------------------------------------------------------------------
Na   c Cl   s Buckingham    Buckingham A     2314.7000    eV        0.000 12.000
                            Buckingham rho  0.29000000    Ang       
                            Buckingham C     0.0000000    eV*Ang^6  
--------------------------------------------------------------------------------
O    s O    s Buckingham    Buckingham A     22764.300    eV        0.000 12.000
                            Buckingham rho  0.14900000    Ang       
                            Buckingham C     13.190000    eV*Ang^6  
--------------------------------------------------------------------------------
O    s Cl   s Buckingham    Buckingham A     8286.9100    eV        0.000 12.000
                            Buckingham rho  0.25900000    Ang       
                            Buckingham C     62.200000    eV*Ang^6  
--------------------------------------------------------------------------------
Cl   s Cl   s Buckingham    Buckingham A     1227.2000    eV        0.000 12.000
                            Buckingham rho  0.32100000    Ang       
                            Buckingham C     14.530000    eV*Ang^6  
--------------------------------------------------------------------------------
O    s Mg   s Buckingham    Buckingham A     1428.5000    eV        0.000 12.000
                            Buckingham rho  0.29450000    Ang       
                            Buckingham C     0.0000000    eV*Ang^6  
--------------------------------------------------------------------------------
Mg   s Cl   s Buckingham    Buckingham A     4914.5400    eV        0.000 12.000
                            Buckingham rho  0.25700000    Ang       
                            Buckingham C     0.0000000    eV*Ang^6  
--------------------------------------------------------------------------------
O    s Ca   s Buckingham    Buckingham A     1090.4000    eV        0.000 12.000
                            Buckingham rho  0.34370000    Ang       
                            Buckingham C     0.0000000    eV*Ang^6  
--------------------------------------------------------------------------------
Cl   s Ca   s Buckingham    Buckingham A     2302.0000    eV        0.000 12.000
                            Buckingham rho  0.34020000    Ang       
                            Buckingham C     0.0000000    eV*Ang^6  
--------------------------------------------------------------------------------
O    s Sr   s Buckingham    Buckingham A     959.10000    eV        0.000 12.000
                            Buckingham rho  0.37210000    Ang       
                            Buckingham C     0.0000000    eV*Ang^6  
--------------------------------------------------------------------------------
Cl   s Sr   s Buckingham    Buckingham A     2191.0900    eV        0.000 12.000
                            Buckingham rho  0.34570000    Ang       
                            Buckingham C     0.0000000    eV*Ang^6  
--------------------------------------------------------------------------------
O    s Ba   s Buckingham    Buckingham A     905.70000    eV        0.000 12.000
                            Buckingham rho  0.39760000    Ang       
                            Buckingham C     0.0000000    eV*Ang^6  
--------------------------------------------------------------------------------
Cl   s Ba   s Buckingham    Buckingham A     2704.5500    eV        0.000 12.000
                            Buckingham rho  0.35280000    Ang       
                            Buckingham C     0.0000000    eV*Ang^6  
--------------------------------------------------------------------------------

********************************************************************************
*  Output for configuration   1                                                *
********************************************************************************


  Components of energy : 

--------------------------------------------------------------------------------
  Interatomic potentials     =           5.13022605 eV    
  Monopole - monopole (real) =         -10.03624526 eV    
  Monopole - monopole (recip)=         -29.53581274 eV    
  Monopole - monopole (total)=         -39.57205800 eV    
--------------------------------------------------------------------------------
  Total lattice energy       =         -34.44183194 eV    
--------------------------------------------------------------------------------
  Total lattice energy       =           -3323.1103 kJ/(mole unit cells)
--------------------------------------------------------------------------------


  Number of variables =        1

  Maximum number of calculations  =          1000
  Maximum Hessian update interval =            10
  Maximum step size               =   1.000000000
  Maximum parameter tolerance     =   0.000010000
  Maximum function  tolerance     =   0.000010000
  Maximum gradient  tolerance     =   0.001000000
  Maximum gradient  component     =   0.010000000

  Symmetry constrained optimisation

  Symmetry used for second derivatives

  Cell parameters to be optimised using strains

  Newton-Raphson optimiser to be used

  BFGS hessian update to be used

  Lower half triangular hessian to be used

  Start of bulk optimisation :

  Cycle:      0 Energy:       -34.441832  Gnorm:      0.196570  CPU:    0.013
  ** Hessian calculated **
  Cycle:      1 Energy:       -34.441914  Gnorm:      0.000103  CPU:    0.016


  **** Optimisation achieved ****


  Final energy =     -34.44191447 eV
  Final Gnorm  =       0.00000000

  Components of energy : 

--------------------------------------------------------------------------------
  Interatomic potentials     =           5.09689708 eV    
  Monopole - monopole (real) =         -10.02781331 eV    
  Monopole - monopole (recip)=         -29.51099824 eV    
  Monopole - monopole (total)=         -39.53881155 eV    
--------------------------------------------------------------------------------
  Total lattice energy       =         -34.44191447 eV    
--------------------------------------------------------------------------------
  Total lattice energy       =           -3323.1183 kJ/(mole unit cells)
--------------------------------------------------------------------------------

  Final asymmetric unit coordinates :

--------------------------------------------------------------------------------
   No.  Atomic        x           y           z         Radius
        Label       (Frac)      (Frac)      (Frac)       (Angs) 
--------------------------------------------------------------------------------
     1  Cl    c     0.000000    0.000000    0.000000    0.000000
     2  O     c     0.500000    0.500000    0.500000    0.000000
     3  Na    c     0.500000    0.500000    0.000000    0.000000
     4  Cl    s     0.000000    0.000000    0.000000    0.000000
     5  O     s     0.500000    0.500000    0.500000    0.000000
--------------------------------------------------------------------------------

  Final Cartesian lattice vectors (Angstroms) :

        4.507787    0.000000    0.000000
        0.000000    4.507787    0.000000
        0.000000    0.000000    4.507787


  Final cell parameters and derivatives :

--------------------------------------------------------------------------------
       a            4.507787 Angstrom     dE/de1(xx)     0.000000 eV/strain
       b            4.507787 Angstrom     dE/de2(yy)     0.000000 eV/strain
       c            4.507787 Angstrom     dE/de3(zz)     0.000000 eV/strain
       alpha       90.000000 Degrees      dE/de4(yz)     0.000000 eV/strain
       beta        90.000000 Degrees      dE/de5(xz)     0.000000 eV/strain
       gamma       90.000000 Degrees      dE/de6(xy)     0.000000 eV/strain
--------------------------------------------------------------------------------

  Primitive cell volume =            91.598892 Angs**3

  Density of cell =      2.183054 g/cm**3

  Non-primitive cell volume =            91.598892 Angs**3


  Final internal derivatives :

--------------------------------------------------------------------------------
   No.  Atomic          a             b             c           Radius
        Label          (eV)          (eV)          (eV)        (eV/Angs)
--------------------------------------------------------------------------------
      1 Cl    c       0.000000      0.000000      0.000000      0.000000
      2 O     c       0.000000      0.000000      0.000000      0.000000
      3 Na    c       0.000000      0.000000      0.000000      0.000000
      4 Cl    s       0.000000      0.000000      0.000000      0.000000
      5 O     s       0.000000      0.000000      0.000000      0.000000
--------------------------------------------------------------------------------
  Maximum abs         0.000000      0.000000      0.000000      0.000000
--------------------------------------------------------------------------------

  Comparison of initial and final structures : 

--------------------------------------------------------------------------------
  Parameter   Initial value   Final value   Difference    Units      Percent
--------------------------------------------------------------------------------
    Volume        91.368216     91.598892     0.230676    Angs**3      0.25
    a              4.504000      4.507787     0.003787    Angstroms    0.08
    b              4.504000      4.507787     0.003787    Angstroms    0.08
    c              4.504000      4.507787     0.003787    Angstroms    0.08
    alpha         90.000000     90.000000     0.000000    Degrees      0.00
    beta          90.000000     90.000000     0.000000    Degrees      0.00
    gamma         90.000000     90.000000     0.000000    Degrees      0.00
      1 x          0.000000      0.000000     0.000000    Fractional   0.00
      1 y          0.000000      0.000000     0.000000    Fractional   0.00
      1 z          0.000000      0.000000     0.000000    Fractional   0.00
      2 x          0.500000      0.500000     0.000000    Fractional   0.00
      2 y          0.500000      0.500000     0.000000    Fractional   0.00
      2 z          0.500000      0.500000     0.000000    Fractional   0.00
      3 x          0.500000      0.500000     0.000000    Fractional   0.00
      3 y          0.500000      0.500000     0.000000    Fractional   0.00
      3 z          0.000000      0.000000     0.000000    Fractional   0.00
      4 x          0.000000      0.000000     0.000000    Fractional   0.00
      4 y          0.000000      0.000000     0.000000    Fractional   0.00
      4 z          0.000000      0.000000     0.000000    Fractional   0.00
      5 x          0.500000      0.500000     0.000000    Fractional   0.00
      5 y          0.500000      0.500000     0.000000    Fractional   0.00
      5 z          0.500000      0.500000     0.000000    Fractional   0.00
--------------------------------------------------------------------------------


  Born effective charge tensors : 

-------------------------------------------------------------------------------
  Atom             x           y             z
-------------------------------------------------------------------------------
    1 Cl    x      -1.0181     -0.0000      0.0000
            y      -0.0000     -1.0181      0.0000
            z       0.0000      0.0000     -1.0181
-------------------------------------------------------------------------------
    2 O     x      -2.2647      0.0000     -0.0000
            y       0.0000     -2.2647     -0.0000
            z      -0.0000     -0.0000     -2.2647
-------------------------------------------------------------------------------
    3 Na    x       1.2258     -0.0000      0.0000
            y      -0.0000      1.2258     -0.0000
            z       0.0000     -0.0000      0.8313
-------------------------------------------------------------------------------




  Elastic Constant Matrix: (Units=GPa)

-------------------------------------------------------------------------------
  Indices      1         2         3         4         5         6    
-------------------------------------------------------------------------------
       1     95.8177   20.0737   20.0737   -0.0000   -0.0000    0.0000
       2     20.0737   95.8177   20.0737   -0.0000   -0.0000    0.0000
       3     20.0737   20.0737   95.8177   -0.0000   -0.0000    0.0000
       4     -0.0000   -0.0000   -0.0000   20.0737   -0.0000    0.0000
       5     -0.0000   -0.0000   -0.0000   -0.0000   20.0737    0.0000
       6      0.0000    0.0000    0.0000    0.0000    0.0000   20.0737
-------------------------------------------------------------------------------


  Elastic Compliance Matrix: (Units=1/GPa)

-------------------------------------------------------------------------------
  Indices      1         2         3         4         5         6    
-------------------------------------------------------------------------------
       1    0.011253 -0.001949 -0.001949  0.000000  0.000000 -0.000000
       2   -0.001949  0.011253 -0.001949  0.000000  0.000000  0.000000
       3   -0.001949 -0.001949  0.011253  0.000000  0.000000 -0.000000
       4    0.000000  0.000000  0.000000  0.049816  0.000000 -0.000000
       5    0.000000  0.000000  0.000000  0.000000  0.049816 -0.000000
       6   -0.000000  0.000000 -0.000000 -0.000000 -0.000000  0.049816
-------------------------------------------------------------------------------

  Mechanical properties :

-------------------------------------------------------------------------------
  Convention :                    Reuss         Voigt         Hill
-------------------------------------------------------------------------------
  Bulk  Modulus (GPa)     =      45.32174      45.32174      45.32174
  Shear Modulus (GPa)     =      24.72085      27.19304      25.95695
-------------------------------------------------------------------------------
  Velocity S-wave (km/s)  =       3.36511       3.52937       3.44822
  Velocity P-wave (km/s)  =       5.98827       6.11304       6.05098
-------------------------------------------------------------------------------
  Compressibility (1/GPa) =    0.02206447
-------------------------------------------------------------------------------
  Stress axis :                     x             y             z
-------------------------------------------------------------------------------
  Youngs Moduli (GPa)     =      88.86373      88.86373      88.86373
-------------------------------------------------------------------------------
  Poissons Ratio (x)      =                     0.17321       0.17321
  Poissons Ratio (y)      =       0.17321                     0.17321
  Poissons Ratio (z)      =       0.17321       0.17321
-------------------------------------------------------------------------------


  Piezoelectric Strain Matrix: (Units=C/m**2)

-------------------------------------------------------------------------------
  Indices      1         2         3         4         5         6    
-------------------------------------------------------------------------------
       x    -0.00000  -0.00000  -0.00000   0.00000  -0.00000  -0.00000
       y    -0.00000  -0.00000   0.00000  -0.00000   0.00000   0.00000
       z    -0.00000  -0.00000  -0.00000  -0.00000   0.00000   0.00000
-------------------------------------------------------------------------------


  Piezoelectric Stress Matrix: (Units=10**-11 C/N)

-------------------------------------------------------------------------------
  Indices      1         2         3         4         5         6    
-------------------------------------------------------------------------------
       x    -0.00000   0.00000   0.00000   0.00000  -0.00000  -0.00000
       y    -0.00000  -0.00000   0.00000  -0.00000   0.00000   0.00000
       z     0.00000   0.00000  -0.00000  -0.00000   0.00000   0.00000
-------------------------------------------------------------------------------


  Static dielectric constant tensor : 

-------------------------------------------------------------------------------
              x         y         z
-------------------------------------------------------------------------------
       x    22.84729   0.00000   0.00000
       y     0.00000  22.84729  -0.00000
       z     0.00000  -0.00000  22.84729
--------------------------------------------------------------------------------

  High frequency dielectric constant tensor : 

-------------------------------------------------------------------------------
              x         y         z
-------------------------------------------------------------------------------
       x     1.47557   0.00000  -0.00000
       y     0.00000   1.47557  -0.00000
       z    -0.00000  -0.00000   1.47557
-------------------------------------------------------------------------------

  Static refractive indices : 

-------------------------------------------------------------------------------
    1 =    4.77988      2 =    4.77988      3 =    4.77988
-------------------------------------------------------------------------------

  High frequency refractive indices : 

-------------------------------------------------------------------------------
    1 =    1.21473      2 =    1.21473      3 =    1.21473
-------------------------------------------------------------------------------


  Time to end of optimisation =       0.0236 seconds

********************************************************************************
*  Defect calculation for configuration   1 :                                  *
********************************************************************************

  Total number of defects =      3

  Total charge on defect  =  -1.00

  Defect centre is at   0.5000   0.1500   0.3500  Frac

  Region 1 radius =  12.0000      Number of ions =    543

  Number of symmetry inequivalent region 1 ions  =    315

  Region 2 radius =  16.0000      Number of ions =    778

  Number of symmetry inequivalent region 2a ions =    424

  Region 2a mode = 4 : screened electrostatics due to region 1 
                       neglect correction to region 1 forces from 2a
                       region 2a displacements based on defects only

  Region 2a ions will only interact with defects in region 1

  Vacancies:

--------------------------------------------------------------------------------
    Specification type     Symbol/Number         x          y          z
--------------------------------------------------------------------------------
    Fractional                               0.500000   0.500000   0.000000
    Fractional                               0.500000   0.000000   0.500000
--------------------------------------------------------------------------------

  Interstitials:

--------------------------------------------------------------------------------
    Specification type     Symbol/Number         x          y          z
--------------------------------------------------------------------------------
    Atom/Fractional         Na               0.500000   0.350000   0.150000
--------------------------------------------------------------------------------


  Symmetry reduced region 1 (Relative to defect centre) :

--------------------------------------------------------------------------------
   No.   Atomic       x            y             z       Radius  Multiplicity   
         Label      (Angs)       (Angs)        (Angs)    (Angs)     
--------------------------------------------------------------------------------
     1  Na    c      0.0000       0.9016      -0.9016    0.0000     1    Defect
     2  O     c      0.0000       1.5777 *     0.6762 *  0.0000     1          
     3  Cl    c      2.2539 *    -0.6762 *    -1.5777 *  0.0000     2          
     4  Na    c      2.2539 *     1.5777 *     0.6762 *  0.0000     2          
     5  O     c      0.0000      -2.9301 *     0.6762 *  0.0000     1          
     6  Na    c      0.0000       1.5777 *     2.9301 *  0.0000     1          
     7  Na    c      0.0000      -2.9301 *    -1.5777 *  0.0000     1          
     8  Na    c      2.2539 *    -2.9301 *     0.6762 *  0.0000     2          
     9  Cl    c      2.2539 *    -0.6762 *     2.9301 *  0.0000     2          
    10  Na    c      0.0000       3.8316 *     0.6762 *  0.0000     1          
    11  Na    c      0.0000      -0.6762 *    -3.8316 *  0.0000     1          
    12  Na    c      0.0000      -2.9301 *     2.9301 *  0.0000     1          
    13  O     c      0.0000       1.5777 *    -3.8316 *  0.0000     1          
    14  Na    c     -4.5078 *    -0.6762 *     0.6762 *  0.0000     2          
    15  Cl    c      2.2539 *     3.8316 *    -1.5777 *  0.0000     2          
    16  Na    c      2.2539 *     1.5777 *    -3.8316 *  0.0000     2          
    17  O     c     -4.5078 *     1.5777 *     0.6762 *  0.0000     2          
    18  O     c      0.0000      -2.9301 *    -3.8316 *  0.0000     1          
    19  Na    c     -4.5078 *     1.5777 *    -1.5777 *  0.0000     2          
    20  Na    c      0.0000      -0.6762 *     5.1840 *  0.0000     1          
    21  Na    c      0.0000      -5.1840 *     0.6762 *  0.0000     1          
    22  Cl    c      2.2539 *     3.8316 *     2.9301 *  0.0000     2          
    23  Na    c      2.2539 *    -2.9301 *    -3.8316 *  0.0000     2          
    24  O     c      0.0000       1.5777 *     5.1840 *  0.0000     1          
    25  O     c     -4.5078 *    -2.9301 *     0.6762 *  0.0000     2          
    26  Na    c      0.0000       3.8316 *    -3.8316 *  0.0000     1          
    27  Na    c     -4.5078 *     1.5777 *     2.9301 *  0.0000     2          
    28  Na    c     -4.5078 *    -2.9301 *    -1.5777 *  0.0000     2          
    29  Na    c      2.2539 *     1.5777 *     5.1840 *  0.0000     2          
    30  Cl    c      2.2539 *    -5.1840 *    -1.5777 *  0.0000     2          
    31  O     c      0.0000      -2.9301 *     5.1840 *  0.0000     1          
    32  Na    c     -4.5078 *     3.8316 *     0.6762 *  0.0000     2          
    33  Na    c     -4.5078 *    -0.6762 *    -3.8316 *  0.0000     2          
    34  Na    c     -4.5078 *    -2.9301 *     2.9301 *  0.0000     2          
    35  O     c      0.0000       6.0855 *     0.6762 *  0.0000     1          
    36  O     c     -4.5078 *     1.5777 *    -3.8316 *  0.0000     2          
    37  Na    c      0.0000       1.5777 *    -6.0855 *  0.0000     1          
    38  Na    c      0.0000       6.0855 *    -1.5777 *  0.0000     1          
    39  Na    c      2.2539 *    -2.9301 *     5.1840 *  0.0000     2          
    40  Cl    c      2.2539 *    -5.1840 *     2.9301 *  0.0000     2          
    41  Na    c      0.0000       3.8316 *     5.1840 *  0.0000     1          
    42  Na    c      0.0000      -5.1840 *    -3.8316 *  0.0000     1          
    43  Cl    c      2.2539 *    -0.6762 *    -6.0855 *  0.0000     2          
    44  Na    c      2.2539 *     6.0855 *     0.6762 *  0.0000     2          
    45  O     c     -4.5078 *    -2.9301 *    -3.8316 *  0.0000     2          
    46  Na    c      0.0000      -2.9301 *    -6.0855 *  0.0000     1          
    47  Na    c      0.0000       6.0855 *     2.9301 *  0.0000     1          
    48  Na    c     -4.5078 *    -0.6762 *     5.1840 *  0.0000     2          
    49  Na    c     -4.5078 *    -5.1840 *     0.6762 *  0.0000     2          
    50  Cl    c      6.7617 *    -0.6762 *    -1.5777 *  0.0000     2          
    51  Na    c      6.7617 *     1.5777 *     0.6762 *  0.0000     2          
    52  O     c     -4.5078 *     1.5777 *     5.1840 *  0.0000     2          
    53  Na    c     -4.5078 *     3.8316 *    -3.8316 *  0.0000     2          
    54  O     c      0.0000       6.0855 *    -3.8316 *  0.0000     1          
    55  Na    c      0.0000      -5.1840 *     5.1840 *  0.0000     1          
    56  Cl    c      6.7617 *    -0.6762 *     2.9301 *  0.0000     2          
    57  Na    c      6.7617 *    -2.9301 *     0.6762 *  0.0000     2          
    58  O     c      0.0000      -7.4378 *     0.6762 *  0.0000     1          
    59  O     c     -4.5078 *    -2.9301 *     5.1840 *  0.0000     2          
    60  Cl    c      2.2539 *     3.8316 *    -6.0855 *  0.0000     2          
    61  Na    c      2.2539 *     6.0855 *    -3.8316 *  0.0000     2          
    62  O     c     -4.5078 *     6.0855 *     0.6762 *  0.0000     2          
    63  Na    c      0.0000       1.5777 *     7.4378 *  0.0000     1          
    64  Na    c      0.0000      -7.4378 *    -1.5777 *  0.0000     1          
    65  Na    c     -4.5078 *     1.5777 *    -6.0855 *  0.0000     2          
    66  Na    c     -4.5078 *     6.0855 *    -1.5777 *  0.0000     2          
    67  Cl    c      2.2539 *    -0.6762 *     7.4378 *  0.0000     2          
    68  Na    c      2.2539 *    -7.4378 *     0.6762 *  0.0000     2          
    69  Na    c      4.5078 *     3.8316 *     5.1840 *  0.0000     2          
    70  Na    c     -4.5078 *    -5.1840 *    -3.8316 *  0.0000     2          
    71  Cl    c      6.7617 *     3.8316 *    -1.5777 *  0.0000     2          
    72  Na    c      6.7617 *     1.5777 *    -3.8316 *  0.0000     2          
    73  O     c      0.0000       6.0855 *     5.1840 *  0.0000     1          
    74  Na    c      0.0000      -2.9301 *     7.4378 *  0.0000     1          
    75  Na    c      0.0000      -7.4378 *     2.9301 *  0.0000     1          
    76  Na    c     -4.5078 *     6.0855 *     2.9301 *  0.0000     2          
    77  Na    c     -4.5078 *    -2.9301 *    -6.0855 *  0.0000     2          
    78  Na    c      2.2539 *     6.0855 *     5.1840 *  0.0000     2          
    79  Cl    c      2.2539 *    -5.1840 *    -6.0855 *  0.0000     2          
    80  Cl    c      6.7617 *     3.8316 *     2.9301 *  0.0000     2          
    81  Na    c      6.7617 *    -2.9301 *    -3.8316 *  0.0000     2          
    82  O     c      0.0000      -7.4378 *    -3.8316 *  0.0000     1          
    83  Na    c      0.0000      -0.6762 *    -8.3394 *  0.0000     1          
    84  Na    c      0.0000       8.3394 *     0.6762 *  0.0000     1          
    85  O     c      0.0000       1.5777 *    -8.3394 *  0.0000     1          
    86  O     c     -4.5078 *     6.0855 *    -3.8316 *  0.0000     2          
    87  Na    c     -4.5078 *    -5.1840 *     5.1840 *  0.0000     2          
    88  Na    c      0.0000       6.0855 *    -6.0855 *  0.0000     1          
    89  Cl    c      2.2539 *     3.8316 *     7.4378 *  0.0000     2          
    90  Na    c      2.2539 *    -7.4378 *    -3.8316 *  0.0000     2          
    91  Na    c      6.7617 *     1.5777 *     5.1840 *  0.0000     2          
    92  Cl    c      6.7617 *    -5.1840 *    -1.5777 *  0.0000     2          
    93  O     c      4.5078 *    -7.4378 *     0.6762 *  0.0000     2          
    94  Cl    c      2.2539 *     8.3394 *    -1.5777 *  0.0000     2          
    95  Na    c      2.2539 *     1.5777 *    -8.3394 *  0.0000     2          
    96  O     c      0.0000      -2.9301 *    -8.3394 *  0.0000     1          
    97  Na    c      4.5078 *     1.5777 *     7.4378 *  0.0000     2          
    98  Na    c      4.5078 *    -7.4378 *    -1.5777 *  0.0000     2          
    99  Na    c      6.7617 *    -2.9301 *     5.1840 *  0.0000     2          
   100  Cl    c      6.7617 *    -5.1840 *     2.9301 *  0.0000     2          
   101  O     c      0.0000      -7.4378 *     5.1840 *  0.0000     1          
   102  Na    c      9.0156 *    -0.6762 *     0.6762 *  0.0000     2          
   103  Cl    c      2.2539 *     8.3394 *     2.9301 *  0.0000     2          
   104  Cl    c      6.7617 *    -0.6762 *    -6.0855 *  0.0000     2          
   105  Na    c      2.2539 *    -2.9301 *    -8.3394 *  0.0000     2          
   106  Na    c      6.7617 *     6.0855 *     0.6762 *  0.0000     2          
   107  O     c     -4.5078 *     6.0855 *     5.1840 *  0.0000     2          
   108  Na    c     -4.5078 *    -2.9301 *     7.4378 *  0.0000     2          
   109  Na    c      0.0000       3.8316 *    -8.3394 *  0.0000     1          
   110  Na    c      0.0000       8.3394 *    -3.8316 *  0.0000     1          
   111  O     c      9.0156 *     1.5777 *     0.6762 *  0.0000     2          
   112  Na    c      4.5078 *    -7.4378 *     2.9301 *  0.0000     2          
   113  Na    c      9.0156 *     1.5777 *    -1.5777 *  0.0000     2          
   114  Cl    c      2.2539 *    -5.1840 *     7.4378 *  0.0000     2          
   115  Na    c      2.2539 *    -7.4378 *     5.1840 *  0.0000     2          
   116  O     c      4.5078 *    -7.4378 *    -3.8316 *  0.0000     2          
   117  Na    c     -4.5078 *    -0.6762 *    -8.3394 *  0.0000     2          
   118  Na    c     -4.5078 *     8.3394 *     0.6762 *  0.0000     2          
   119  O     c      9.0156 *    -2.9301 *     0.6762 *  0.0000     2          
   120  O     c      4.5078 *     1.5777 *    -8.3394 *  0.0000     2          
   121  Na    c      0.0000       6.0855 *     7.4378 *  0.0000     1          
   122  Na    c      0.0000      -7.4378 *    -6.0855 *  0.0000     1          
   123  Na    c      9.0156 *     1.5777 *     2.9301 *  0.0000     2          
   124  Na    c      9.0156 *    -2.9301 *    -1.5777 *  0.0000     2          
   125  Na    c      0.0000      -0.6762 *     9.6917 *  0.0000     1          
   126  Na    c      0.0000      -9.6917 *     0.6762 *  0.0000     1          
   127  Na    c      4.5078 *     6.0855 *    -6.0855 *  0.0000     2          
   128  O     c      0.0000       1.5777 *     9.6917 *  0.0000     1          
   129  Na    c      0.0000       8.3394 *     5.1840 *  0.0000     1          
   130  Na    c      0.0000      -5.1840 *    -8.3394 *  0.0000     1          
   131  Na    c      9.0156 *    -0.6762 *    -3.8316 *  0.0000     2          
   132  Na    c      9.0156 *     3.8316 *     0.6762 *  0.0000     2          
   133  Cl    c      6.7617 *     3.8316 *    -6.0855 *  0.0000     2          
   134  Na    c      6.7617 *     6.0855 *    -3.8316 *  0.0000     2          
   135  O     c      4.5078 *    -2.9301 *    -8.3394 *  0.0000     2          
   136  O     c      9.0156 *     1.5777 *    -3.8316 *  0.0000     2          
   137  Na    c      9.0156 *    -2.9301 *     2.9301 *  0.0000     2          
   138  Cl    c      2.2539 *    -9.6917 *    -1.5777 *  0.0000     2          
   139  Na    c      2.2539 *     1.5777 *     9.6917 *  0.0000     2          
   140  Cl    c      6.7617 *    -0.6762 *     7.4378 *  0.0000     2          
   141  Na    c      6.7617 *    -7.4378 *     0.6762 *  0.0000     2          
   142  O     c      0.0000      -2.9301 *     9.6917 *  0.0000     1          
   143  O     c      4.5078 *    -7.4378 *     5.1840 *  0.0000     2          
   144  Na    c     -4.5078 *     8.3394 *    -3.8316 *  0.0000     2          
   145  O     c      9.0156 *    -2.9301 *    -3.8316 *  0.0000     2          
   146  Na    c      4.5078 *     3.8316 *    -8.3394 *  0.0000     2          
   147  O     c      0.0000       6.0855 *    -8.3394 *  0.0000     1          
   148  Cl    c      2.2539 *    -9.6917 *     2.9301 *  0.0000     2          
   149  Na    c      2.2539 *    -2.9301 *     9.6917 *  0.0000     2          
   150  Na    c      0.0000       3.8316 *     9.6917 *  0.0000     1          
   151  Na    c      0.0000      -9.6917 *    -3.8316 *  0.0000     1          
   152  Na    c      9.0156 *    -0.6762 *     5.1840 *  0.0000     2          
   153  Na    c      9.0156 *    -5.1840 *     0.6762 *  0.0000     2          
   154  Cl    c      6.7617 *    -5.1840 *    -6.0855 *  0.0000     2          
   155  Na    c      6.7617 *     6.0855 *     5.1840 *  0.0000     2          
   156  O     c      9.0156 *     1.5777 *     5.1840 *  0.0000     2          
   157  Na    c      0.0000      -7.4378 *     7.4378 *  0.0000     1          
   158  Na    c      9.0156 *     3.8316 *    -3.8316 *  0.0000     2          
   159  Cl    c      2.2539 *     8.3394 *    -6.0855 *  0.0000     2          
   160  Na    c      2.2539 *     6.0855 *    -8.3394 *  0.0000     2          
   161  O     c      0.0000      10.5933 *     0.6762 *  0.0000     1          
   162  Na    c      4.5078 *    -7.4378 *    -6.0855 *  0.0000     2          
   163  Na    c     -4.5078 *     6.0855 *     7.4378 *  0.0000     2          
   164  Na    c      0.0000       1.5777 *   -10.5933 *  0.0000     1          
   165  Na    c      0.0000      10.5933 *    -1.5777 *  0.0000     1          
   166  Na    c     -4.5078 *    -0.6762 *     9.6917 *  0.0000     2          
   167  Na    c     -4.5078 *    -9.6917 *     0.6762 *  0.0000     2          
   168  Cl    c      6.7617 *     3.8316 *     7.4378 *  0.0000     2          
   169  Na    c      6.7617 *    -7.4378 *    -3.8316 *  0.0000     2          
   170  O     c      4.5078 *     1.5777 *     9.6917 *  0.0000     2          
   171  Na    c     -4.5078 *     8.3394 *     5.1840 *  0.0000     2          
   172  O     c      9.0156 *    -2.9301 *     5.1840 *  0.0000     2          
   173  Na    c     -4.5078 *    -5.1840 *    -8.3394 *  0.0000     2          
   174  Cl    c      2.2539 *    -0.6762 *   -10.5933 *  0.0000     2          
   175  Na    c      2.2539 *    10.5933 *     0.6762 *  0.0000     2          
   176  Cl    c      6.7617 *     8.3394 *    -1.5777 *  0.0000     2          
   177  Na    c      6.7617 *     1.5777 *    -8.3394 *  0.0000     2          
   178  O     c      9.0156 *     6.0855 *     0.6762 *  0.0000     2          
   179  Na    c      0.0000      10.5933 *     2.9301 *  0.0000     1          
   180  Na    c      0.0000      -2.9301 *   -10.5933 *  0.0000     1          
   181  Na    c      0.0000      -9.6917 *     5.1840 *  0.0000     1          
   182  Na    c      0.0000      -5.1840 *     9.6917 *  0.0000     1          
   183  Na    c      9.0156 *     1.5777 *    -6.0855 *  0.0000     2          
   184  Na    c      9.0156 *     6.0855 *    -1.5777 *  0.0000     2          
   185  O     c      4.5078 *    -2.9301 *     9.6917 *  0.0000     2          
   186  Na    c      9.0156 *     3.8316 *     5.1840 *  0.0000     2          
   187  Na    c      9.0156 *    -5.1840 *    -3.8316 *  0.0000     2          
   188  Cl    c      6.7617 *     8.3394 *     2.9301 *  0.0000     2          
   189  Na    c      6.7617 *    -2.9301 *    -8.3394 *  0.0000     2          
   190  O     c      0.0000      -7.4378 *    -8.3394 *  0.0000     1          
   191  O     c      0.0000      10.5933 *    -3.8316 *  0.0000     1          
   192  O     c     -4.5078 *     6.0855 *    -8.3394 *  0.0000     2          
   193  Na    c      9.0156 *     6.0855 *     2.9301 *  0.0000     2          
   194  Na    c      9.0156 *    -2.9301 *    -6.0855 *  0.0000     2          
   195  Na    c      6.7617 *    -7.4378 *     5.1840 *  0.0000     2          
   196  Cl    c      6.7617 *    -5.1840 *     7.4378 *  0.0000     2          
   197  Na    c      4.5078 *     3.8316 *     9.6917 *  0.0000     2          
   198  Na    c      4.5078 *    -9.6917 *    -3.8316 *  0.0000     2          
   199  Cl    c     11.2695 *    -0.6762 *    -1.5777 *  0.0000     2          
   200  Na    c     11.2695 *     1.5777 *     0.6762 *  0.0000     2          
   201  Cl    c      2.2539 *     8.3394 *     7.4378 *  0.0000     2          
   202  Na    c      2.2539 *    -7.4378 *    -8.3394 *  0.0000     2          
   203  O     c      0.0000       6.0855 *     9.6917 *  0.0000     1          
   204  Na    c      4.5078 *    -7.4378 *     7.4378 *  0.0000     2          
   205  Cl    c      2.2539 *     3.8316 *   -10.5933 *  0.0000     2          
   206  Na    c      2.2539 *    10.5933 *    -3.8316 *  0.0000     2          
   207  O     c      4.5078 *    10.5933 *     0.6762 *  0.0000     2          
   208  O     c      9.0156 *     6.0855 *    -3.8316 *  0.0000     2          
   209  Na    c      4.5078 *    10.5933 *    -1.5777 *  0.0000     2          
   210  Na    c      4.5078 *     1.5777 *   -10.5933 *  0.0000     2          
   211  Na    c      9.0156 *    -5.1840 *     5.1840 *  0.0000     2          
   212  Cl    c      2.2539 *    -9.6917 *    -6.0855 *  0.0000     2          
   213  Cl    c     11.2695 *    -0.6762 *     2.9301 *  0.0000     2          
   214  Na    c     11.2695 *    -2.9301 *     0.6762 *  0.0000     2          
   215  Na    c      2.2539 *     6.0855 *     9.6917 *  0.0000     2          
   216  O     c      9.0156 *    -7.4378 *     0.6762 *  0.0000     2          
   217  O     c      0.0000      10.5933 *     5.1840 *  0.0000     1          
   218  Na    c      9.0156 *     1.5777 *     7.4378 *  0.0000     2          
   219  Na    c      9.0156 *    -7.4378 *    -1.5777 *  0.0000     2          
   220  Na    c      0.0000       8.3394 *    -8.3394 *  0.0000     1          
   221  Na    c      4.5078 *    10.5933 *     2.9301 *  0.0000     2          
   222  Na    c     -4.5078 *    -2.9301 *   -10.5933 *  0.0000     2          
   223  Na    c     -4.5078 *    -5.1840 *     9.6917 *  0.0000     2          
   224  Na    c     -4.5078 *    -9.6917 *     5.1840 *  0.0000     2          
   225  Cl    c      6.7617 *    -9.6917 *    -1.5777 *  0.0000     2          
   226  Na    c      6.7617 *     1.5777 *     9.6917 *  0.0000     2          
   227  O     c      0.0000     -11.9456 *     0.6762 *  0.0000     1          
   228  O     s      0.0000       1.5777 *     0.6762 *  0.0000     1          
   229  Cl    s      2.2539 *    -0.6762 *    -1.5777 *  0.0000     2          
   230  O     s      0.0000      -2.9301 *     0.6762 *  0.0000     1          
   231  Cl    s      2.2539 *    -0.6762 *     2.9301 *  0.0000     2          
   232  O     s      0.0000       1.5777 *    -3.8316 *  0.0000     1          
   233  Cl    s      2.2539 *     3.8316 *    -1.5777 *  0.0000     2          
   234  O     s     -4.5078 *     1.5777 *     0.6762 *  0.0000     2          
   235  O     s      0.0000      -2.9301 *    -3.8316 *  0.0000     1          
   236  Cl    s      2.2539 *     3.8316 *     2.9301 *  0.0000     2          
   237  O     s      0.0000       1.5777 *     5.1840 *  0.0000     1          
   238  O     s     -4.5078 *    -2.9301 *     0.6762 *  0.0000     2          
   239  Cl    s      2.2539 *    -5.1840 *    -1.5777 *  0.0000     2          
   240  O     s      0.0000      -2.9301 *     5.1840 *  0.0000     1          
   241  O     s      0.0000       6.0855 *     0.6762 *  0.0000     1          
   242  O     s     -4.5078 *     1.5777 *    -3.8316 *  0.0000     2          
   243  Cl    s      2.2539 *    -5.1840 *     2.9301 *  0.0000     2          
   244  Cl    s      2.2539 *    -0.6762 *    -6.0855 *  0.0000     2          
   245  O     s     -4.5078 *    -2.9301 *    -3.8316 *  0.0000     2          
   246  Cl    s      6.7617 *    -0.6762 *    -1.5777 *  0.0000     2          
   247  O     s     -4.5078 *     1.5777 *     5.1840 *  0.0000     2          
   248  O     s      0.0000       6.0855 *    -3.8316 *  0.0000     1          
   249  Cl    s      6.7617 *    -0.6762 *     2.9301 *  0.0000     2          
   250  O     s      0.0000      -7.4378 *     0.6762 *  0.0000     1          
   251  O     s     -4.5078 *    -2.9301 *     5.1840 *  0.0000     2          
   252  Cl    s      2.2539 *     3.8316 *    -6.0855 *  0.0000     2          
   253  O     s     -4.5078 *     6.0855 *     0.6762 *  0.0000     2          
   254  Cl    s      2.2539 *    -0.6762 *     7.4378 *  0.0000     2          
   255  Cl    s      6.7617 *     3.8316 *    -1.5777 *  0.0000     2          
   256  O     s      0.0000       6.0855 *     5.1840 *  0.0000     1          
   257  Cl    s      2.2539 *    -5.1840 *    -6.0855 *  0.0000     2          
   258  Cl    s      6.7617 *     3.8316 *     2.9301 *  0.0000     2          
   259  O     s      0.0000      -7.4378 *    -3.8316 *  0.0000     1          
   260  O     s      0.0000       1.5777 *    -8.3394 *  0.0000     1          
   261  O     s     -4.5078 *     6.0855 *    -3.8316 *  0.0000     2          
   262  Cl    s      2.2539 *     3.8316 *     7.4378 *  0.0000     2          
   263  Cl    s      6.7617 *    -5.1840 *    -1.5777 *  0.0000     2          
   264  O     s      4.5078 *    -7.4378 *     0.6762 *  0.0000     2          
   265  Cl    s      2.2539 *     8.3394 *    -1.5777 *  0.0000     2          
   266  O     s      0.0000      -2.9301 *    -8.3394 *  0.0000     1          
   267  Cl    s      6.7617 *    -5.1840 *     2.9301 *  0.0000     2          
   268  O     s      0.0000      -7.4378 *     5.1840 *  0.0000     1          
   269  Cl    s      2.2539 *     8.3394 *     2.9301 *  0.0000     2          
   270  Cl    s      6.7617 *    -0.6762 *    -6.0855 *  0.0000     2          
   271  O     s     -4.5078 *     6.0855 *     5.1840 *  0.0000     2          
   272  O     s      9.0156 *     1.5777 *     0.6762 *  0.0000     2          
   273  Cl    s      2.2539 *    -5.1840 *     7.4378 *  0.0000     2          
   274  O     s      4.5078 *    -7.4378 *    -3.8316 *  0.0000     2          
   275  O     s      9.0156 *    -2.9301 *     0.6762 *  0.0000     2          
   276  O     s      4.5078 *     1.5777 *    -8.3394 *  0.0000     2          
   277  O     s      0.0000       1.5777 *     9.6917 *  0.0000     1          
   278  Cl    s      6.7617 *     3.8316 *    -6.0855 *  0.0000     2          
   279  O     s      4.5078 *    -2.9301 *    -8.3394 *  0.0000     2          
   280  O     s      9.0156 *     1.5777 *    -3.8316 *  0.0000     2          
   281  Cl    s      2.2539 *    -9.6917 *    -1.5777 *  0.0000     2          
   282  Cl    s      6.7617 *    -0.6762 *     7.4378 *  0.0000     2          
   283  O     s      0.0000      -2.9301 *     9.6917 *  0.0000     1          
   284  O     s      4.5078 *    -7.4378 *     5.1840 *  0.0000     2          
   285  O     s      9.0156 *    -2.9301 *    -3.8316 *  0.0000     2          
   286  O     s      0.0000       6.0855 *    -8.3394 *  0.0000     1          
   287  Cl    s      2.2539 *    -9.6917 *     2.9301 *  0.0000     2          
   288  Cl    s      6.7617 *    -5.1840 *    -6.0855 *  0.0000     2          
   289  O     s      9.0156 *     1.5777 *     5.1840 *  0.0000     2          
   290  Cl    s      2.2539 *     8.3394 *    -6.0855 *  0.0000     2          
   291  O     s      0.0000      10.5933 *     0.6762 *  0.0000     1          
   292  Cl    s      6.7617 *     3.8316 *     7.4378 *  0.0000     2          
   293  O     s      4.5078 *     1.5777 *     9.6917 *  0.0000     2          
   294  O     s      9.0156 *    -2.9301 *     5.1840 *  0.0000     2          
   295  Cl    s      2.2539 *    -0.6762 *   -10.5933 *  0.0000     2          
   296  Cl    s      6.7617 *     8.3394 *    -1.5777 *  0.0000     2          
   297  O     s      9.0156 *     6.0855 *     0.6762 *  0.0000     2          
   298  O     s      4.5078 *    -2.9301 *     9.6917 *  0.0000     2          
   299  Cl    s      6.7617 *     8.3394 *     2.9301 *  0.0000     2          
   300  O     s      0.0000      -7.4378 *    -8.3394 *  0.0000     1          
   301  O     s      0.0000      10.5933 *    -3.8316 *  0.0000     1          
   302  O     s     -4.5078 *     6.0855 *    -8.3394 *  0.0000     2          
   303  Cl    s      6.7617 *    -5.1840 *     7.4378 *  0.0000     2          
   304  Cl    s     11.2695 *    -0.6762 *    -1.5777 *  0.0000     2          
   305  Cl    s      2.2539 *     8.3394 *     7.4378 *  0.0000     2          
   306  O     s      0.0000       6.0855 *     9.6917 *  0.0000     1          
   307  Cl    s      2.2539 *     3.8316 *   -10.5933 *  0.0000     2          
   308  O     s      4.5078 *    10.5933 *     0.6762 *  0.0000     2          
   309  O     s      9.0156 *     6.0855 *    -3.8316 *  0.0000     2          
   310  Cl    s      2.2539 *    -9.6917 *    -6.0855 *  0.0000     2          
   311  Cl    s     11.2695 *    -0.6762 *     2.9301 *  0.0000     2          
   312  O     s      9.0156 *    -7.4378 *     0.6762 *  0.0000     2          
   313  O     s      0.0000      10.5933 *     5.1840 *  0.0000     1          
   314  Cl    s      6.7617 *    -9.6917 *    -1.5777 *  0.0000     2          
   315  O     s      0.0000     -11.9456 *     0.6762 *  0.0000     1          
--------------------------------------------------------------------------------

  Components of defect energy : 

--------------------------------------------------------------------------------
  Region 1 - region 1                   =     -0.16440814 eV
  Region 1 - region 2a (unrelaxed)      =      9.64241855 eV
  Region 1 - 2a (relaxed - correction)  =     -0.29557492 eV
  Region 1 (Total)                      =      9.18243549 eV
  Region 2a                             =      0.14770506 eV
  Region 2b                             =     -0.42982380 eV
--------------------------------------------------------------------------------
  Total defect energy                   =      8.90031675 eV
--------------------------------------------------------------------------------

  Largest displacement in region 2 =   0.0210 Angstroms


  Number of variables =      856

  Maximum number of calculations  =        1000
  Maximum Hessian update interval =          10
  Maximum step size               =   1.0000000
  Maximum parameter tolerance     =   0.0000100
  Maximum function  tolerance     =   0.0000100
  Maximum gradient  tolerance     =   0.0010000

  Symmetry adapted optimisation

  Symmetry to be used for second derivatives

  Newton-Raphson optimiser to be used

  BFGS hessian update to be used

  Lower half triangular hessian to be used

  Start of defect optimisation :

  Cycle:      0 Defect Energy:   8.900317  Gnorm:     0.020533  CPU:    2.377
  ** Hessian calculated **
  Cycle:      1 Defect Energy:   7.343154  Gnorm:     0.009862  CPU:    6.396
  Cycle:      2 Defect Energy:   6.859594  Gnorm:     0.009003  CPU:   10.012
  Cycle:      3 Defect Energy:   6.699965  Gnorm:     0.007439  CPU:   12.926
  Cycle:      4 Defect Energy:   6.452749  Gnorm:     0.007827  CPU:   17.219
  Cycle:      5 Defect Energy:   6.231700  Gnorm:     0.005811  CPU:   20.823
  Cycle:      6 Defect Energy:   5.985104  Gnorm:     0.007183  CPU:   24.421
  Cycle:      7 Defect Energy:   5.718701  Gnorm:     0.006848  CPU:   28.042
  Cycle:      8 Defect Energy:   5.518728  Gnorm:     0.004036  CPU:   30.968
  Cycle:      9 Defect Energy:   5.458951  Gnorm:     0.003340  CPU:   31.794
  Cycle:     10 Defect Energy:   5.390099  Gnorm:     0.003022  CPU:   32.620
  ** Hessian calculated **
  Cycle:     11 Defect Energy:   5.371975  Gnorm:     0.002828  CPU:   34.761
  Cycle:     12 Defect Energy:   5.348933  Gnorm:     0.002755  CPU:   35.584
  Cycle:     13 Defect Energy:   5.318181  Gnorm:     0.002682  CPU:   36.424
  Cycle:     14 Defect Energy:   5.279700  Gnorm:     0.002594  CPU:   37.240
  Cycle:     15 Defect Energy:   5.244262  Gnorm:     0.002467  CPU:   38.072
  Cycle:     16 Defect Energy:   5.218317  Gnorm:     0.002353  CPU:   38.906
  Cycle:     17 Defect Energy:   5.196431  Gnorm:     0.002243  CPU:   39.740
  Cycle:     18 Defect Energy:   5.173546  Gnorm:     0.002157  CPU:   40.558
  Cycle:     19 Defect Energy:   5.148456  Gnorm:     0.001997  CPU:   41.426
  Cycle:     20 Defect Energy:   5.122603  Gnorm:     0.001884  CPU:   42.256
  ** Hessian calculated **
  Cycle:     21 Defect Energy:   5.075397  Gnorm:     0.001713  CPU:   44.417
  Cycle:     22 Defect Energy:   5.024913  Gnorm:     0.001494  CPU:   45.267
  Cycle:     23 Defect Energy:   5.011354  Gnorm:     0.001384  CPU:   46.113
  ** Hessian calculated **
  Cycle:     24 Defect Energy:   5.006685  Gnorm:     0.001301  CPU:   48.241
  Cycle:     25 Defect Energy:   5.001183  Gnorm:     0.001271  CPU:   49.095
  Cycle:     26 Defect Energy:   4.993900  Gnorm:     0.001246  CPU:   49.938
  Cycle:     27 Defect Energy:   4.984660  Gnorm:     0.001234  CPU:   50.775
  Cycle:     28 Defect Energy:   4.973335  Gnorm:     0.001212  CPU:   51.616
  Cycle:     29 Defect Energy:   4.965199  Gnorm:     0.001206  CPU:   52.463
  Cycle:     30 Defect Energy:   4.958306  Gnorm:     0.001200  CPU:   53.307
  Cycle:     31 Defect Energy:   4.950862  Gnorm:     0.001189  CPU:   54.121
  Cycle:     32 Defect Energy:   4.942238  Gnorm:     0.001180  CPU:   54.940
  Cycle:     33 Defect Energy:   4.931102  Gnorm:     0.001164  CPU:   55.758
  ** Hessian calculated **
  Cycle:     34 Defect Energy:   4.916191  Gnorm:     0.001086  CPU:   57.868
  Cycle:     35 Defect Energy:   4.895692  Gnorm:     0.000977  CPU:   58.715
  Cycle:     36 Defect Energy:   4.866320  Gnorm:     0.000760  CPU:   59.544
  Cycle:     37 Defect Energy:   4.851405  Gnorm:     0.000843  CPU:   60.369
  Cycle:     38 Defect Energy:   4.860836  Gnorm:     0.001175  CPU:   61.213
  ** Hessian calculated **
  Cycle:     39 Defect Energy:   4.851031  Gnorm:     0.000659  CPU:   63.349
  Cycle:     40 Defect Energy:   4.842958  Gnorm:     0.000519  CPU:   64.169
  Cycle:     41 Defect Energy:   4.835755  Gnorm:     0.000474  CPU:   65.020
  Cycle:     42 Defect Energy:   4.829655  Gnorm:     0.000445  CPU:   65.846
  Cycle:     43 Defect Energy:   4.825737  Gnorm:     0.000437  CPU:   66.662
  Cycle:     44 Defect Energy:   4.822791  Gnorm:     0.000440  CPU:   67.481
  Cycle:     45 Defect Energy:   4.820637  Gnorm:     0.000449  CPU:   68.307
  Cycle:     46 Defect Energy:   4.818870  Gnorm:     0.000438  CPU:   69.145
  Cycle:     47 Defect Energy:   4.817499  Gnorm:     0.000442  CPU:   69.972
  Cycle:     48 Defect Energy:   4.816173  Gnorm:     0.000447  CPU:   70.806
  ** Hessian calculated **
  Cycle:     49 Defect Energy:   4.815861  Gnorm:     0.000437  CPU:   72.922
  Cycle:     50 Defect Energy:   4.815415  Gnorm:     0.000433  CPU:   73.756
  Cycle:     51 Defect Energy:   4.814792  Gnorm:     0.000428  CPU:   74.581
  Cycle:     52 Defect Energy:   4.813914  Gnorm:     0.000423  CPU:   75.412
  Cycle:     53 Defect Energy:   4.812713  Gnorm:     0.000416  CPU:   76.239
  Cycle:     54 Defect Energy:   4.811108  Gnorm:     0.000414  CPU:   77.082
  Cycle:     55 Defect Energy:   4.809238  Gnorm:     0.000417  CPU:   77.935
  Cycle:     56 Defect Energy:   4.807587  Gnorm:     0.000419  CPU:   78.756
  Cycle:     57 Defect Energy:   4.806303  Gnorm:     0.000429  CPU:   79.590
  Cycle:     58 Defect Energy:   4.804888  Gnorm:     0.000430  CPU:   80.410
  ** Hessian calculated **
  Cycle:     59 Defect Energy:   4.803444  Gnorm:     0.000408  CPU:   82.135
  Cycle:     60 Defect Energy:   4.801772  Gnorm:     0.000379  CPU:   82.852
  Cycle:     61 Defect Energy:   4.800833  Gnorm:     0.000346  CPU:   83.686
  ** Hessian calculated **
  Cycle:     62 Defect Energy:   4.796401  Gnorm:     0.000343  CPU:   85.850
  Cycle:     63 Defect Energy:   4.789255  Gnorm:     0.000354  CPU:   86.677
  Cycle:     64 Defect Energy:   4.778479  Gnorm:     0.000320  CPU:   87.520
  Cycle:     65 Defect Energy:   4.774339  Gnorm:     0.000176  CPU:   88.335
  Cycle:     66 Defect Energy:   4.772151  Gnorm:     0.000195  CPU:   88.954
  Cycle:     67 Defect Energy:   4.769905  Gnorm:     0.000176  CPU:   89.584
  Cycle:     68 Defect Energy:   4.767953  Gnorm:     0.000199  CPU:   90.388
  Cycle:     69 Defect Energy:   4.766456  Gnorm:     0.000162  CPU:   91.196
  Cycle:     70 Defect Energy:   4.765464  Gnorm:     0.000125  CPU:   92.011
  Cycle:     71 Defect Energy:   4.764815  Gnorm:     0.000100  CPU:   92.827
  ** Hessian calculated **
  Cycle:     72 Defect Energy:   4.764380  Gnorm:     0.000070  CPU:   94.971
  Cycle:     73 Defect Energy:   4.764179  Gnorm:     0.000050  CPU:   95.779
  Cycle:     74 Defect Energy:   4.764090  Gnorm:     0.000035  CPU:   96.609
  Cycle:     75 Defect Energy:   4.764053  Gnorm:     0.000024  CPU:   97.440
  Cycle:     76 Defect Energy:   4.764040  Gnorm:     0.000017  CPU:   98.282


  **** Optimisation achieved ****


  Final defect energy  =        4.76403730
  Final defect Gnorm   =        0.00001203

  Components of defect energy : 

--------------------------------------------------------------------------------
  Region 1 - region 1                   =     -3.03472726 eV
  Region 1 - region 2a (unrelaxed)      =      8.34079566 eV
  Region 1 - 2a (relaxed - correction)  =     -0.22324613 eV
  Region 1 (Total)                      =      5.08282228 eV
  Region 2a                             =      0.11148940 eV
  Region 2b                             =     -0.43027438 eV
--------------------------------------------------------------------------------
  Total defect energy                   =      4.76403730 eV
--------------------------------------------------------------------------------

  Largest displacement in region 2 =   0.0210 Angstroms

  Final coordinates of region 1 :

--------------------------------------------------------------------------------
   No.  Atomic        x           y           z          Radius      Charge
        Label       (Angs)      (Angs)      (Angs)       (Angs)       (e) 
--------------------------------------------------------------------------------
     1  Na    c     2.253894    1.577726    0.676168    0.000000    1.000000
     2  O     c     2.253894    2.415906    2.619437    0.000000    0.183000
     3  Cl    c     4.597793    0.001742   -0.030220    0.000000    1.485000
     4  Cl    c    -0.090005    0.001742   -0.030220    0.000000    1.485000
     5  Na    c     4.487030    2.204902    2.646911    0.000000    1.000000
     6  Na    c     0.020758    2.204902    2.646911    0.000000    1.000000
     7  O     c     2.253894   -2.299335    2.286173    0.000000    0.183000
     8  Na    c     2.253894    1.570233    4.625626    0.000000    1.000000
     9  Na    c     2.253894   -1.948804    0.087911    0.000000    1.000000
    10  Na    c     4.421569   -1.791540    2.294426    0.000000    1.000000
    11  Na    c     0.086219   -1.791540    2.294426    0.000000    1.000000
    12  Cl    c     4.663479    0.000915    4.688898    0.000000    1.485000
    13  Cl    c    -0.155692    0.000915    4.688898    0.000000    1.485000
    14  Na    c     2.253894    4.590019    2.510329    0.000000    1.000000
    15  Na    c     2.253894    0.010469   -2.410497    0.000000    1.000000
    16  Na    c     2.253894   -1.922528    4.480580    0.000000    1.000000
    17  O     c     2.253894    2.240078   -2.118813    0.000000    0.183000
    18  Na    c    -2.503945    0.020938    2.175614    0.000000    1.000000
    19  Na    c     7.011732    0.020938    2.175614    0.000000    1.000000
    20  Cl    c     4.654822    4.603162   -0.003592    0.000000    1.485000
    21  Cl    c    -0.147035    4.603162   -0.003592    0.000000    1.485000
    22  Na    c     4.473098    2.296840   -2.048679    0.000000    1.000000
    23  Na    c     0.034689    2.296840   -2.048679    0.000000    1.000000
    24  O     c    -2.251492    2.262765    2.316311    0.000000    0.183000
    25  O     c     6.759279    2.262765    2.316311    0.000000    0.183000
    26  O     c     2.253894   -2.264901   -2.196681    0.000000    0.183000
    27  Na    c    -2.100781    2.212965    0.061422    0.000000    1.000000
    28  Na    c     6.608569    2.212965    0.061422    0.000000    1.000000
    29  Na    c     2.253894   -0.009615    7.314857    0.000000    1.000000
    30  Na    c     2.253894   -4.502750    2.255675    0.000000    1.000000
    31  Cl    c     4.635654    4.670265    4.555963    0.000000    1.485000
    32  Cl    c    -0.127867    4.670265    4.555963    0.000000    1.485000
    33  Na    c     4.504011   -2.340587   -2.260187    0.000000    1.000000
    34  Na    c     0.003777   -2.340587   -2.260187    0.000000    1.000000
    35  O     c     2.253894    2.213055    6.813009    0.000000    0.183000
    36  O     c    -2.203936   -2.214359    2.270737    0.000000    0.183000
    37  O     c     6.711723   -2.214359    2.270737    0.000000    0.183000
    38  Na    c     2.253894    4.426164   -1.611878    0.000000    1.000000
    39  Na    c    -2.432364    2.063055    4.555414    0.000000    1.000000
    40  Na    c     6.940151    2.063055    4.555414    0.000000    1.000000
    41  Na    c    -2.132450   -2.220743    0.013757    0.000000    1.000000
    42  Na    c     6.640238   -2.220743    0.013757    0.000000    1.000000
    43  Na    c     4.519005    2.175174    6.743274    0.000000    1.000000
    44  Na    c    -0.011218    2.175174    6.743274    0.000000    1.000000
    45  Cl    c     4.601657   -4.581967   -0.099679    0.000000    1.485000
    46  Cl    c    -0.093870   -4.581967   -0.099679    0.000000    1.485000
    47  O     c     2.253894   -2.218611    6.773628    0.000000    0.183000
    48  Na    c    -2.071946    4.523993    2.320016    0.000000    1.000000
    49  Na    c     6.579733    4.523993    2.320016    0.000000    1.000000
    50  Na    c    -2.088679    0.003684   -2.348980    0.000000    1.000000
    51  Na    c     6.596466    0.003684   -2.348980    0.000000    1.000000
    52  Na    c    -2.241053   -2.085204    4.521115    0.000000    1.000000
    53  Na    c     6.748841   -2.085204    4.521115    0.000000    1.000000
    54  O     c     2.253894    6.841978    2.296950    0.000000    0.183000
    55  O     c    -2.235480    2.259706   -2.204960    0.000000    0.183000
    56  O     c     6.743267    2.259706   -2.204960    0.000000    0.183000
    57  Na    c     2.253894    2.589762   -4.386476    0.000000    1.000000
    58  Na    c     2.253894    6.927748    0.038350    0.000000    1.000000
    59  Na    c     4.510804   -2.162510    6.737832    0.000000    1.000000
    60  Na    c    -0.003017   -2.162510    6.737832    0.000000    1.000000
    61  Cl    c     4.554162   -4.636260    4.604582    0.000000    1.485000
    62  Cl    c    -0.046375   -4.636260    4.604582    0.000000    1.485000
    63  Na    c     2.253894    4.449188    6.275955    0.000000    1.000000
    64  Na    c     2.253894   -4.498894   -1.837701    0.000000    1.000000
    65  Cl    c     4.531151   -0.036032   -4.513657    0.000000    1.485000
    66  Cl    c    -0.023363   -0.036032   -4.513657    0.000000    1.485000
    67  Na    c     4.511555    6.833256    2.365533    0.000000    1.000000
    68  Na    c    -0.003768    6.833256    2.365533    0.000000    1.000000
    69  O     c    -2.255858   -2.255734   -2.246467    0.000000    0.183000
    70  O     c     6.763646   -2.255734   -2.246467    0.000000    0.183000
    71  Na    c     2.253894   -2.560586   -4.455803    0.000000    1.000000
    72  Na    c     2.253894    7.095268    4.531994    0.000000    1.000000
    73  Na    c    -2.333088    0.002232    6.963238    0.000000    1.000000
    74  Na    c     6.840875    0.002232    6.963238    0.000000    1.000000
    75  Na    c    -1.889502   -4.463928    2.311286    0.000000    1.000000
    76  Na    c     6.397289   -4.463928    2.311286    0.000000    1.000000
    77  Cl    c     8.976919    0.012198   -0.013135    0.000000    1.485000
    78  Cl    c    -4.469132    0.012198   -0.013135    0.000000    1.485000
    79  Na    c     9.005189    2.521553    2.183418    0.000000    1.000000
    80  Na    c    -4.497402    2.521553    2.183418    0.000000    1.000000
    81  O     c    -2.275420    2.270913    6.796145    0.000000    0.183000
    82  O     c     6.783207    2.270913    6.796145    0.000000    0.183000
    83  Na    c    -2.393135    4.505258   -2.070007    0.000000    1.000000
    84  Na    c     6.900922    4.505258   -2.070007    0.000000    1.000000
    85  O     c     2.253894    6.668315   -2.210039    0.000000    0.183000
    86  Na    c     2.253894   -4.476564    6.461865    0.000000    1.000000
    87  Cl    c     9.018598   -0.010038    4.535613    0.000000    1.485000
    88  Cl    c    -4.510811   -0.010038    4.535613    0.000000    1.485000
    89  Na    c     8.970537   -2.510006    2.244688    0.000000    1.000000
    90  Na    c    -4.462750   -2.510006    2.244688    0.000000    1.000000
    91  O     c     2.253894   -6.798177    2.253852    0.000000    0.183000
    92  O     c    -2.262673   -2.261167    6.778534    0.000000    0.183000
    93  O     c     6.770461   -2.261167    6.778534    0.000000    0.183000
    94  Cl    c     4.547964    4.526931   -4.571490    0.000000    1.485000
    95  Cl    c    -0.040177    4.526931   -4.571490    0.000000    1.485000
    96  Na    c     4.507864    6.571896   -2.330301    0.000000    1.000000
    97  Na    c    -0.000077    6.571896   -2.330301    0.000000    1.000000
    98  O     c    -2.263836    6.783344    2.254900    0.000000    0.183000
    99  O     c     6.771623    6.783344    2.254900    0.000000    0.183000
   100  Na    c     2.253894    2.646794    9.021339    0.000000    1.000000
   101  Na    c     2.253894   -6.957732    0.004092    0.000000    1.000000
   102  Na    c    -2.231944    2.447202   -4.457569    0.000000    1.000000
   103  Na    c     6.739731    2.447202   -4.457569    0.000000    1.000000
   104  Na    c    -2.070413    6.803662    0.003730    0.000000    1.000000
   105  Na    c     6.578200    6.803662    0.003730    0.000000    1.000000
   106  Cl    c     4.555391   -0.001799    9.070024    0.000000    1.485000
   107  Cl    c    -0.047604   -0.001799    9.070024    0.000000    1.485000
   108  Na    c     4.495951   -6.883021    2.306994    0.000000    1.000000
   109  Na    c     0.011837   -6.883021    2.306994    0.000000    1.000000
   110  Na    c     6.700774    4.512174    6.552781    0.000000    1.000000
   111  Na    c    -2.192986    4.512174    6.552781    0.000000    1.000000
   112  Na    c    -2.389705   -4.505879   -2.132943    0.000000    1.000000
   113  Na    c     6.897493   -4.505879   -2.132943    0.000000    1.000000
   114  Cl    c     9.066509    4.524379   -0.001224    0.000000    1.485000
   115  Cl    c    -4.558722    4.524379   -0.001224    0.000000    1.485000
   116  Na    c     8.998292    2.074343   -2.145569    0.000000    1.000000
   117  Na    c    -4.490505    2.074343   -2.145569    0.000000    1.000000
   118  O     c     2.253894    6.724919    6.745846    0.000000    0.183000
   119  Na    c     2.253894   -2.611379    9.010916    0.000000    1.000000
   120  Na    c     2.253894   -6.819924    4.503781    0.000000    1.000000
   121  Na    c    -2.371442    6.843186    4.506325    0.000000    1.000000
   122  Na    c     6.879229    6.843186    4.506325    0.000000    1.000000
   123  Na    c    -2.302248   -2.410708   -4.491076    0.000000    1.000000
   124  Na    c     6.810035   -2.410708   -4.491076    0.000000    1.000000
   125  Na    c     4.514667    6.719768    6.696868    0.000000    1.000000
   126  Na    c    -0.006880    6.719768    6.696868    0.000000    1.000000
   127  Cl    c     4.524515   -4.514104   -4.541908    0.000000    1.485000
   128  Cl    c    -0.016728   -4.514104   -4.541908    0.000000    1.485000
   129  Cl    c     9.062396    4.516162    4.543033    0.000000    1.485000
   130  Cl    c    -4.554609    4.516162    4.543033    0.000000    1.485000
   131  Na    c     9.009175   -2.070848   -2.169857    0.000000    1.000000
   132  Na    c    -4.501387   -2.070848   -2.169857    0.000000    1.000000
   133  O     c     2.253894   -6.733181   -2.247825    0.000000    0.183000
   134  Na    c     2.253894    0.000406   -6.378139    0.000000    1.000000
   135  Na    c     2.253894    9.071220    2.176855    0.000000    1.000000
   136  O     c     2.253894    2.242617   -6.684863    0.000000    0.183000
   137  O     c    -2.258462    6.757335   -2.250005    0.000000    0.183000
   138  O     c     6.766249    6.757335   -2.250005    0.000000    0.183000
   139  Na    c    -2.167980   -4.508823    6.616771    0.000000    1.000000
   140  Na    c     6.675767   -4.508823    6.616771    0.000000    1.000000
   141  Na    c     2.253894    6.419571   -4.474921    0.000000    1.000000
   142  Cl    c     4.542853    4.533263    9.106653    0.000000    1.485000
   143  Cl    c    -0.035065    4.533263    9.106653    0.000000    1.485000
   144  Na    c     4.516699   -6.639728   -2.302289    0.000000    1.000000
   145  Na    c    -0.008911   -6.639728   -2.302289    0.000000    1.000000
   146  Na    c     9.029264    2.375240    6.871245    0.000000    1.000000
   147  Na    c    -4.521477    2.375240    6.871245    0.000000    1.000000
   148  Cl    c     9.067954   -4.514753   -0.022113    0.000000    1.485000
   149  Cl    c    -4.560166   -4.514753   -0.022113    0.000000    1.485000
   150  O     c     6.743956   -6.733572    2.255842    0.000000    0.183000
   151  O     c    -2.236168   -6.733572    2.255842    0.000000    0.183000
   152  Cl    c     4.496781    9.048100    0.053828    0.000000    1.485000
   153  Cl    c     0.011006    9.048100    0.053828    0.000000    1.485000
   154  Na    c     4.502525    2.183272   -6.655950    0.000000    1.000000
   155  Na    c     0.005262    2.183272   -6.655950    0.000000    1.000000
   156  O     c     2.253894   -2.241180   -6.716737    0.000000    0.183000
   157  Na    c     6.710498    2.446211    9.031594    0.000000    1.000000
   158  Na    c    -2.202711    2.446211    9.031594    0.000000    1.000000
   159  Na    c     6.649655   -6.736584    0.006684    0.000000    1.000000
   160  Na    c    -2.141868   -6.736584    0.006684    0.000000    1.000000
   161  Na    c     9.016586   -2.348337    6.742133    0.000000    1.000000
   162  Na    c    -4.508799   -2.348337    6.742133    0.000000    1.000000
   163  Cl    c     9.089152   -4.504655    4.535875    0.000000    1.485000
   164  Cl    c    -4.581365   -4.504655    4.535875    0.000000    1.485000
   165  O     c     2.253894   -6.740287    6.752530    0.000000    0.183000
   166  Na    c    11.047232    0.004783    1.966077    0.000000    1.000000
   167  Na    c    -6.539445    0.004783    1.966077    0.000000    1.000000
   168  Cl    c     4.499479    9.040596    4.521653    0.000000    1.485000
   169  Cl    c     0.008309    9.040596    4.521653    0.000000    1.485000
   170  Cl    c     9.047448   -0.007505   -4.507640    0.000000    1.485000
   171  Cl    c    -4.539660   -0.007505   -4.507640    0.000000    1.485000
   172  Na    c     4.508655   -2.178900   -6.683961    0.000000    1.000000
   173  Na    c    -0.000867   -2.178900   -6.683961    0.000000    1.000000
   174  Na    c     9.017301    6.660238    2.076531    0.000000    1.000000
   175  Na    c    -4.509514    6.660238    2.076531    0.000000    1.000000
   176  O     c    -2.271531    6.760417    6.768760    0.000000    0.183000
   177  O     c     6.779318    6.760417    6.768760    0.000000    0.183000
   178  Na    c    -2.245578   -2.420840    9.020242    0.000000    1.000000
   179  Na    c     6.753365   -2.420840    9.020242    0.000000    1.000000
   180  Na    c     2.253894    4.480383   -6.959030    0.000000    1.000000
   181  Na    c     2.253894    8.952363   -2.395501    0.000000    1.000000
   182  O     c    11.249252    2.259065    2.255621    0.000000    0.183000
   183  O     c    -6.741465    2.259065    2.255621    0.000000    0.183000
   184  Na    c     6.809834   -6.794756    4.502193    0.000000    1.000000
   185  Na    c    -2.302047   -6.794756    4.502193    0.000000    1.000000
   186  Na    c    11.313519    2.571544    0.014375    0.000000    1.000000
   187  Na    c    -6.805732    2.571544    0.014375    0.000000    1.000000
   188  Cl    c     4.526566   -4.506331    9.089102    0.000000    1.485000
   189  Cl    c    -0.018779   -4.506331    9.089102    0.000000    1.485000
   190  Na    c     4.508146   -6.749369    6.729300    0.000000    1.000000
   191  Na    c    -0.000359   -6.749369    6.729300    0.000000    1.000000
   192  O     c     6.777252   -6.760687   -2.250867    0.000000    0.183000
   193  O     c    -2.269465   -6.760687   -2.250867    0.000000    0.183000
   194  Na    c    -2.348724    0.003228   -6.548570    0.000000    1.000000
   195  Na    c     6.856512    0.003228   -6.548570    0.000000    1.000000
   196  Na    c    -2.314093    9.025057    2.210866    0.000000    1.000000
   197  Na    c     6.821880    9.025057    2.210866    0.000000    1.000000
   198  O     c    11.239621   -2.246209    2.246477    0.000000    0.183000
   199  O     c    -6.731834   -2.246209    2.246477    0.000000    0.183000
   200  O     c     6.755252    2.254839   -6.728564    0.000000    0.183000
   201  O     c    -2.247465    2.254839   -6.728564    0.000000    0.183000
   202  Na    c     2.253894    6.502757    8.992789    0.000000    1.000000
   203  Na    c     2.253894   -6.527495   -4.500480    0.000000    1.000000
   204  Na    c    11.197249    1.981107    4.506878    0.000000    1.000000
   205  Na    c    -6.689462    1.981107    4.506878    0.000000    1.000000
   206  Na    c    11.274112   -2.544024    0.008831    0.000000    1.000000
   207  Na    c    -6.766325   -2.544024    0.008831    0.000000    1.000000
   208  Na    c     2.253894    0.000710   11.116628    0.000000    1.000000
   209  Na    c     2.253894   -9.052487    2.292005    0.000000    1.000000
   210  Na    c     6.852923    6.643504   -4.504380    0.000000    1.000000
   211  Na    c    -2.345136    6.643504   -4.504380    0.000000    1.000000
   212  O     c     2.253894    2.271325   11.264468    0.000000    0.183000
   213  Na    c     2.253894    8.992271    6.974470    0.000000    1.000000
   214  Na    c     2.253894   -4.485773   -6.957295    0.000000    1.000000
   215  Na    c    11.362670    0.003689   -2.013126    0.000000    1.000000
   216  Na    c    -6.854882    0.003689   -2.013126    0.000000    1.000000
   217  Na    c    11.385105    4.503101    2.545550    0.000000    1.000000
   218  Na    c    -6.877318    4.503101    2.545550    0.000000    1.000000
   219  Cl    c     9.039030    4.519008   -4.526061    0.000000    1.485000
   220  Cl    c    -4.531243    4.519008   -4.526061    0.000000    1.485000
   221  Na    c     9.013503    6.878361   -2.146022    0.000000    1.000000
   222  Na    c    -4.505715    6.878361   -2.146022    0.000000    1.000000
   223  O     c     6.764613   -2.251755   -6.746463    0.000000    0.183000
   224  O     c    -2.256826   -2.251755   -6.746463    0.000000    0.183000
   225  O     c    11.263758    2.248991   -2.223923    0.000000    0.183000
   226  O     c    -6.755971    2.248991   -2.223923    0.000000    0.183000
   227  Na    c    11.230329   -2.014550    4.501762    0.000000    1.000000
   228  Na    c    -6.722542   -2.014550    4.501762    0.000000    1.000000
   229  Cl    c     4.509793   -9.031833    0.042983    0.000000    1.485000
   230  Cl    c    -0.002005   -9.031833    0.042983    0.000000    1.485000
   231  Na    c     4.504674    2.170328   11.261397    0.000000    1.000000
   232  Na    c     0.003113    2.170328   11.261397    0.000000    1.000000
[...]
    235 y         -2.253894     -2.264953    -0.011060    Cartesian    0.49
    235 z         -2.253894     -2.196708     0.057186    Cartesian   -2.54
    236 x          4.507787      4.645864     0.138076    Cartesian    3.06
    236 y          4.507787      4.681649     0.173862    Cartesian    3.86
    236 z          4.507787      4.564801     0.057014    Cartesian    1.26
    237 x          2.253894      2.253894     0.000000    Cartesian    0.00
    237 y          2.253894      2.212992    -0.040902    Cartesian   -1.81
    237 z          6.761681      6.813031     0.051350    Cartesian    0.76
    238 x         -2.253894     -2.203989     0.049905    Cartesian   -2.21
    238 y         -2.253894     -2.214311     0.039583    Cartesian   -1.76
    238 z          2.253894      2.270730     0.016837    Cartesian    0.75
    239 x          4.507787      4.611772     0.103985    Cartesian    2.31
    239 y         -4.507787     -4.590958    -0.083170    Cartesian    1.85
    239 z          0.000000     -0.115398    -0.115398    Cartesian *******
    240 x          2.253894      2.253894     0.000000    Cartesian    0.00
    240 y         -2.253894     -2.218615     0.035279    Cartesian   -1.57
    240 z          6.761681      6.773698     0.012017    Cartesian    0.18
    241 x          2.253894      2.253894     0.000000    Cartesian    0.00
    241 y          6.761681      6.842074     0.080394    Cartesian    1.19
    241 z          2.253894      2.296999     0.043105    Cartesian    1.91
    242 x         -2.253894     -2.235475     0.018419    Cartesian   -0.82
    242 y          2.253894      2.259718     0.005824    Cartesian    0.26
    242 z         -2.253894     -2.204938     0.048956    Cartesian   -2.17
    243 x          4.507787      4.563942     0.056155    Cartesian    1.25
    243 y         -4.507787     -4.650623    -0.142836    Cartesian    3.17
    243 z          4.507787      4.618240     0.110453    Cartesian    2.45
    244 x          4.507787      4.530466     0.022679    Cartesian    0.50
    244 y          0.000000     -0.039204    -0.039204    Cartesian    0.00
    244 z         -4.507787     -4.522287    -0.014500    Cartesian    0.32
    245 x         -2.253894     -2.255848    -0.001955    Cartesian    0.09
    245 y         -2.253894     -2.255753    -0.001859    Cartesian    0.08
    245 z         -2.253894     -2.246471     0.007423    Cartesian   -0.33
    246 x          9.015574      8.980994    -0.034580    Cartesian   -0.38
    246 y          0.000000      0.013576     0.013576    Cartesian    0.00
    246 z          0.000000     -0.009821    -0.009821    Cartesian *******
    247 x         -2.253894     -2.275451    -0.021557    Cartesian    0.96
    247 y          2.253894      2.270935     0.017041    Cartesian    0.76
    247 z          6.761681      6.796151     0.034471    Cartesian    0.51
    248 x          2.253894      2.253894     0.000000    Cartesian    0.00
    248 y          6.761681      6.668328    -0.093353    Cartesian   -1.38
    248 z         -2.253894     -2.210009     0.043885    Cartesian   -1.95
    249 x          9.015574      9.018275     0.002701    Cartesian    0.03
    249 y          0.000000     -0.005756    -0.005756    Cartesian    0.00
    249 z          4.507787      4.535144     0.027357    Cartesian    0.61
    250 x          2.253894      2.253894     0.000000    Cartesian    0.00
    250 y         -6.761681     -6.798289    -0.036608    Cartesian    0.54
    250 z          2.253894      2.253886    -0.000008    Cartesian   -0.00
    251 x         -2.253894     -2.262680    -0.008786    Cartesian    0.39
    251 y         -2.253894     -2.261186    -0.007292    Cartesian    0.32
    251 z          6.761681      6.778545     0.016864    Cartesian    0.25
    252 x          4.507787      4.545539     0.037752    Cartesian    0.84
    252 y          4.507787      4.531400     0.023613    Cartesian    0.52
    252 z         -4.507787     -4.577102    -0.069315    Cartesian    1.54
    253 x         -2.253894     -2.263806    -0.009913    Cartesian    0.44
    253 y          6.761681      6.783380     0.021699    Cartesian    0.32
    253 z          2.253894      2.254898     0.001005    Cartesian    0.04
    254 x          4.507787      4.549693     0.041906    Cartesian    0.93
    254 y          0.000000     -0.001999    -0.001999    Cartesian    0.00
    254 z          9.015574      9.069122     0.053548    Cartesian    0.59
    255 x          9.015574      9.072985     0.057410    Cartesian    0.64
    255 y          4.507787      4.522374     0.014587    Cartesian    0.32
    255 z          0.000000      0.001698     0.001698    Cartesian *******
    256 x          2.253894      2.253894     0.000000    Cartesian    0.00
    256 y          6.761681      6.725001    -0.036680    Cartesian   -0.54
    256 z          6.761681      6.745788    -0.015892    Cartesian   -0.24
    257 x          4.507787      4.520240     0.012452    Cartesian    0.28
    257 y         -4.507787     -4.513703    -0.005915    Cartesian    0.13
    257 z         -4.507787     -4.543900    -0.036113    Cartesian    0.80
    258 x          9.015574      9.068300     0.052725    Cartesian    0.58
    258 y          4.507787      4.515915     0.008128    Cartesian    0.18
    258 z          4.507787      4.546327     0.038540    Cartesian    0.85
    259 x          2.253894      2.253894     0.000000    Cartesian    0.00
    259 y         -6.761681     -6.733166     0.028514    Cartesian   -0.42
    259 z         -2.253894     -2.247802     0.006092    Cartesian   -0.27
    260 x          2.253894      2.253894     0.000000    Cartesian    0.00
    260 y          2.253894      2.242631    -0.011262    Cartesian   -0.50
    260 z         -6.761681     -6.684882     0.076799    Cartesian   -1.14
    261 x         -2.253894     -2.258472    -0.004578    Cartesian    0.20
    261 y          6.761681      6.757330    -0.004351    Cartesian   -0.06
    261 z         -2.253894     -2.249990     0.003904    Cartesian   -0.17
    262 x          4.507787      4.543125     0.035337    Cartesian    0.78
    262 y          4.507787      4.533508     0.025720    Cartesian    0.57
    262 z          9.015574      9.116233     0.100658    Cartesian    1.12
    263 x          9.015574      9.076688     0.061114    Cartesian    0.68
    263 y         -4.507787     -4.512679    -0.004892    Cartesian    0.11
    263 z          0.000000     -0.022980    -0.022980    Cartesian *******
    264 x          6.761681      6.743899    -0.017782    Cartesian   -0.26
    264 y         -6.761681     -6.733620     0.028061    Cartesian   -0.42
    264 z          2.253894      2.255847     0.001953    Cartesian    0.09
    265 x          4.507787      4.496120    -0.011667    Cartesian   -0.26
    265 y          9.015574      9.048302     0.032728    Cartesian    0.36
    265 z          0.000000      0.061654     0.061654    Cartesian *******
    266 x          2.253894      2.253894     0.000000    Cartesian    0.00
    266 y         -2.253894     -2.241199     0.012694    Cartesian   -0.56
    266 z         -6.761681     -6.716722     0.044958    Cartesian   -0.66
    267 x          9.015574      9.098219     0.082645    Cartesian    0.92
    267 y         -4.507787     -4.504655     0.003132    Cartesian   -0.07
    267 z          4.507787      4.537151     0.029364    Cartesian    0.65
    268 x          2.253894      2.253894     0.000000    Cartesian    0.00
    268 y         -6.761681     -6.740319     0.021362    Cartesian   -0.32
    268 z          6.761681      6.752483    -0.009198    Cartesian   -0.14
    269 x          4.507787      4.492776    -0.015011    Cartesian   -0.33
    269 y          9.015574      9.036294     0.020719    Cartesian    0.23
    269 z          4.507787      4.519592     0.011805    Cartesian    0.26
    270 x          9.015574      9.050856     0.035282    Cartesian    0.39
    270 y          0.000000     -0.008985    -0.008985    Cartesian    0.00
    270 z         -4.507787     -4.512063    -0.004276    Cartesian    0.09
    271 x         -2.253894     -2.271551    -0.017657    Cartesian    0.78
    271 y          6.761681      6.760409    -0.001272    Cartesian   -0.02
    271 z          6.761681      6.768763     0.007082    Cartesian    0.10
    272 x         11.269468     11.249245    -0.020223    Cartesian   -0.18
    272 y          2.253894      2.259115     0.005222    Cartesian    0.23
    272 z          2.253894      2.255611     0.001717    Cartesian    0.08
    273 x          4.507787      4.526215     0.018427    Cartesian    0.41
    273 y         -4.507787     -4.501678     0.006109    Cartesian   -0.14
    273 z          9.015574      9.096984     0.081409    Cartesian    0.90
    274 x          6.761681      6.777273     0.015592    Cartesian    0.23
    274 y         -6.761681     -6.760683     0.000998    Cartesian   -0.01
    274 z         -2.253894     -2.250854     0.003039    Cartesian   -0.13
    275 x         11.269468     11.239641    -0.029827    Cartesian   -0.26
    275 y         -2.253894     -2.246273     0.007621    Cartesian   -0.34
    275 z          2.253894      2.246462    -0.007431    Cartesian   -0.33
    276 x          6.761681      6.755249    -0.006431    Cartesian   -0.10
    276 y          2.253894      2.254859     0.000965    Cartesian    0.04
    276 z         -6.761681     -6.728562     0.033119    Cartesian   -0.49
    277 x          2.253894      2.253894     0.000000    Cartesian    0.00
    277 y          2.253894      2.271384     0.017491    Cartesian    0.78
    277 z         11.269468     11.264498    -0.004970    Cartesian   -0.04
    278 x          9.015574      9.042034     0.026460    Cartesian    0.29
    278 y          4.507787      4.521220     0.013433    Cartesian    0.30
    278 z         -4.507787     -4.526177    -0.018390    Cartesian    0.41
    279 x          6.761681      6.764624     0.002944    Cartesian    0.04
    279 y         -2.253894     -2.251775     0.002119    Cartesian   -0.09
    279 z         -6.761681     -6.746450     0.015231    Cartesian   -0.23
    280 x         11.269468     11.263776    -0.005692    Cartesian   -0.05
    280 y          2.253894      2.248993    -0.004901    Cartesian   -0.22
    280 z         -2.253894     -2.223910     0.029983    Cartesian   -1.33
    281 x          4.507787      4.509370     0.001583    Cartesian    0.04
    281 y         -9.015574     -9.029994    -0.014420    Cartesian    0.16
    281 z          0.000000      0.048863     0.048863    Cartesian *******
    282 x          9.015574      9.075356     0.059782    Cartesian    0.66
    282 y          0.000000      0.014017     0.014017    Cartesian    0.00
    282 z          9.015574      9.037297     0.021723    Cartesian    0.24
    283 x          2.253894      2.253894     0.000000    Cartesian    0.00
    283 y         -2.253894     -2.266566    -0.012672    Cartesian    0.56
    283 z         11.269468     11.255571    -0.013897    Cartesian   -0.12
    284 x          6.761681      6.770196     0.008515    Cartesian    0.13
    284 y         -6.761681     -6.760157     0.001524    Cartesian   -0.02
    284 z          6.761681      6.760943    -0.000737    Cartesian   -0.01
    285 x         11.269468     11.266665    -0.002803    Cartesian   -0.02
    285 y         -2.253894     -2.242769     0.011125    Cartesian   -0.49
    285 z         -2.253894     -2.228056     0.025838    Cartesian   -1.15
    286 x          2.253894      2.253894     0.000000    Cartesian    0.00
    286 y          6.761681      6.729962    -0.031719    Cartesian   -0.47
    286 z         -6.761681     -6.739514     0.022167    Cartesian   -0.33
    287 x          4.507787      4.472650    -0.035137    Cartesian   -0.78
    287 y         -9.015574     -9.032836    -0.017262    Cartesian    0.19
    287 z          4.507787      4.496308    -0.011479    Cartesian   -0.25
    288 x          9.015574      9.033443     0.017868    Cartesian    0.20
    288 y         -4.507787     -4.528737    -0.020950    Cartesian    0.46
    288 z         -4.507787     -4.534400    -0.026612    Cartesian    0.59
    289 x         11.269468     11.274294     0.004826    Cartesian    0.04
    289 y          2.253894      2.251160    -0.002734    Cartesian   -0.12
    289 z          6.761681      6.763410     0.001729    Cartesian    0.03
    290 x          4.507787      4.507428    -0.000360    Cartesian   -0.01
    290 y          9.015574      9.077940     0.062366    Cartesian    0.69
    290 z         -4.507787     -4.496600     0.011187    Cartesian   -0.25
    291 x          2.253894      2.253894     0.000000    Cartesian    0.00
    291 y         11.269468     11.289506     0.020038    Cartesian    0.18
    291 z          2.253894      2.252848    -0.001046    Cartesian   -0.05
    292 x          9.015574      9.044750     0.029175    Cartesian    0.32
    292 y          4.507787      4.505101    -0.002686    Cartesian   -0.06
    292 z          9.015574      9.050808     0.035234    Cartesian    0.39
    293 x          6.761681      6.759977    -0.001703    Cartesian   -0.03
    293 y          2.253894      2.261924     0.008030    Cartesian    0.36
    293 z         11.269468     11.274988     0.005520    Cartesian    0.05
    294 x         11.269468     11.271710     0.002242    Cartesian    0.02
    294 y         -2.253894     -2.230033     0.023860    Cartesian   -1.06
    294 z          6.761681      6.762822     0.001141    Cartesian    0.02
    295 x          4.507787      4.504164    -0.003623    Cartesian   -0.08
    295 y          0.000000      0.006501     0.006501    Cartesian    0.00
    295 z         -9.015574     -9.110147    -0.094573    Cartesian    1.05
    296 x          9.015574      9.011672    -0.003902    Cartesian   -0.04
    296 y          9.015574      9.047871     0.032296    Cartesian    0.36
    296 z          0.000000      0.002985     0.002985    Cartesian *******
    297 x         11.269468     11.274866     0.005398    Cartesian    0.05
    297 y          6.761681      6.747502    -0.014179    Cartesian   -0.21
    297 z          2.253894      2.265994     0.012100    Cartesian    0.54
    298 x          6.761681      6.767738     0.006057    Cartesian    0.09
    298 y         -2.253894     -2.258910    -0.005017    Cartesian    0.22
    298 z         11.269468     11.271566     0.002097    Cartesian    0.02
    299 x          9.015574      9.066767     0.051193    Cartesian    0.57
    299 y          9.015574      9.050497     0.034923    Cartesian    0.39
    299 z          4.507787      4.524921     0.017134    Cartesian    0.38
    300 x          2.253894      2.253894     0.000000    Cartesian    0.00
    300 y         -6.761681     -6.745290     0.016391    Cartesian   -0.24
    300 z         -6.761681     -6.760604     0.001077    Cartesian   -0.02
    301 x          2.253894      2.253894     0.000000    Cartesian    0.00
    301 y         11.269468     11.250116    -0.019352    Cartesian   -0.17
    301 z         -2.253894     -2.260710    -0.006816    Cartesian    0.30
    302 x         -2.253894     -2.258547    -0.004653    Cartesian    0.21
    302 y          6.761681      6.760998    -0.000683    Cartesian   -0.01
    302 z         -6.761681     -6.765129    -0.003448    Cartesian    0.05
    303 x          9.015574      9.031226     0.015652    Cartesian    0.17
    303 y         -4.507787     -4.502581     0.005206    Cartesian   -0.12
    303 z          9.015574      9.045561     0.029987    Cartesian    0.33
    304 x         13.523362     13.589713     0.066351    Cartesian    0.49
    304 y          0.000000      0.001178     0.001178    Cartesian    0.00
    304 z          0.000000      0.000695     0.000695    Cartesian *******
    305 x          4.507787      4.514618     0.006831    Cartesian    0.15
    305 y          9.015574      9.065841     0.050267    Cartesian    0.56
    305 z          9.015574      9.030729     0.015155    Cartesian    0.17
    306 x          2.253894      2.253894     0.000000    Cartesian    0.00
    306 y          6.761681      6.752385    -0.009296    Cartesian   -0.14
    306 z         11.269468     11.268459    -0.001009    Cartesian   -0.01
    307 x          4.507787      4.508869     0.001082    Cartesian    0.02
    307 y          4.507787      4.530542     0.022755    Cartesian    0.50
    307 z         -9.015574     -9.022593    -0.007019    Cartesian    0.08
    308 x          6.761681      6.768861     0.007180    Cartesian    0.11
    308 y         11.269468     11.273390     0.003922    Cartesian    0.03
    308 z          2.253894      2.255293     0.001399    Cartesian    0.06
    309 x         11.269468     11.268919    -0.000550    Cartesian   -0.00
    309 y          6.761681      6.759592    -0.002089    Cartesian   -0.03
    309 z         -2.253894     -2.255542    -0.001648    Cartesian    0.07
    310 x          4.507787      4.510535     0.002748    Cartesian    0.06
    310 y         -9.015574     -9.075905    -0.060330    Cartesian    0.67
    310 z         -4.507787     -4.513927    -0.006140    Cartesian    0.14
    311 x         13.523362     13.593951     0.070589    Cartesian    0.52
    311 y          0.000000      0.000040     0.000040    Cartesian    0.00
    311 z          4.507787      4.484668    -0.023119    Cartesian   -0.51
    312 x         11.269468     11.281365     0.011897    Cartesian    0.11
    312 y         -6.761681     -6.733000     0.028680    Cartesian   -0.42
    312 z          2.253894      2.265533     0.011640    Cartesian    0.52
    313 x          2.253894      2.253894     0.000000    Cartesian    0.00
    313 y         11.269468     11.258936    -0.010532    Cartesian   -0.09
    313 z          6.761681      6.780231     0.018551    Cartesian    0.27
    314 x          9.015574      9.010524    -0.005050    Cartesian   -0.06
    314 y         -9.015574     -9.062231    -0.046657    Cartesian    0.52
    314 z          0.000000     -0.009980    -0.009980    Cartesian *******
    315 x          2.253894      2.253894     0.000000    Cartesian    0.00
    315 y        -11.269468    -11.290028    -0.020560    Cartesian    0.18
    315 z          2.253894      2.256270     0.002376    Cartesian    0.11
--------------------------------------------------------------------------------


  Time to end of optimisation  =       99.1258 seconds


  Peak dynamic memory used =      91.07 MB 


  Timing analysis for GULP :

--------------------------------------------------------------------------------
  Task / Subroutine                                          Time (Seconds)
--------------------------------------------------------------------------------
  Calculation of reciprocal space energy and derivatives          0.0005
  Calculation of reciprocal space energy using symmetry           0.0008
  Calculation of real space energy and derivatives                0.0032
  Calculation of real space energy using symmetry                 0.0076
  Calculation for region 1 energy and derivatives (2-b)          53.8327
  Calculation for region 2a energy                               41.6479
  Calculation for region 2b energy                                0.0167
  Calculation and manipulation of Hessian matrix                  0.1401
  Calculation of matrix inversion                                 3.1432
  Symmetry generation of equivalent positions                     0.0038
--------------------------------------------------------------------------------
  Total CPU time                                                 99.1259
--------------------------------------------------------------------------------


  Dump file written as Na3OCl.grs


  Job Finished at 10:49.08  4th December   2020                               

