********************************************************************************
*                       GENERAL UTILITY LATTICE PROGRAM                        *
*                                 Julian Gale                                  *
*                       Curtin Institute for Computation                       *
*                    School of Molecular and Life Sciences                     *
*                    Curtin University, Western Australia                      *
********************************************************************************
* Version = 5.2.0 * Last modified =  10th September 2020                       *
********************************************************************************
*  optimise     - perform optimisation run                                     *
*  conp         - constant pressure calculation                                *
*  property     - calculate properties for final geometry                      *
*  defect       - perform defect calculation after bulk run                    *
*  compare      - compare initial and final structures                         *
********************************************************************************

  Job Started  at 10:47.27  4th December   2020                               

  Number of CPUs =     1


  Total number of configurations input =      1

********************************************************************************
*  Input for Configuration =   1                                               *
********************************************************************************

  Formula = ClONa3                                                      

  Number of irreducible atoms/shells =       5


  Total number atoms/shells =       7

  Dimensionality = 3               :  Bulk   


  Symmetry :

  Crystal family                   :  Cubic       
  Crystal class  (Groth - 1921)    :  Cubic Hexakisoctahedral              

  Space group (centrosymmetric)    :  P M 3 M         

  Patterson group                  :  P m -3 m 

  Cartesian lattice vectors (Angstroms) :

        4.504000    0.000000    0.000000
        0.000000    4.504000    0.000000
        0.000000    0.000000    4.504000

  Cell parameters (Angstroms/Degrees):

  a =       4.5040    alpha =  90.0000
  b =       4.5040    beta  =  90.0000
  c =       4.5040    gamma =  90.0000

  Initial cell volume =          91.368216 Angs**3

  Temperature of configuration =   0.00     K 

  Pressure of configuration =         0.000 GPa 

  Fractional coordinates of asymmetric unit :

--------------------------------------------------------------------------------
   No.  Atomic       x           y          z         Charge      Occupancy
        Label      (Frac)      (Frac)     (Frac)        (e)         (Frac)  
--------------------------------------------------------------------------------
      1 Cl    c    0.000000    0.000000    0.000000     1.48500    1.000000    
      2 O     c    0.500000    0.500000    0.500000     0.18300    1.000000    
      3 Na    c    0.500000    0.500000    0.000000     1.00000    1.000000    
      4 Cl    s    0.000000    0.000000    0.000000    -2.48500    1.000000    
      5 O     s    0.500000    0.500000    0.500000    -2.18300    1.000000    
--------------------------------------------------------------------------------


  Constraints : 

--------------------------------------------------------------------------------
  Constraint no.      Unconstrained     Constrained    Coefficient    Offset
                         Variable         Variable
--------------------------------------------------------------------------------
           1              Strain 1        Strain 2       1.00000      0.0000
           2              Strain 1        Strain 3       1.00000      0.0000
--------------------------------------------------------------------------------


********************************************************************************
*  General input information                                                   *
********************************************************************************

  Species output for all configurations : 

--------------------------------------------------------------------------------
  Species    Type    Atomic    Atomic    Charge       Radii (Angs)     Library
                     Number     Mass       (e)     Cova   Ionic  VDW   Symbol
--------------------------------------------------------------------------------
    Na       Core       11      22.99   1.000000   0.970  0.000  2.300          
    O        Core        8      16.00   0.183000   0.730  0.000  1.360          
    O        Shell       8       0.00  -2.183000   0.730  0.000  1.360          
    Cl       Core       17      35.45   1.485000   0.990  0.000  1.650          
    Cl       Shell      17       0.00  -2.485000   0.990  0.000  1.650          
    Mg       Core       12      24.31   0.415000   1.100  0.000  0.000          
    Mg       Shell      12       0.00   1.585000   1.100  0.000  0.000          
    Ca       Core       20      40.08  -1.135000   0.990  0.000  0.000          
    Ca       Shell      20       0.00   3.135000   0.990  0.000  0.000          
    Sr       Core       38      87.62  -1.251000   1.120  0.000  0.000          
    Sr       Shell      38       0.00   3.251000   1.120  0.000  0.000          
    Ba       Core       56     137.33  -7.203000   1.340  0.000  0.000          
    Ba       Shell      56       0.00   9.203000   1.340  0.000  0.000          
--------------------------------------------------------------------------------


  Lattice summation method               =    Ewald          (3-D)
                                         =    Parry          (2-D)
                                         =    Saunders et al (1-D)
  Accuracy factor for lattice sums       =   12.000


  Analytic derivatives to be used

  Time limit = Infinity

  Maximum range for interatomic potentials =    100000.000000 Angstroms

  General interatomic potentials :

--------------------------------------------------------------------------------
Atom  Types   Potential      Parameter       Value         Units   Cutoffs(Ang)
  1     2                                                            Min /  Max 
--------------------------------------------------------------------------------
O    c O    s Spring (c-s)  Spring k 2       593.71600    eV*Ang^-2 0.000  0.800
                            Spring k 4       0.0000000    eV*Ang^-4 
--------------------------------------------------------------------------------
Cl   c Cl   s Spring (c-s)  Spring k 2       29.380000    eV*Ang^-2 0.000  0.800
                            Spring k 4       0.0000000    eV*Ang^-4 
--------------------------------------------------------------------------------
Mg   c Mg   s Spring (c-s)  Spring k 2       361.60000    eV*Ang^-2 0.000  0.800
                            Spring k 4       0.0000000    eV*Ang^-4 
--------------------------------------------------------------------------------
Ca   c Ca   s Spring (c-s)  Spring k 2       110.20000    eV*Ang^-2 0.000  0.800
                            Spring k 4       0.0000000    eV*Ang^-4 
--------------------------------------------------------------------------------
Sr   c Sr   s Spring (c-s)  Spring k 2       71.700000    eV*Ang^-2 0.000  0.800
                            Spring k 4       0.0000000    eV*Ang^-4 
--------------------------------------------------------------------------------
Ba   c Ba   s Spring (c-s)  Spring k 2       495.20000    eV*Ang^-2 0.000  0.800
                            Spring k 4       0.0000000    eV*Ang^-4 
--------------------------------------------------------------------------------
Na   c Na   c Buckingham    Buckingham A     1788.1900    eV        0.000 12.000
                            Buckingham rho  0.15900000    Ang       
                            Buckingham C     0.0000000    eV*Ang^6  
--------------------------------------------------------------------------------
Na   c O    s Buckingham    Buckingham A     1226.8400    eV        0.000 12.000
                            Buckingham rho  0.30700000    Ang       
                            Buckingham C     0.0000000    eV*Ang^6  
--------------------------------------------------------------------------------
Na   c Cl   s Buckingham    Buckingham A     2314.7000    eV        0.000 12.000
                            Buckingham rho  0.29000000    Ang       
                            Buckingham C     0.0000000    eV*Ang^6  
--------------------------------------------------------------------------------
O    s O    s Buckingham    Buckingham A     22764.300    eV        0.000 12.000
                            Buckingham rho  0.14900000    Ang       
                            Buckingham C     13.190000    eV*Ang^6  
--------------------------------------------------------------------------------
O    s Cl   s Buckingham    Buckingham A     8286.9100    eV        0.000 12.000
                            Buckingham rho  0.25900000    Ang       
                            Buckingham C     62.200000    eV*Ang^6  
--------------------------------------------------------------------------------
Cl   s Cl   s Buckingham    Buckingham A     1227.2000    eV        0.000 12.000
                            Buckingham rho  0.32100000    Ang       
                            Buckingham C     14.530000    eV*Ang^6  
--------------------------------------------------------------------------------
O    s Mg   s Buckingham    Buckingham A     1428.5000    eV        0.000 12.000
                            Buckingham rho  0.29450000    Ang       
                            Buckingham C     0.0000000    eV*Ang^6  
--------------------------------------------------------------------------------
Mg   s Cl   s Buckingham    Buckingham A     4914.5400    eV        0.000 12.000
                            Buckingham rho  0.25700000    Ang       
                            Buckingham C     0.0000000    eV*Ang^6  
--------------------------------------------------------------------------------
O    s Ca   s Buckingham    Buckingham A     1090.4000    eV        0.000 12.000
                            Buckingham rho  0.34370000    Ang       
                            Buckingham C     0.0000000    eV*Ang^6  
--------------------------------------------------------------------------------
Cl   s Ca   s Buckingham    Buckingham A     2302.0000    eV        0.000 12.000
                            Buckingham rho  0.34020000    Ang       
                            Buckingham C     0.0000000    eV*Ang^6  
--------------------------------------------------------------------------------
O    s Sr   s Buckingham    Buckingham A     959.10000    eV        0.000 12.000
                            Buckingham rho  0.37210000    Ang       
                            Buckingham C     0.0000000    eV*Ang^6  
--------------------------------------------------------------------------------
Cl   s Sr   s Buckingham    Buckingham A     2191.0900    eV        0.000 12.000
                            Buckingham rho  0.34570000    Ang       
                            Buckingham C     0.0000000    eV*Ang^6  
--------------------------------------------------------------------------------
O    s Ba   s Buckingham    Buckingham A     905.70000    eV        0.000 12.000
                            Buckingham rho  0.39760000    Ang       
                            Buckingham C     0.0000000    eV*Ang^6  
--------------------------------------------------------------------------------
Cl   s Ba   s Buckingham    Buckingham A     2704.5500    eV        0.000 12.000
                            Buckingham rho  0.35280000    Ang       
                            Buckingham C     0.0000000    eV*Ang^6  
--------------------------------------------------------------------------------

********************************************************************************
*  Output for configuration   1                                                *
********************************************************************************


  Components of energy : 

--------------------------------------------------------------------------------
  Interatomic potentials     =           5.13022605 eV    
  Monopole - monopole (real) =         -10.03624526 eV    
  Monopole - monopole (recip)=         -29.53581274 eV    
  Monopole - monopole (total)=         -39.57205800 eV    
--------------------------------------------------------------------------------
  Total lattice energy       =         -34.44183194 eV    
--------------------------------------------------------------------------------
  Total lattice energy       =           -3323.1103 kJ/(mole unit cells)
--------------------------------------------------------------------------------


  Number of variables =        1

  Maximum number of calculations  =          1000
  Maximum Hessian update interval =            10
  Maximum step size               =   1.000000000
  Maximum parameter tolerance     =   0.000010000
  Maximum function  tolerance     =   0.000010000
  Maximum gradient  tolerance     =   0.001000000
  Maximum gradient  component     =   0.010000000

  Symmetry constrained optimisation

  Symmetry used for second derivatives

  Cell parameters to be optimised using strains

  Newton-Raphson optimiser to be used

  BFGS hessian update to be used

  Lower half triangular hessian to be used

  Start of bulk optimisation :

  Cycle:      0 Energy:       -34.441832  Gnorm:      0.196570  CPU:    0.015
  ** Hessian calculated **
  Cycle:      1 Energy:       -34.441914  Gnorm:      0.000103  CPU:    0.018


  **** Optimisation achieved ****


  Final energy =     -34.44191447 eV
  Final Gnorm  =       0.00000000

  Components of energy : 

--------------------------------------------------------------------------------
  Interatomic potentials     =           5.09689708 eV    
  Monopole - monopole (real) =         -10.02781331 eV    
  Monopole - monopole (recip)=         -29.51099824 eV    
  Monopole - monopole (total)=         -39.53881155 eV    
--------------------------------------------------------------------------------
  Total lattice energy       =         -34.44191447 eV    
--------------------------------------------------------------------------------
  Total lattice energy       =           -3323.1183 kJ/(mole unit cells)
--------------------------------------------------------------------------------

  Final asymmetric unit coordinates :

--------------------------------------------------------------------------------
   No.  Atomic        x           y           z         Radius
        Label       (Frac)      (Frac)      (Frac)       (Angs) 
--------------------------------------------------------------------------------
     1  Cl    c     0.000000    0.000000    0.000000    0.000000
     2  O     c     0.500000    0.500000    0.500000    0.000000
     3  Na    c     0.500000    0.500000    0.000000    0.000000
     4  Cl    s     0.000000    0.000000    0.000000    0.000000
     5  O     s     0.500000    0.500000    0.500000    0.000000
--------------------------------------------------------------------------------

  Final Cartesian lattice vectors (Angstroms) :

        4.507787    0.000000    0.000000
        0.000000    4.507787    0.000000
        0.000000    0.000000    4.507787


  Final cell parameters and derivatives :

--------------------------------------------------------------------------------
       a            4.507787 Angstrom     dE/de1(xx)     0.000000 eV/strain
       b            4.507787 Angstrom     dE/de2(yy)     0.000000 eV/strain
       c            4.507787 Angstrom     dE/de3(zz)     0.000000 eV/strain
       alpha       90.000000 Degrees      dE/de4(yz)     0.000000 eV/strain
       beta        90.000000 Degrees      dE/de5(xz)     0.000000 eV/strain
       gamma       90.000000 Degrees      dE/de6(xy)     0.000000 eV/strain
--------------------------------------------------------------------------------

  Primitive cell volume =            91.598892 Angs**3

  Density of cell =      2.183054 g/cm**3

  Non-primitive cell volume =            91.598892 Angs**3


  Final internal derivatives :

--------------------------------------------------------------------------------
   No.  Atomic          a             b             c           Radius
        Label          (eV)          (eV)          (eV)        (eV/Angs)
--------------------------------------------------------------------------------
      1 Cl    c       0.000000      0.000000      0.000000      0.000000
      2 O     c       0.000000      0.000000      0.000000      0.000000
      3 Na    c       0.000000      0.000000      0.000000      0.000000
      4 Cl    s       0.000000      0.000000      0.000000      0.000000
      5 O     s       0.000000      0.000000      0.000000      0.000000
--------------------------------------------------------------------------------
  Maximum abs         0.000000      0.000000      0.000000      0.000000
--------------------------------------------------------------------------------

  Comparison of initial and final structures : 

--------------------------------------------------------------------------------
  Parameter   Initial value   Final value   Difference    Units      Percent
--------------------------------------------------------------------------------
    Volume        91.368216     91.598892     0.230676    Angs**3      0.25
    a              4.504000      4.507787     0.003787    Angstroms    0.08
    b              4.504000      4.507787     0.003787    Angstroms    0.08
    c              4.504000      4.507787     0.003787    Angstroms    0.08
    alpha         90.000000     90.000000     0.000000    Degrees      0.00
    beta          90.000000     90.000000     0.000000    Degrees      0.00
    gamma         90.000000     90.000000     0.000000    Degrees      0.00
      1 x          0.000000      0.000000     0.000000    Fractional   0.00
      1 y          0.000000      0.000000     0.000000    Fractional   0.00
      1 z          0.000000      0.000000     0.000000    Fractional   0.00
      2 x          0.500000      0.500000     0.000000    Fractional   0.00
      2 y          0.500000      0.500000     0.000000    Fractional   0.00
      2 z          0.500000      0.500000     0.000000    Fractional   0.00
      3 x          0.500000      0.500000     0.000000    Fractional   0.00
      3 y          0.500000      0.500000     0.000000    Fractional   0.00
      3 z          0.000000      0.000000     0.000000    Fractional   0.00
      4 x          0.000000      0.000000     0.000000    Fractional   0.00
      4 y          0.000000      0.000000     0.000000    Fractional   0.00
      4 z          0.000000      0.000000     0.000000    Fractional   0.00
      5 x          0.500000      0.500000     0.000000    Fractional   0.00
      5 y          0.500000      0.500000     0.000000    Fractional   0.00
      5 z          0.500000      0.500000     0.000000    Fractional   0.00
--------------------------------------------------------------------------------


  Born effective charge tensors : 

-------------------------------------------------------------------------------
  Atom             x           y             z
-------------------------------------------------------------------------------
    1 Cl    x      -1.0181     -0.0000      0.0000
            y      -0.0000     -1.0181      0.0000
            z       0.0000      0.0000     -1.0181
-------------------------------------------------------------------------------
    2 O     x      -2.2647      0.0000     -0.0000
            y       0.0000     -2.2647     -0.0000
            z      -0.0000     -0.0000     -2.2647
-------------------------------------------------------------------------------
    3 Na    x       1.2258     -0.0000      0.0000
            y      -0.0000      1.2258     -0.0000
            z       0.0000     -0.0000      0.8313
-------------------------------------------------------------------------------




  Elastic Constant Matrix: (Units=GPa)

-------------------------------------------------------------------------------
  Indices      1         2         3         4         5         6    
-------------------------------------------------------------------------------
       1     95.8177   20.0737   20.0737   -0.0000   -0.0000    0.0000
       2     20.0737   95.8177   20.0737   -0.0000   -0.0000    0.0000
       3     20.0737   20.0737   95.8177   -0.0000   -0.0000    0.0000
       4     -0.0000   -0.0000   -0.0000   20.0737   -0.0000    0.0000
       5     -0.0000   -0.0000   -0.0000   -0.0000   20.0737    0.0000
       6      0.0000    0.0000    0.0000    0.0000    0.0000   20.0737
-------------------------------------------------------------------------------


  Elastic Compliance Matrix: (Units=1/GPa)

-------------------------------------------------------------------------------
  Indices      1         2         3         4         5         6    
-------------------------------------------------------------------------------
       1    0.011253 -0.001949 -0.001949  0.000000  0.000000 -0.000000
       2   -0.001949  0.011253 -0.001949  0.000000  0.000000  0.000000
       3   -0.001949 -0.001949  0.011253  0.000000  0.000000 -0.000000
       4    0.000000  0.000000  0.000000  0.049816  0.000000 -0.000000
       5    0.000000  0.000000  0.000000  0.000000  0.049816 -0.000000
       6   -0.000000  0.000000 -0.000000 -0.000000 -0.000000  0.049816
-------------------------------------------------------------------------------

  Mechanical properties :

-------------------------------------------------------------------------------
  Convention :                    Reuss         Voigt         Hill
-------------------------------------------------------------------------------
  Bulk  Modulus (GPa)     =      45.32174      45.32174      45.32174
  Shear Modulus (GPa)     =      24.72085      27.19304      25.95695
-------------------------------------------------------------------------------
  Velocity S-wave (km/s)  =       3.36511       3.52937       3.44822
  Velocity P-wave (km/s)  =       5.98827       6.11304       6.05098
-------------------------------------------------------------------------------
  Compressibility (1/GPa) =    0.02206447
-------------------------------------------------------------------------------
  Stress axis :                     x             y             z
-------------------------------------------------------------------------------
  Youngs Moduli (GPa)     =      88.86373      88.86373      88.86373
-------------------------------------------------------------------------------
  Poissons Ratio (x)      =                     0.17321       0.17321
  Poissons Ratio (y)      =       0.17321                     0.17321
  Poissons Ratio (z)      =       0.17321       0.17321
-------------------------------------------------------------------------------


  Piezoelectric Strain Matrix: (Units=C/m**2)

-------------------------------------------------------------------------------
  Indices      1         2         3         4         5         6    
-------------------------------------------------------------------------------
       x    -0.00000  -0.00000  -0.00000   0.00000  -0.00000  -0.00000
       y    -0.00000  -0.00000   0.00000  -0.00000   0.00000   0.00000
       z    -0.00000  -0.00000  -0.00000  -0.00000   0.00000   0.00000
-------------------------------------------------------------------------------


  Piezoelectric Stress Matrix: (Units=10**-11 C/N)

-------------------------------------------------------------------------------
  Indices      1         2         3         4         5         6    
-------------------------------------------------------------------------------
       x    -0.00000   0.00000   0.00000   0.00000  -0.00000  -0.00000
       y    -0.00000  -0.00000   0.00000  -0.00000   0.00000   0.00000
       z     0.00000   0.00000  -0.00000  -0.00000   0.00000   0.00000
-------------------------------------------------------------------------------


  Static dielectric constant tensor : 

-------------------------------------------------------------------------------
              x         y         z
-------------------------------------------------------------------------------
       x    22.84729   0.00000   0.00000
       y     0.00000  22.84729  -0.00000
       z     0.00000  -0.00000  22.84729
--------------------------------------------------------------------------------

  High frequency dielectric constant tensor : 

-------------------------------------------------------------------------------
              x         y         z
-------------------------------------------------------------------------------
       x     1.47557   0.00000  -0.00000
       y     0.00000   1.47557  -0.00000
       z    -0.00000  -0.00000   1.47557
-------------------------------------------------------------------------------

  Static refractive indices : 

-------------------------------------------------------------------------------
    1 =    4.77988      2 =    4.77988      3 =    4.77988
-------------------------------------------------------------------------------

  High frequency refractive indices : 

-------------------------------------------------------------------------------
    1 =    1.21473      2 =    1.21473      3 =    1.21473
-------------------------------------------------------------------------------


  Time to end of optimisation =       0.0266 seconds

********************************************************************************
*  Defect calculation for configuration   1 :                                  *
********************************************************************************

  Total number of defects =      3

  Total charge on defect  =  -1.00

  Defect centre is at   0.5000   0.1400   0.3600  Frac

  Region 1 radius =  12.0000      Number of ions =    543

  Number of symmetry inequivalent region 1 ions  =    315

  Region 2 radius =  16.0000      Number of ions =    780

  Number of symmetry inequivalent region 2a ions =    426

  Region 2a mode = 4 : screened electrostatics due to region 1 
                       neglect correction to region 1 forces from 2a
                       region 2a displacements based on defects only

  Region 2a ions will only interact with defects in region 1

  Vacancies:

--------------------------------------------------------------------------------
    Specification type     Symbol/Number         x          y          z
--------------------------------------------------------------------------------
    Fractional                               0.500000   0.500000   0.000000
    Fractional                               0.500000   0.000000   0.500000
--------------------------------------------------------------------------------

  Interstitials:

--------------------------------------------------------------------------------
    Specification type     Symbol/Number         x          y          z
--------------------------------------------------------------------------------
    Atom/Fractional         Na               0.500000   0.360000   0.140000
--------------------------------------------------------------------------------


  Symmetry reduced region 1 (Relative to defect centre) :

--------------------------------------------------------------------------------
   No.   Atomic       x            y             z       Radius  Multiplicity   
         Label      (Angs)       (Angs)        (Angs)    (Angs)     
--------------------------------------------------------------------------------
     1  Na    c      0.0000       0.9917      -0.9917    0.0000     1    Defect
     2  O     c      0.0000       1.6228 *     0.6311 *  0.0000     1          
     3  Cl    c      2.2539 *    -0.6311 *    -1.6228 *  0.0000     2          
     4  Na    c      2.2539 *     1.6228 *     0.6311 *  0.0000     2          
     5  O     c      0.0000      -2.8850 *     0.6311 *  0.0000     1          
     6  Na    c      0.0000       1.6228 *     2.8850 *  0.0000     1          
     7  Na    c      0.0000      -2.8850 *    -1.6228 *  0.0000     1          
     8  Na    c      2.2539 *    -2.8850 *     0.6311 *  0.0000     2          
     9  Cl    c      2.2539 *    -0.6311 *     2.8850 *  0.0000     2          
    10  Na    c      0.0000       3.8767 *     0.6311 *  0.0000     1          
    11  Na    c      0.0000      -0.6311 *    -3.8767 *  0.0000     1          
    12  Na    c      0.0000      -2.8850 *     2.8850 *  0.0000     1          
    13  O     c      0.0000       1.6228 *    -3.8767 *  0.0000     1          
    14  Na    c     -4.5078 *    -0.6311 *     0.6311 *  0.0000     2          
    15  Cl    c      2.2539 *     3.8767 *    -1.6228 *  0.0000     2          
    16  Na    c      2.2539 *     1.6228 *    -3.8767 *  0.0000     2          
    17  O     c     -4.5078 *     1.6228 *     0.6311 *  0.0000     2          
    18  O     c      0.0000      -2.8850 *    -3.8767 *  0.0000     1          
    19  Na    c     -4.5078 *     1.6228 *    -1.6228 *  0.0000     2          
    20  Na    c      0.0000      -0.6311 *     5.1389 *  0.0000     1          
    21  Na    c      0.0000      -5.1389 *     0.6311 *  0.0000     1          
    22  Cl    c      2.2539 *     3.8767 *     2.8850 *  0.0000     2          
    23  Na    c      2.2539 *    -2.8850 *    -3.8767 *  0.0000     2          
    24  O     c      0.0000       1.6228 *     5.1389 *  0.0000     1          
    25  O     c     -4.5078 *    -2.8850 *     0.6311 *  0.0000     2          
    26  Na    c      0.0000       3.8767 *    -3.8767 *  0.0000     1          
    27  Na    c     -4.5078 *     1.6228 *     2.8850 *  0.0000     2          
    28  Na    c     -4.5078 *    -2.8850 *    -1.6228 *  0.0000     2          
    29  Na    c      2.2539 *     1.6228 *     5.1389 *  0.0000     2          
    30  Cl    c      2.2539 *    -5.1389 *    -1.6228 *  0.0000     2          
    31  O     c      0.0000      -2.8850 *     5.1389 *  0.0000     1          
    32  Na    c     -4.5078 *     3.8767 *     0.6311 *  0.0000     2          
    33  Na    c     -4.5078 *    -0.6311 *    -3.8767 *  0.0000     2          
    34  Na    c     -4.5078 *    -2.8850 *     2.8850 *  0.0000     2          
    35  O     c     -4.5078 *     1.6228 *    -3.8767 *  0.0000     2          
    36  O     c      0.0000       6.1306 *     0.6311 *  0.0000     1          
    37  Na    c      2.2539 *    -2.8850 *     5.1389 *  0.0000     2          
    38  Cl    c      2.2539 *    -5.1389 *     2.8850 *  0.0000     2          
    39  Na    c      0.0000       1.6228 *    -6.1306 *  0.0000     1          
    40  Na    c      0.0000       6.1306 *    -1.6228 *  0.0000     1          
    41  Na    c      0.0000       3.8767 *     5.1389 *  0.0000     1          
    42  Na    c      0.0000      -5.1389 *    -3.8767 *  0.0000     1          
    43  Cl    c      2.2539 *    -0.6311 *    -6.1306 *  0.0000     2          
    44  Na    c      2.2539 *     6.1306 *     0.6311 *  0.0000     2          
    45  O     c     -4.5078 *    -2.8850 *    -3.8767 *  0.0000     2          
    46  Na    c      0.0000      -2.8850 *    -6.1306 *  0.0000     1          
    47  Na    c      0.0000       6.1306 *     2.8850 *  0.0000     1          
    48  Na    c     -4.5078 *    -0.6311 *     5.1389 *  0.0000     2          
    49  Na    c     -4.5078 *    -5.1389 *     0.6311 *  0.0000     2          
    50  Cl    c      6.7617 *    -0.6311 *    -1.6228 *  0.0000     2          
    51  Na    c      6.7617 *     1.6228 *     0.6311 *  0.0000     2          
    52  O     c     -4.5078 *     1.6228 *     5.1389 *  0.0000     2          
    53  Na    c     -4.5078 *     3.8767 *    -3.8767 *  0.0000     2          
    54  O     c      0.0000       6.1306 *    -3.8767 *  0.0000     1          
    55  Na    c      0.0000      -5.1389 *     5.1389 *  0.0000     1          
    56  Cl    c      6.7617 *    -0.6311 *     2.8850 *  0.0000     2          
    57  Na    c      6.7617 *    -2.8850 *     0.6311 *  0.0000     2          
    58  O     c     -4.5078 *    -2.8850 *     5.1389 *  0.0000     2          
    59  O     c      0.0000      -7.3928 *     0.6311 *  0.0000     1          
    60  Na    c      0.0000       1.6228 *     7.3928 *  0.0000     1          
    61  Na    c      0.0000      -7.3928 *    -1.6228 *  0.0000     1          
    62  Cl    c      2.2539 *     3.8767 *    -6.1306 *  0.0000     2          
    63  Na    c      2.2539 *     6.1306 *    -3.8767 *  0.0000     2          
    64  O     c     -4.5078 *     6.1306 *     0.6311 *  0.0000     2          
    65  Cl    c      2.2539 *    -0.6311 *     7.3928 *  0.0000     2          
    66  Na    c      2.2539 *    -7.3928 *     0.6311 *  0.0000     2          
    67  Na    c     -4.5078 *     1.6228 *    -6.1306 *  0.0000     2          
    68  Na    c     -4.5078 *     6.1306 *    -1.6228 *  0.0000     2          
    69  Na    c     -4.5078 *     3.8767 *     5.1389 *  0.0000     2          
    70  Na    c     -4.5078 *    -5.1389 *    -3.8767 *  0.0000     2          
    71  Na    c      0.0000      -2.8850 *     7.3928 *  0.0000     1          
    72  Na    c      0.0000      -7.3928 *     2.8850 *  0.0000     1          
    73  Cl    c      6.7617 *     3.8767 *    -1.6228 *  0.0000     2          
    74  Na    c      6.7617 *     1.6228 *    -3.8767 *  0.0000     2          
    75  O     c      0.0000       6.1306 *     5.1389 *  0.0000     1          
    76  Na    c     -4.5078 *    -2.8850 *    -6.1306 *  0.0000     2          
    77  Na    c      4.5078 *     6.1306 *     2.8850 *  0.0000     2          
    78  Cl    c      2.2539 *    -5.1389 *    -6.1306 *  0.0000     2          
    79  Cl    c      6.7617 *     3.8767 *     2.8850 *  0.0000     2          
    80  Na    c      2.2539 *     6.1306 *     5.1389 *  0.0000     2          
    81  Na    c      6.7617 *    -2.8850 *    -3.8767 *  0.0000     2          
    82  O     c      0.0000      -7.3928 *    -3.8767 *  0.0000     1          
    83  Na    c      0.0000      -0.6311 *    -8.3845 *  0.0000     1          
    84  Na    c      0.0000       8.3845 *     0.6311 *  0.0000     1          
    85  O     c      0.0000       1.6228 *    -8.3845 *  0.0000     1          
    86  O     c     -4.5078 *     6.1306 *    -3.8767 *  0.0000     2          
    87  Na    c      4.5078 *    -5.1389 *     5.1389 *  0.0000     2          
    88  Cl    c      2.2539 *     3.8767 *     7.3928 *  0.0000     2          
    89  Cl    c      6.7617 *    -5.1389 *    -1.6228 *  0.0000     2          
    90  Na    c      2.2539 *    -7.3928 *    -3.8767 *  0.0000     2          
    91  Na    c      6.7617 *     1.6228 *     5.1389 *  0.0000     2          
    92  Na    c      0.0000       6.1306 *    -6.1306 *  0.0000     1          
    93  O     c     -4.5078 *    -7.3928 *     0.6311 *  0.0000     2          
    94  Na    c     -4.5078 *    -7.3928 *    -1.6228 *  0.0000     2          
    95  Na    c      4.5078 *     1.6228 *     7.3928 *  0.0000     2          
    96  Cl    c      2.2539 *     8.3845 *    -1.6228 *  0.0000     2          
    97  Na    c      2.2539 *     1.6228 *    -8.3845 *  0.0000     2          
    98  O     c      0.0000      -2.8850 *    -8.3845 *  0.0000     1          
    99  Cl    c      6.7617 *    -5.1389 *     2.8850 *  0.0000     2          
   100  Na    c      6.7617 *    -2.8850 *     5.1389 *  0.0000     2          
   101  O     c      0.0000      -7.3928 *     5.1389 *  0.0000     1          
   102  Na    c      9.0156 *    -0.6311 *     0.6311 *  0.0000     2          
   103  Na    c      4.5078 *    -2.8850 *     7.3928 *  0.0000     2          
   104  Na    c      4.5078 *    -7.3928 *     2.8850 *  0.0000     2          
   105  Cl    c      2.2539 *     8.3845 *     2.8850 *  0.0000     2          
   106  Cl    c      6.7617 *    -0.6311 *    -6.1306 *  0.0000     2          
   107  Na    c      2.2539 *    -2.8850 *    -8.3845 *  0.0000     2          
   108  Na    c      6.7617 *     6.1306 *     0.6311 *  0.0000     2          
   109  O     c      9.0156 *     1.6228 *     0.6311 *  0.0000     2          
   110  O     c      4.5078 *     6.1306 *     5.1389 *  0.0000     2          
   111  Na    c      0.0000       3.8767 *    -8.3845 *  0.0000     1          
   112  Na    c      0.0000       8.3845 *    -3.8767 *  0.0000     1          
   113  Cl    c      2.2539 *    -5.1389 *     7.3928 *  0.0000     2          
   114  Na    c      2.2539 *    -7.3928 *     5.1389 *  0.0000     2          
   115  Na    c      9.0156 *     1.6228 *    -1.6228 *  0.0000     2          
   116  O     c      9.0156 *    -2.8850 *     0.6311 *  0.0000     2          
   117  O     c     -4.5078 *    -7.3928 *    -3.8767 *  0.0000     2          
   118  Na    c     -4.5078 *     8.3845 *     0.6311 *  0.0000     2          
   119  Na    c      4.5078 *    -0.6311 *    -8.3845 *  0.0000     2          
   120  Na    c      0.0000       6.1306 *     7.3928 *  0.0000     1          
   121  Na    c      0.0000      -7.3928 *    -6.1306 *  0.0000     1          
   122  Na    c      9.0156 *     1.6228 *     2.8850 *  0.0000     2          
   123  Na    c      9.0156 *    -2.8850 *    -1.6228 *  0.0000     2          
   124  O     c      4.5078 *     1.6228 *    -8.3845 *  0.0000     2          
   125  Na    c      0.0000      -0.6311 *     9.6467 *  0.0000     1          
   126  Na    c      0.0000      -9.6467 *     0.6311 *  0.0000     1          
   127  Na    c      4.5078 *     6.1306 *    -6.1306 *  0.0000     2          
   128  O     c      0.0000       1.6228 *     9.6467 *  0.0000     1          
   129  Na    c      9.0156 *     3.8767 *     0.6311 *  0.0000     2          
   130  Na    c      0.0000       8.3845 *     5.1389 *  0.0000     1          
   131  Na    c      0.0000      -5.1389 *    -8.3845 *  0.0000     1          
   132  Na    c      9.0156 *    -0.6311 *    -3.8767 *  0.0000     2          
   133  Na    c      9.0156 *    -2.8850 *     2.8850 *  0.0000     2          
   134  Cl    c      6.7617 *     3.8767 *    -6.1306 *  0.0000     2          
   135  Na    c      6.7617 *     6.1306 *    -3.8767 *  0.0000     2          
   136  O     c      4.5078 *    -2.8850 *    -8.3845 *  0.0000     2          
   137  O     c      9.0156 *     1.6228 *    -3.8767 *  0.0000     2          
   138  Cl    c      2.2539 *    -9.6467 *    -1.6228 *  0.0000     2          
   139  Na    c      2.2539 *     1.6228 *     9.6467 *  0.0000     2          
   140  Cl    c      6.7617 *    -0.6311 *     7.3928 *  0.0000     2          
   141  Na    c      6.7617 *    -7.3928 *     0.6311 *  0.0000     2          
   142  O     c      0.0000      -2.8850 *     9.6467 *  0.0000     1          
   143  O     c      4.5078 *    -7.3928 *     5.1389 *  0.0000     2          
   144  O     c      9.0156 *    -2.8850 *    -3.8767 *  0.0000     2          
   145  Na    c      4.5078 *     3.8767 *    -8.3845 *  0.0000     2          
   146  Na    c     -4.5078 *     8.3845 *    -3.8767 *  0.0000     2          
   147  Cl    c      2.2539 *    -9.6467 *     2.8850 *  0.0000     2          
   148  Na    c      2.2539 *    -2.8850 *     9.6467 *  0.0000     2          
   149  O     c      0.0000       6.1306 *    -8.3845 *  0.0000     1          
   150  Na    c      0.0000       3.8767 *     9.6467 *  0.0000     1          
   151  Na    c      0.0000      -9.6467 *    -3.8767 *  0.0000     1          
   152  Na    c      9.0156 *    -0.6311 *     5.1389 *  0.0000     2          
   153  Na    c      9.0156 *    -5.1389 *     0.6311 *  0.0000     2          
   154  Na    c      0.0000      -7.3928 *     7.3928 *  0.0000     1          
   155  Cl    c      6.7617 *    -5.1389 *    -6.1306 *  0.0000     2          
   156  Na    c      6.7617 *     6.1306 *     5.1389 *  0.0000     2          
   157  O     c      9.0156 *     1.6228 *     5.1389 *  0.0000     2          
   158  Na    c      9.0156 *     3.8767 *    -3.8767 *  0.0000     2          
   159  Na    c      4.5078 *    -7.3928 *    -6.1306 *  0.0000     2          
   160  Na    c     -4.5078 *     6.1306 *     7.3928 *  0.0000     2          
   161  Cl    c      2.2539 *     8.3845 *    -6.1306 *  0.0000     2          
   162  Na    c      2.2539 *     6.1306 *    -8.3845 *  0.0000     2          
   163  O     c      0.0000      10.6384 *     0.6311 *  0.0000     1          
   164  Na    c     -4.5078 *    -9.6467 *     0.6311 *  0.0000     2          
   165  Na    c      4.5078 *    -0.6311 *     9.6467 *  0.0000     2          
   166  Cl    c      6.7617 *     3.8767 *     7.3928 *  0.0000     2          
   167  Na    c      6.7617 *    -7.3928 *    -3.8767 *  0.0000     2          
   168  Na    c      0.0000       1.6228 *   -10.6384 *  0.0000     1          
   169  Na    c      0.0000      10.6384 *    -1.6228 *  0.0000     1          
   170  O     c      4.5078 *     1.6228 *     9.6467 *  0.0000     2          
   171  O     c      9.0156 *    -2.8850 *     5.1389 *  0.0000     2          
   172  Na    c      4.5078 *     8.3845 *     5.1389 *  0.0000     2          
   173  Na    c     -4.5078 *    -5.1389 *    -8.3845 *  0.0000     2          
   174  Cl    c      2.2539 *    -0.6311 *   -10.6384 *  0.0000     2          
   175  Na    c      2.2539 *    10.6384 *     0.6311 *  0.0000     2          
   176  Cl    c      6.7617 *     8.3845 *    -1.6228 *  0.0000     2          
   177  Na    c      6.7617 *     1.6228 *    -8.3845 *  0.0000     2          
   178  O     c      9.0156 *     6.1306 *     0.6311 *  0.0000     2          
   179  Na    c      0.0000      -5.1389 *     9.6467 *  0.0000     1          
   180  Na    c      0.0000      -9.6467 *     5.1389 *  0.0000     1          
   181  Na    c      0.0000      10.6384 *     2.8850 *  0.0000     1          
   182  Na    c      0.0000      -2.8850 *   -10.6384 *  0.0000     1          
   183  Na    c      9.0156 *     1.6228 *    -6.1306 *  0.0000     2          
   184  Na    c      9.0156 *     6.1306 *    -1.6228 *  0.0000     2          
   185  O     c      4.5078 *    -2.8850 *     9.6467 *  0.0000     2          
   186  Na    c      9.0156 *     3.8767 *     5.1389 *  0.0000     2          
   187  Na    c      9.0156 *    -5.1389 *    -3.8767 *  0.0000     2          
   188  Cl    c      6.7617 *     8.3845 *     2.8850 *  0.0000     2          
   189  Na    c      6.7617 *    -2.8850 *    -8.3845 *  0.0000     2          
   190  O     c      0.0000      -7.3928 *    -8.3845 *  0.0000     1          
   191  Na    c      6.7617 *    -7.3928 *     5.1389 *  0.0000     2          
   192  Cl    c      6.7617 *    -5.1389 *     7.3928 *  0.0000     2          
   193  Na    c      9.0156 *     6.1306 *     2.8850 *  0.0000     2          
   194  Na    c      9.0156 *    -2.8850 *    -6.1306 *  0.0000     2          
   195  O     c      0.0000      10.6384 *    -3.8767 *  0.0000     1          
   196  O     c     -4.5078 *     6.1306 *    -8.3845 *  0.0000     2          
   197  Na    c      4.5078 *     3.8767 *     9.6467 *  0.0000     2          
   198  Na    c      4.5078 *    -9.6467 *    -3.8767 *  0.0000     2          
   199  Na    c     -4.5078 *    -7.3928 *     7.3928 *  0.0000     2          
   200  Cl    c     11.2695 *    -0.6311 *    -1.6228 *  0.0000     2          
   201  Na    c     11.2695 *     1.6228 *     0.6311 *  0.0000     2          
   202  Cl    c      2.2539 *     8.3845 *     7.3928 *  0.0000     2          
   203  Na    c      2.2539 *    -7.3928 *    -8.3845 *  0.0000     2          
   204  O     c      0.0000       6.1306 *     9.6467 *  0.0000     1          
   205  Cl    c      2.2539 *     3.8767 *   -10.6384 *  0.0000     2          
   206  Na    c      2.2539 *    10.6384 *    -3.8767 *  0.0000     2          
   207  O     c      4.5078 *    10.6384 *     0.6311 *  0.0000     2          
   208  O     c      9.0156 *     6.1306 *    -3.8767 *  0.0000     2          
   209  Na    c      9.0156 *    -5.1389 *     5.1389 *  0.0000     2          
   210  Cl    c     11.2695 *    -0.6311 *     2.8850 *  0.0000     2          
   211  Na    c     11.2695 *    -2.8850 *     0.6311 *  0.0000     2          
   212  Cl    c      2.2539 *    -9.6467 *    -6.1306 *  0.0000     2          
   213  Na    c      2.2539 *     6.1306 *     9.6467 *  0.0000     2          
   214  Na    c      4.5078 *     1.6228 *   -10.6384 *  0.0000     2          
   215  Na    c      4.5078 *    10.6384 *    -1.6228 *  0.0000     2          
   216  O     c      9.0156 *    -7.3928 *     0.6311 *  0.0000     2          
   217  Na    c      9.0156 *     1.6228 *     7.3928 *  0.0000     2          
   218  Na    c      9.0156 *    -7.3928 *    -1.6228 *  0.0000     2          
   219  O     c      0.0000      10.6384 *     5.1389 *  0.0000     1          
   220  Na    c      4.5078 *    -9.6467 *     5.1389 *  0.0000     2          
   221  Na    c     -4.5078 *    -5.1389 *     9.6467 *  0.0000     2          
   222  Na    c      0.0000       8.3845 *    -8.3845 *  0.0000     1          
   223  Cl    c      6.7617 *    -9.6467 *    -1.6228 *  0.0000     2          
   224  Na    c      6.7617 *     1.6228 *     9.6467 *  0.0000     2          
   225  Na    c      4.5078 *    10.6384 *     2.8850 *  0.0000     2          
   226  Na    c      4.5078 *    -2.8850 *   -10.6384 *  0.0000     2          
   227  O     c      0.0000     -11.9006 *     0.6311 *  0.0000     1          
   228  O     s      0.0000       1.6228 *     0.6311 *  0.0000     1          
   229  Cl    s      2.2539 *    -0.6311 *    -1.6228 *  0.0000     2          
   230  O     s      0.0000      -2.8850 *     0.6311 *  0.0000     1          
   231  Cl    s      2.2539 *    -0.6311 *     2.8850 *  0.0000     2          
   232  O     s      0.0000       1.6228 *    -3.8767 *  0.0000     1          
   233  Cl    s      2.2539 *     3.8767 *    -1.6228 *  0.0000     2          
   234  O     s     -4.5078 *     1.6228 *     0.6311 *  0.0000     2          
   235  O     s      0.0000      -2.8850 *    -3.8767 *  0.0000     1          
   236  Cl    s      2.2539 *     3.8767 *     2.8850 *  0.0000     2          
   237  O     s      0.0000       1.6228 *     5.1389 *  0.0000     1          
   238  O     s     -4.5078 *    -2.8850 *     0.6311 *  0.0000     2          
   239  Cl    s      2.2539 *    -5.1389 *    -1.6228 *  0.0000     2          
   240  O     s      0.0000      -2.8850 *     5.1389 *  0.0000     1          
   241  O     s     -4.5078 *     1.6228 *    -3.8767 *  0.0000     2          
   242  O     s      0.0000       6.1306 *     0.6311 *  0.0000     1          
   243  Cl    s      2.2539 *    -5.1389 *     2.8850 *  0.0000     2          
   244  Cl    s      2.2539 *    -0.6311 *    -6.1306 *  0.0000     2          
   245  O     s     -4.5078 *    -2.8850 *    -3.8767 *  0.0000     2          
   246  Cl    s      6.7617 *    -0.6311 *    -1.6228 *  0.0000     2          
   247  O     s     -4.5078 *     1.6228 *     5.1389 *  0.0000     2          
   248  O     s      0.0000       6.1306 *    -3.8767 *  0.0000     1          
   249  Cl    s      6.7617 *    -0.6311 *     2.8850 *  0.0000     2          
   250  O     s     -4.5078 *    -2.8850 *     5.1389 *  0.0000     2          
   251  O     s      0.0000      -7.3928 *     0.6311 *  0.0000     1          
   252  Cl    s      2.2539 *     3.8767 *    -6.1306 *  0.0000     2          
   253  O     s     -4.5078 *     6.1306 *     0.6311 *  0.0000     2          
   254  Cl    s      2.2539 *    -0.6311 *     7.3928 *  0.0000     2          
   255  Cl    s      6.7617 *     3.8767 *    -1.6228 *  0.0000     2          
   256  O     s      0.0000       6.1306 *     5.1389 *  0.0000     1          
   257  Cl    s      2.2539 *    -5.1389 *    -6.1306 *  0.0000     2          
   258  Cl    s      6.7617 *     3.8767 *     2.8850 *  0.0000     2          
   259  O     s      0.0000      -7.3928 *    -3.8767 *  0.0000     1          
   260  O     s      0.0000       1.6228 *    -8.3845 *  0.0000     1          
   261  O     s     -4.5078 *     6.1306 *    -3.8767 *  0.0000     2          
   262  Cl    s      2.2539 *     3.8767 *     7.3928 *  0.0000     2          
   263  Cl    s      6.7617 *    -5.1389 *    -1.6228 *  0.0000     2          
   264  O     s     -4.5078 *    -7.3928 *     0.6311 *  0.0000     2          
   265  Cl    s      2.2539 *     8.3845 *    -1.6228 *  0.0000     2          
   266  O     s      0.0000      -2.8850 *    -8.3845 *  0.0000     1          
   267  Cl    s      6.7617 *    -5.1389 *     2.8850 *  0.0000     2          
   268  O     s      0.0000      -7.3928 *     5.1389 *  0.0000     1          
   269  Cl    s      2.2539 *     8.3845 *     2.8850 *  0.0000     2          
   270  Cl    s      6.7617 *    -0.6311 *    -6.1306 *  0.0000     2          
   271  O     s      9.0156 *     1.6228 *     0.6311 *  0.0000     2          
   272  O     s      4.5078 *     6.1306 *     5.1389 *  0.0000     2          
   273  Cl    s      2.2539 *    -5.1389 *     7.3928 *  0.0000     2          
   274  O     s      9.0156 *    -2.8850 *     0.6311 *  0.0000     2          
   275  O     s     -4.5078 *    -7.3928 *    -3.8767 *  0.0000     2          
   276  O     s      4.5078 *     1.6228 *    -8.3845 *  0.0000     2          
   277  O     s      0.0000       1.6228 *     9.6467 *  0.0000     1          
   278  Cl    s      6.7617 *     3.8767 *    -6.1306 *  0.0000     2          
   279  O     s      4.5078 *    -2.8850 *    -8.3845 *  0.0000     2          
   280  O     s      9.0156 *     1.6228 *    -3.8767 *  0.0000     2          
   281  Cl    s      2.2539 *    -9.6467 *    -1.6228 *  0.0000     2          
   282  Cl    s      6.7617 *    -0.6311 *     7.3928 *  0.0000     2          
   283  O     s      0.0000      -2.8850 *     9.6467 *  0.0000     1          
   284  O     s      4.5078 *    -7.3928 *     5.1389 *  0.0000     2          
   285  O     s      9.0156 *    -2.8850 *    -3.8767 *  0.0000     2          
   286  Cl    s      2.2539 *    -9.6467 *     2.8850 *  0.0000     2          
   287  O     s      0.0000       6.1306 *    -8.3845 *  0.0000     1          
   288  Cl    s      6.7617 *    -5.1389 *    -6.1306 *  0.0000     2          
   289  O     s      9.0156 *     1.6228 *     5.1389 *  0.0000     2          
   290  Cl    s      2.2539 *     8.3845 *    -6.1306 *  0.0000     2          
   291  O     s      0.0000      10.6384 *     0.6311 *  0.0000     1          
   292  Cl    s      6.7617 *     3.8767 *     7.3928 *  0.0000     2          
   293  O     s      4.5078 *     1.6228 *     9.6467 *  0.0000     2          
   294  O     s      9.0156 *    -2.8850 *     5.1389 *  0.0000     2          
   295  Cl    s      2.2539 *    -0.6311 *   -10.6384 *  0.0000     2          
   296  Cl    s      6.7617 *     8.3845 *    -1.6228 *  0.0000     2          
   297  O     s      9.0156 *     6.1306 *     0.6311 *  0.0000     2          
   298  O     s      4.5078 *    -2.8850 *     9.6467 *  0.0000     2          
   299  Cl    s      6.7617 *     8.3845 *     2.8850 *  0.0000     2          
   300  O     s      0.0000      -7.3928 *    -8.3845 *  0.0000     1          
   301  Cl    s      6.7617 *    -5.1389 *     7.3928 *  0.0000     2          
   302  O     s      0.0000      10.6384 *    -3.8767 *  0.0000     1          
   303  O     s     -4.5078 *     6.1306 *    -8.3845 *  0.0000     2          
   304  Cl    s     11.2695 *    -0.6311 *    -1.6228 *  0.0000     2          
   305  Cl    s      2.2539 *     8.3845 *     7.3928 *  0.0000     2          
   306  O     s      0.0000       6.1306 *     9.6467 *  0.0000     1          
   307  Cl    s      2.2539 *     3.8767 *   -10.6384 *  0.0000     2          
   308  O     s      4.5078 *    10.6384 *     0.6311 *  0.0000     2          
   309  O     s      9.0156 *     6.1306 *    -3.8767 *  0.0000     2          
   310  Cl    s     11.2695 *    -0.6311 *     2.8850 *  0.0000     2          
   311  Cl    s      2.2539 *    -9.6467 *    -6.1306 *  0.0000     2          
   312  O     s      9.0156 *    -7.3928 *     0.6311 *  0.0000     2          
   313  O     s      0.0000      10.6384 *     5.1389 *  0.0000     1          
   314  Cl    s      6.7617 *    -9.6467 *    -1.6228 *  0.0000     2          
   315  O     s      0.0000     -11.9006 *     0.6311 *  0.0000     1          
--------------------------------------------------------------------------------

  Components of defect energy : 

--------------------------------------------------------------------------------
  Region 1 - region 1                   =     -0.36851307 eV
  Region 1 - region 2a (unrelaxed)      =      9.66470766 eV
  Region 1 - 2a (relaxed - correction)  =     -0.29498594 eV
  Region 1 (Total)                      =      9.00120865 eV
  Region 2a                             =      0.14741046 eV
  Region 2b                             =     -0.43009364 eV
--------------------------------------------------------------------------------
  Total defect energy                   =      8.71852547 eV
--------------------------------------------------------------------------------

  Largest displacement in region 2 =   0.0212 Angstroms


  Number of variables =      856

  Maximum number of calculations  =        1000
  Maximum Hessian update interval =          10
  Maximum step size               =   1.0000000
  Maximum parameter tolerance     =   0.0000100
  Maximum function  tolerance     =   0.0000100
  Maximum gradient  tolerance     =   0.0010000

  Symmetry adapted optimisation

  Symmetry to be used for second derivatives

  Newton-Raphson optimiser to be used

  BFGS hessian update to be used

  Lower half triangular hessian to be used

  Start of defect optimisation :

  Cycle:      0 Defect Energy:   8.718525  Gnorm:     0.020116  CPU:    2.387
  ** Hessian calculated **
  Cycle:      1 Defect Energy:   7.151928  Gnorm:     0.009277  CPU:    6.375
  Cycle:      2 Defect Energy:   6.672276  Gnorm:     0.008426  CPU:   10.003
  Cycle:      3 Defect Energy:   6.523812  Gnorm:     0.006806  CPU:   12.930
  Cycle:      4 Defect Energy:   6.301719  Gnorm:     0.007264  CPU:   17.265
  Cycle:      5 Defect Energy:   6.107751  Gnorm:     0.005440  CPU:   20.883
  Cycle:      6 Defect Energy:   5.887445  Gnorm:     0.006830  CPU:   24.517
  Cycle:      7 Defect Energy:   5.646745  Gnorm:     0.006406  CPU:   28.181
  Cycle:      8 Defect Energy:   5.466467  Gnorm:     0.003936  CPU:   31.135
  Cycle:      9 Defect Energy:   5.412001  Gnorm:     0.003303  CPU:   31.964
  Cycle:     10 Defect Energy:   5.348645  Gnorm:     0.003013  CPU:   32.756
  ** Hessian calculated **
  Cycle:     11 Defect Energy:   5.331806  Gnorm:     0.002836  CPU:   34.889
  Cycle:     12 Defect Energy:   5.310098  Gnorm:     0.002767  CPU:   35.720
  Cycle:     13 Defect Energy:   5.280800  Gnorm:     0.002694  CPU:   36.532
  Cycle:     14 Defect Energy:   5.243561  Gnorm:     0.002604  CPU:   37.358
  Cycle:     15 Defect Energy:   5.207393  Gnorm:     0.002481  CPU:   38.180
  Cycle:     16 Defect Energy:   5.180472  Gnorm:     0.002359  CPU:   38.992
  Cycle:     17 Defect Energy:   5.158093  Gnorm:     0.002244  CPU:   39.877
  Cycle:     18 Defect Energy:   5.134761  Gnorm:     0.002156  CPU:   40.736
  Cycle:     19 Defect Energy:   5.109068  Gnorm:     0.001992  CPU:   41.557
  Cycle:     20 Defect Energy:   5.082931  Gnorm:     0.001872  CPU:   42.391
  ** Hessian calculated **
  Cycle:     21 Defect Energy:   5.036661  Gnorm:     0.001710  CPU:   44.505
  Cycle:     22 Defect Energy:   4.986994  Gnorm:     0.001504  CPU:   45.310
  Cycle:     23 Defect Energy:   4.972187  Gnorm:     0.001397  CPU:   46.140
  ** Hessian calculated **
  Cycle:     24 Defect Energy:   4.967497  Gnorm:     0.001319  CPU:   48.287
  Cycle:     25 Defect Energy:   4.961907  Gnorm:     0.001290  CPU:   49.116
  Cycle:     26 Defect Energy:   4.954447  Gnorm:     0.001265  CPU:   49.937
  Cycle:     27 Defect Energy:   4.944937  Gnorm:     0.001252  CPU:   50.759
  Cycle:     28 Defect Energy:   4.933318  Gnorm:     0.001230  CPU:   51.586
  Cycle:     29 Defect Energy:   4.925073  Gnorm:     0.001223  CPU:   52.415
  Cycle:     30 Defect Energy:   4.918220  Gnorm:     0.001218  CPU:   53.227
  Cycle:     31 Defect Energy:   4.910878  Gnorm:     0.001206  CPU:   54.041
  Cycle:     32 Defect Energy:   4.902465  Gnorm:     0.001198  CPU:   54.852
  Cycle:     33 Defect Energy:   4.891579  Gnorm:     0.001181  CPU:   55.662
  ** Hessian calculated **
  Cycle:     34 Defect Energy:   4.874080  Gnorm:     0.001069  CPU:   57.749
  Cycle:     35 Defect Energy:   4.849910  Gnorm:     0.000909  CPU:   58.569
  Cycle:     36 Defect Energy:   4.822279  Gnorm:     0.000686  CPU:   59.387
  Cycle:     37 Defect Energy:   4.800369  Gnorm:     0.000745  CPU:   60.218
  ** Hessian calculated **
  Cycle:     38 Defect Energy:   4.784671  Gnorm:     0.000539  CPU:   62.308
  ** Hessian calculated **
  Cycle:     39 Defect Energy:   4.777855  Gnorm:     0.000391  CPU:   64.394
  Cycle:     40 Defect Energy:   4.773674  Gnorm:     0.000292  CPU:   65.198
  Cycle:     41 Defect Energy:   4.771419  Gnorm:     0.000217  CPU:   66.002
  ** Hessian calculated **
  Cycle:     42 Defect Energy:   4.769148  Gnorm:     0.000153  CPU:   68.157
  Cycle:     43 Defect Energy:   4.767857  Gnorm:     0.000109  CPU:   68.977
  Cycle:     44 Defect Energy:   4.766869  Gnorm:     0.000082  CPU:   69.801
  Cycle:     45 Defect Energy:   4.765778  Gnorm:     0.000092  CPU:   70.620
  Cycle:     46 Defect Energy:   4.764167  Gnorm:     0.000159  CPU:   71.436
  Cycle:     47 Defect Energy:   4.763554  Gnorm:     0.000129  CPU:   72.245
  Cycle:     48 Defect Energy:   4.762856  Gnorm:     0.000173  CPU:   73.058
  Cycle:     49 Defect Energy:   4.762157  Gnorm:     0.000171  CPU:   73.870
  Cycle:     50 Defect Energy:   4.760986  Gnorm:     0.000157  CPU:   74.680
  Cycle:     51 Defect Energy:   4.759657  Gnorm:     0.000127  CPU:   75.498
  ** Hessian calculated **
  Cycle:     52 Defect Energy:   4.758496  Gnorm:     0.000122  CPU:   77.620
  Cycle:     53 Defect Energy:   4.756731  Gnorm:     0.000095  CPU:   78.431
  Cycle:     54 Defect Energy:   4.755990  Gnorm:     0.000067  CPU:   79.251
  Cycle:     55 Defect Energy:   4.755695  Gnorm:     0.000043  CPU:   80.052
  Cycle:     56 Defect Energy:   4.755562  Gnorm:     0.000031  CPU:   80.872
  Cycle:     57 Defect Energy:   4.755483  Gnorm:     0.000020  CPU:   81.670
  Cycle:     58 Defect Energy:   4.755431  Gnorm:     0.000016  CPU:   82.501
  Cycle:     59 Defect Energy:   4.755402  Gnorm:     0.000009  CPU:   83.329
  Cycle:     60 Defect Energy:   4.755382  Gnorm:     0.000007  CPU:   84.179
  Cycle:     61 Defect Energy:   4.755371  Gnorm:     0.000005  CPU:   85.026
  ** Hessian calculated **


  **** Optimisation achieved ****


  Final defect energy  =        4.75536385
  Final defect Gnorm   =        0.00000319

  Components of defect energy : 

--------------------------------------------------------------------------------
  Region 1 - region 1                   =     -2.97780014 eV
  Region 1 - region 2a (unrelaxed)      =      8.27567717 eV
  Region 1 - 2a (relaxed - correction)  =     -0.22451845 eV
  Region 1 (Total)                      =      5.07335858 eV
  Region 2a                             =      0.11220302 eV
  Region 2b                             =     -0.43019775 eV
--------------------------------------------------------------------------------
  Total defect energy                   =      4.75536385 eV
--------------------------------------------------------------------------------

  Largest displacement in region 2 =   0.0212 Angstroms

  Final coordinates of region 1 :

--------------------------------------------------------------------------------
   No.  Atomic        x           y           z          Radius      Charge
        Label       (Angs)      (Angs)      (Angs)       (Angs)       (e) 
--------------------------------------------------------------------------------
     1  Na    c     2.253894    1.622803    0.631090    0.000000    1.000000
     2  O     c     2.253894    2.393917    2.615072    0.000000    0.183000
     3  Cl    c     4.602980    0.002294   -0.077877    0.000000    1.485000
     4  Cl    c    -0.095193    0.002294   -0.077877    0.000000    1.485000
     5  Na    c     4.485385    2.157735    2.692531    0.000000    1.000000
     6  Na    c     0.022402    2.157735    2.692531    0.000000    1.000000
     7  O     c     2.253894   -2.381161    2.314036    0.000000    0.183000
     8  Na    c     2.253894    1.559230    4.624548    0.000000    1.000000
     9  Na    c     2.253894   -2.544515    0.090693    0.000000    1.000000
    10  Na    c     4.390452   -1.743324    2.203785    0.000000    1.000000
    11  Na    c     0.117335   -1.743324    2.203785    0.000000    1.000000
    12  Cl    c     4.633803   -0.029007    4.666480    0.000000    1.485000
    13  Cl    c    -0.126016   -0.029007    4.666480    0.000000    1.485000
    14  Na    c     2.253894    4.576043    2.547182    0.000000    1.000000
    15  Na    c     2.253894   -0.030500   -2.010106    0.000000    1.000000
    16  Na    c     2.253894   -1.861012    4.491208    0.000000    1.000000
    17  O     c     2.253894    2.188404   -2.094939    0.000000    0.183000
    18  Na    c    -2.504590    0.013215    2.287814    0.000000    1.000000
    19  Na    c     7.012377    0.013215    2.287814    0.000000    1.000000
    20  Cl    c     4.633591    4.640499   -0.007875    0.000000    1.485000
    21  Cl    c    -0.125804    4.640499   -0.007875    0.000000    1.485000
    22  Na    c     4.483260    2.174981   -2.183502    0.000000    1.000000
    23  Na    c     0.024527    2.174981   -2.183502    0.000000    1.000000
    24  O     c    -2.241246    2.277318    2.301380    0.000000    0.183000
    25  O     c     6.749033    2.277318    2.301380    0.000000    0.183000
    26  O     c     2.253894   -2.276393   -2.202116    0.000000    0.183000
    27  Na    c    -1.968098    2.255531    0.061682    0.000000    1.000000
    28  Na    c     6.475885    2.255531    0.061682    0.000000    1.000000
    29  Na    c     2.253894   -0.011668    7.323124    0.000000    1.000000
    30  Na    c     2.253894   -4.547403    2.671482    0.000000    1.000000
    31  Cl    c     4.681185    4.600838    4.596630    0.000000    1.485000
    32  Cl    c    -0.173398    4.600838    4.596630    0.000000    1.485000
    33  Na    c     4.505432   -2.213242   -2.153633    0.000000    1.000000
    34  Na    c     0.002355   -2.213242   -2.153633    0.000000    1.000000
    35  O     c     2.253894    2.207085    6.801165    0.000000    0.183000
    36  O     c    -2.182257   -2.240408    2.264113    0.000000    0.183000
    37  O     c     6.690044   -2.240408    2.264113    0.000000    0.183000
    38  Na    c     2.253894    4.397012   -1.748879    0.000000    1.000000
    39  Na    c    -2.521623    2.372873    4.541112    0.000000    1.000000
    40  Na    c     7.029410    2.372873    4.541112    0.000000    1.000000
    41  Na    c    -2.284479   -2.334328    0.012461    0.000000    1.000000
    42  Na    c     6.792267   -2.334328    0.012461    0.000000    1.000000
    43  Na    c     4.521123    2.191963    6.673908    0.000000    1.000000
    44  Na    c    -0.013335    2.191963    6.673908    0.000000    1.000000
    45  Cl    c     4.577051   -4.584889   -0.120173    0.000000    1.485000
    46  Cl    c    -0.069263   -4.584889   -0.120173    0.000000    1.485000
    47  O     c     2.253894   -2.223682    6.784984    0.000000    0.183000
    48  Na    c    -2.009118    4.524563    2.219913    0.000000    1.000000
    49  Na    c     6.516905    4.524563    2.219913    0.000000    1.000000
    50  Na    c    -2.330509   -0.005022   -2.079003    0.000000    1.000000
    51  Na    c     6.838297   -0.005022   -2.079003    0.000000    1.000000
    52  Na    c    -2.082965   -2.314405    4.509342    0.000000    1.000000
    53  Na    c     6.590752   -2.314405    4.509342    0.000000    1.000000
    54  O     c    -2.247476    2.246131   -2.195320    0.000000    0.183000
    55  O     c     6.755263    2.246131   -2.195320    0.000000    0.183000
    56  O     c     2.253894    6.834608    2.308444    0.000000    0.183000
    57  Na    c     4.506118   -2.178249    6.792113    0.000000    1.000000
    58  Na    c     0.001669   -2.178249    6.792113    0.000000    1.000000
    59  Cl    c     4.578444   -4.593551    4.634264    0.000000    1.485000
    60  Cl    c    -0.070656   -4.593551    4.634264    0.000000    1.485000
    61  Na    c     2.253894    2.297249   -4.391580    0.000000    1.000000
    62  Na    c     2.253894    6.770608    0.052874    0.000000    1.000000
    63  Na    c     2.253894    4.455992    6.298045    0.000000    1.000000
    64  Na    c     2.253894   -4.510209   -2.522032    0.000000    1.000000
    65  Cl    c     4.499151   -0.006844   -4.515638    0.000000    1.485000
    66  Cl    c     0.008637   -0.006844   -4.515638    0.000000    1.485000
    67  Na    c     4.515049    6.880333    2.333836    0.000000    1.000000
    68  Na    c    -0.007262    6.880333    2.333836    0.000000    1.000000
    69  O     c    -2.255118   -2.255922   -2.257047    0.000000    0.183000
    70  O     c     6.762905   -2.255922   -2.257047    0.000000    0.183000
    71  Na    c     2.253894   -2.030139   -4.465761    0.000000    1.000000
    72  Na    c     2.253894    7.157192    4.526959    0.000000    1.000000
    73  Na    c    -2.356121    0.005528    6.614547    0.000000    1.000000
    74  Na    c     6.863908    0.005528    6.614547    0.000000    1.000000
    75  Na    c    -1.759620   -4.468980    2.260736    0.000000    1.000000
    76  Na    c     6.267407   -4.468980    2.260736    0.000000    1.000000
    77  Cl    c     9.014228    0.025646    0.009034    0.000000    1.485000
    78  Cl    c    -4.506440    0.025646    0.009034    0.000000    1.485000
    79  Na    c     8.995242    2.508466    2.035195    0.000000    1.000000
    80  Na    c    -4.487454    2.508466    2.035195    0.000000    1.000000
    81  O     c    -2.278796    2.262234    6.789777    0.000000    0.183000
    82  O     c     6.786583    2.262234    6.789777    0.000000    0.183000
    83  Na    c    -2.236638    4.500729   -2.234009    0.000000    1.000000
    84  Na    c     6.744425    4.500729   -2.234009    0.000000    1.000000
    85  O     c     2.253894    6.676187   -2.203088    0.000000    0.183000
    86  Na    c     2.253894   -4.487070    6.428791    0.000000    1.000000
    87  Cl    c     9.042471   -0.010855    4.539454    0.000000    1.485000
    88  Cl    c    -4.534683   -0.010855    4.539454    0.000000    1.485000
    89  Na    c     8.953966   -2.559560    2.355317    0.000000    1.000000
    90  Na    c    -4.446179   -2.559560    2.355317    0.000000    1.000000
    91  O     c    -2.259822   -2.251736    6.765065    0.000000    0.183000
    92  O     c     6.767609   -2.251736    6.765065    0.000000    0.183000
    93  O     c     2.253894   -6.798460    2.259561    0.000000    0.183000
    94  Na    c     2.253894    2.632257    9.011861    0.000000    1.000000
    95  Na    c     2.253894   -6.408491    0.019330    0.000000    1.000000
    96  Cl    c     4.549355    4.514186   -4.549504    0.000000    1.485000
    97  Cl    c    -0.041567    4.514186   -4.549504    0.000000    1.485000
    98  Na    c     4.502410    6.660869   -2.270409    0.000000    1.000000
    99  Na    c     0.005377    6.660869   -2.270409    0.000000    1.000000
   100  O     c    -2.264625    6.766222    2.265375    0.000000    0.183000
   101  O     c     6.772412    6.766222    2.265375    0.000000    0.183000
   102  Cl    c     4.555056   -0.010461    9.089564    0.000000    1.485000
   103  Cl    c    -0.047269   -0.010461    9.089564    0.000000    1.485000
   104  Na    c     4.499475   -6.975632    2.184722    0.000000    1.000000
   105  Na    c     0.008313   -6.975632    2.184722    0.000000    1.000000
   106  Na    c    -2.333757    2.159381   -4.460302    0.000000    1.000000
   107  Na    c     6.841544    2.159381   -4.460302    0.000000    1.000000
   108  Na    c    -2.151976    6.783262    0.001714    0.000000    1.000000
   109  Na    c     6.659763    6.783262    0.001714    0.000000    1.000000
   110  Na    c    -2.142875    4.508220    6.867699    0.000000    1.000000
   111  Na    c     6.650662    4.508220    6.867699    0.000000    1.000000
   112  Na    c    -2.124676   -4.503898   -2.420850    0.000000    1.000000
   113  Na    c     6.632464   -4.503898   -2.420850    0.000000    1.000000
   114  Na    c     2.253894   -2.639290    9.014827    0.000000    1.000000
   115  Na    c     2.253894   -7.083684    4.506335    0.000000    1.000000
   116  Cl    c     9.067597    4.543029   -0.020902    0.000000    1.485000
   117  Cl    c    -4.559810    4.543029   -0.020902    0.000000    1.485000
   118  Na    c     9.007123    2.291590   -2.024622    0.000000    1.000000
   119  Na    c    -4.499336    2.291590   -2.024622    0.000000    1.000000
   120  O     c     2.253894    6.735320    6.734494    0.000000    0.183000
   121  Na    c    -2.173733   -2.028352   -4.502542    0.000000    1.000000
   122  Na    c     6.681520   -2.028352   -4.502542    0.000000    1.000000
   123  Na    c     6.869318    6.644945    4.522038    0.000000    1.000000
   124  Na    c    -2.361531    6.644945    4.522038    0.000000    1.000000
   125  Cl    c     4.516519   -4.534010   -4.538852    0.000000    1.485000
   126  Cl    c    -0.008732   -4.534010   -4.538852    0.000000    1.485000
   127  Cl    c     9.084972    4.521702    4.527360    0.000000    1.485000
   128  Cl    c    -4.577185    4.521702    4.527360    0.000000    1.485000
   129  Na    c     4.511675    6.734745    6.680759    0.000000    1.000000
   130  Na    c    -0.003888    6.734745    6.680759    0.000000    1.000000
   131  Na    c     9.006596   -2.370662   -2.351128    0.000000    1.000000
   132  Na    c    -4.498808   -2.370662   -2.351128    0.000000    1.000000
   133  O     c     2.253894   -6.759493   -2.233900    0.000000    0.183000
   134  Na    c     2.253894    0.007003   -6.763667    0.000000    1.000000
   135  Na    c     2.253894    9.063479    2.065599    0.000000    1.000000
   136  O     c     2.253894    2.253733   -6.702110    0.000000    0.183000
   137  O     c    -2.254736    6.766799   -2.257027    0.000000    0.183000
   138  O     c     6.762523    6.766799   -2.257027    0.000000    0.183000
   139  Na    c     6.707354   -4.503142    6.841632    0.000000    1.000000
   140  Na    c    -2.199567   -4.503142    6.841632    0.000000    1.000000
   141  Cl    c     4.537868    4.529158    9.080572    0.000000    1.485000
   142  Cl    c    -0.030080    4.529158    9.080572    0.000000    1.485000
   143  Cl    c     9.071871   -4.507075   -0.006829    0.000000    1.485000
   144  Cl    c    -4.564084   -4.507075   -0.006829    0.000000    1.485000
   145  Na    c     4.508015   -6.782678   -2.130318    0.000000    1.000000
   146  Na    c    -0.000228   -6.782678   -2.130318    0.000000    1.000000
   147  Na    c     9.024495    2.364630    6.986269    0.000000    1.000000
   148  Na    c    -4.516707    2.364630    6.986269    0.000000    1.000000
   149  Na    c     2.253894    6.453647   -4.461666    0.000000    1.000000
   150  O     c    -2.230417   -6.713142    2.243770    0.000000    0.183000
   151  O     c     6.738204   -6.713142    2.243770    0.000000    0.183000
   152  Na    c    -2.379075   -6.576108   -0.009221    0.000000    1.000000
   153  Na    c     6.886863   -6.576108   -0.009221    0.000000    1.000000
   154  Na    c     6.654123    2.116026    9.028642    0.000000    1.000000
   155  Na    c    -2.146335    2.116026    9.028642    0.000000    1.000000
   156  Cl    c     4.478033    9.037977    0.033355    0.000000    1.485000
   157  Cl    c     0.029754    9.037977    0.033355    0.000000    1.485000
   158  Na    c     4.506318    2.248134   -6.608548    0.000000    1.000000
   159  Na    c     0.001469    2.248134   -6.608548    0.000000    1.000000
   160  O     c     2.253894   -2.250429   -6.729550    0.000000    0.183000
   161  Cl    c     9.069376   -4.517631    4.555254    0.000000    1.485000
   162  Cl    c    -4.561589   -4.517631    4.555254    0.000000    1.485000
   163  Na    c     9.014690   -2.338563    6.672138    0.000000    1.000000
   164  Na    c    -4.506903   -2.338563    6.672138    0.000000    1.000000
   165  O     c     2.253894   -6.756776    6.743281    0.000000    0.183000
   166  Na    c    10.978555    0.000454    2.188661    0.000000    1.000000
   167  Na    c    -6.470767    0.000454    2.188661    0.000000    1.000000
   168  Na    c     6.811560   -2.137175    9.011197    0.000000    1.000000
   169  Na    c    -2.303773   -2.137175    9.011197    0.000000    1.000000
   170  Na    c     6.703010   -6.686543    4.508809    0.000000    1.000000
   171  Na    c    -2.195223   -6.686543    4.508809    0.000000    1.000000
   172  Cl    c     4.505389    9.050170    4.529872    0.000000    1.485000
   173  Cl    c     0.002399    9.050170    4.529872    0.000000    1.485000
   174  Cl    c     9.037527   -0.030706   -4.516213    0.000000    1.485000
   175  Cl    c    -4.529740   -0.030706   -4.516213    0.000000    1.485000
   176  Na    c     4.502899   -2.301578   -6.755002    0.000000    1.000000
   177  Na    c     0.004889   -2.301578   -6.755002    0.000000    1.000000
   178  Na    c     9.019789    6.631533    2.133317    0.000000    1.000000
   179  Na    c    -4.512002    6.631533    2.133317    0.000000    1.000000
   180  O     c    11.240934    2.252069    2.263273    0.000000    0.183000
   181  O     c    -6.733147    2.252069    2.263273    0.000000    0.183000
   182  O     c     6.773288    6.761253    6.783245    0.000000    0.183000
   183  O     c    -2.265501    6.761253    6.783245    0.000000    0.183000
   184  Na    c     2.253894    4.487910   -6.836162    0.000000    1.000000
   185  Na    c     2.253894    8.960495   -2.301669    0.000000    1.000000
   186  Cl    c     4.505690   -4.523607    9.065718    0.000000    1.485000
   187  Cl    c     0.002097   -4.523607    9.065718    0.000000    1.485000
   188  Na    c     4.503037   -6.719691    6.754444    0.000000    1.000000
   189  Na    c     0.004751   -6.719691    6.754444    0.000000    1.000000
   190  Na    c    11.431300    2.334855    0.020001    0.000000    1.000000
   191  Na    c    -6.923513    2.334855    0.020001    0.000000    1.000000
   192  O     c    11.225716   -2.250591    2.252974    0.000000    0.183000
   193  O     c    -6.717929   -2.250591    2.252974    0.000000    0.183000
   194  O     c    -2.258787   -6.762467   -2.263651    0.000000    0.183000
   195  O     c     6.766575   -6.762467   -2.263651    0.000000    0.183000
   196  Na    c    -2.359233    9.010570    2.305101    0.000000    1.000000
   197  Na    c     6.867020    9.010570    2.305101    0.000000    1.000000
   198  Na    c     6.733479    0.006408   -6.901099    0.000000    1.000000
   199  Na    c    -2.225691    0.006408   -6.901099    0.000000    1.000000
   200  Na    c     2.253894    6.514036    8.991094    0.000000    1.000000
   201  Na    c     2.253894   -6.940638   -4.489912    0.000000    1.000000
   202  Na    c    11.095305    2.137829    4.519289    0.000000    1.000000
   203  Na    c    -6.587518    2.137829    4.519289    0.000000    1.000000
   204  Na    c    11.148995   -2.257394    0.001293    0.000000    1.000000
   205  Na    c    -6.641208   -2.257394    0.001293    0.000000    1.000000
   206  O     c     6.760516    2.250131   -6.740263    0.000000    0.183000
   207  O     c    -2.252729    2.250131   -6.740263    0.000000    0.183000
   208  Na    c     2.253894   -0.001704   11.120301    0.000000    1.000000
   209  Na    c     2.253894   -9.044968    2.052107    0.000000    1.000000
   210  Na    c     6.802424    6.763960   -4.502335    0.000000    1.000000
   211  Na    c    -2.294637    6.763960   -4.502335    0.000000    1.000000
   212  O     c     2.253894    2.277799   11.263945    0.000000    0.183000
   213  Na    c    11.402268    4.498947    2.414076    0.000000    1.000000
   214  Na    c    -6.894481    4.498947    2.414076    0.000000    1.000000
   215  Na    c     2.253894    8.996088    6.993611    0.000000    1.000000
   216  Na    c     2.253894   -4.508296   -6.602740    0.000000    1.000000
   217  Na    c    11.203785    0.000552   -2.233599    0.000000    1.000000
   218  Na    c    -6.695998    0.000552   -2.233599    0.000000    1.000000
   219  Na    c    11.302876   -2.185547    4.502079    0.000000    1.000000
   220  Na    c    -6.795089   -2.185547    4.502079    0.000000    1.000000
   221  Cl    c     9.045237    4.524124   -4.518762    0.000000    1.485000
   222  Cl    c    -4.537450    4.524124   -4.518762    0.000000    1.485000
   223  Na    c     9.014635    6.773284   -2.196541    0.000000    1.000000
   224  Na    c    -4.506848    6.773284   -2.196541    0.000000    1.000000
   225  O     c     6.757476   -2.244580   -6.752113    0.000000    0.183000
   226  O     c    -2.249689   -2.244580   -6.752113    0.000000    0.183000
   227  O     c    11.266183    2.257522   -2.228968    0.000000    0.183000
   228  O     c    -6.758396    2.257522   -2.228968    0.000000    0.183000
   229  Cl    c     4.474118   -9.087226    0.010398    0.000000    1.485000
   230  Cl    c     0.033669   -9.087226    0.010398    0.000000    1.485000
   231  Na    c     4.500399    2.214484   11.275779    0.000000    1.000000
   232  Na    c     0.007389    2.214484   11.275779    0.000000    1.000000
   233  Cl    c     9.031313    0.028700    9.047007    0.000000    1.485000
   234  Cl    c    -4.523526    0.028700    9.047007    0.000000    1.485000
   235  Na    c     8.998548   -6.526803    2.344729    0.000000    1.000000
   236  Na    c    -4.490760   -6.526803    2.344729    0.000000    1.000000
   237  O     c     2.253894   -2.276864   11.255468    0.000000    0.183000
   238  O     c     6.761827   -6.759419    6.771888    0.000000    0.183000
   239  O     c    -2.254040   -6.759419    6.771888    0.000000    0.183000
   240  O     c    11.265013   -2.258051   -2.251544    0.000000    0.183000
   241  O     c    -6.757226   -2.258051   -2.251544    0.000000    0.183000
   242  Na    c     6.737294    4.506308   -6.675521    0.000000    1.000000
   243  Na    c    -2.229507    4.506308   -6.675521    0.000000    1.000000
   244  Na    c    -2.241682    9.012770   -2.284774    0.000000    1.000000
   245  Na    c     6.749469    9.012770   -2.284774    0.000000    1.000000
   246  Cl    c     4.517578   -9.029160    4.502416    0.000000    1.485000
   247  Cl    c    -0.009791   -9.029160    4.502416    0.000000    1.485000
[...]
    235 y         -2.253894     -2.276363    -0.022470    Cartesian    1.00
    235 z         -2.253894     -2.202157     0.051737    Cartesian   -2.30
    236 x          4.507787      4.691420     0.183633    Cartesian    4.07
    236 y          4.507787      4.608310     0.100523    Cartesian    2.23
    236 z          4.507787      4.604339     0.096552    Cartesian    2.14
    237 x          2.253894      2.253894     0.000000    Cartesian    0.00
    237 y          2.253894      2.207021    -0.046873    Cartesian   -2.08
    237 z          6.761681      6.801165     0.039485    Cartesian    0.58
    238 x         -2.253894     -2.182310     0.071584    Cartesian   -3.18
    238 y         -2.253894     -2.240434     0.013459    Cartesian   -0.60
    238 z          2.253894      2.264133     0.010239    Cartesian    0.45
    239 x          4.507787      4.584393     0.076606    Cartesian    1.70
    239 y         -4.507787     -4.595989    -0.088202    Cartesian    1.96
    239 z          0.000000     -0.125128    -0.125128    Cartesian *******
    240 x          2.253894      2.253894     0.000000    Cartesian    0.00
    240 y         -2.253894     -2.223675     0.030219    Cartesian   -1.34
    240 z          6.761681      6.785078     0.023397    Cartesian    0.35
    241 x         -2.253894     -2.247475     0.006419    Cartesian   -0.28
    241 y          2.253894      2.246116    -0.007778    Cartesian   -0.35
    241 z         -2.253894     -2.195285     0.058609    Cartesian   -2.60
    242 x          2.253894      2.253894     0.000000    Cartesian    0.00
    242 y          6.761681      6.834708     0.073027    Cartesian    1.08
    242 z          2.253894      2.308462     0.054569    Cartesian    2.42
    243 x          4.507787      4.588740     0.080952    Cartesian    1.80
    243 y         -4.507787     -4.601326    -0.093538    Cartesian    2.08
    243 z          4.507787      4.639708     0.131921    Cartesian    2.93
    244 x          4.507787      4.499886    -0.007901    Cartesian   -0.18
    244 y          0.000000     -0.012637    -0.012637    Cartesian    0.00
    244 z         -4.507787     -4.521001    -0.013214    Cartesian    0.29
    245 x         -2.253894     -2.255114    -0.001220    Cartesian    0.05
    245 y         -2.253894     -2.255911    -0.002017    Cartesian    0.09
    245 z         -2.253894     -2.257058    -0.003164    Cartesian    0.14
    246 x          9.015574      9.016465     0.000891    Cartesian    0.01
    246 y          0.000000      0.029209     0.029209    Cartesian    0.00
    246 z          0.000000      0.011334     0.011334    Cartesian *******
    247 x         -2.253894     -2.278827    -0.024933    Cartesian    1.11
    247 y          2.253894      2.262251     0.008357    Cartesian    0.37
    247 z          6.761681      6.789800     0.028119    Cartesian    0.42
    248 x          2.253894      2.253894     0.000000    Cartesian    0.00
    248 y          6.761681      6.676208    -0.085473    Cartesian   -1.26
    248 z         -2.253894     -2.203050     0.050844    Cartesian   -2.26
    249 x          9.015574      9.045440     0.029865    Cartesian    0.33
    249 y          0.000000     -0.006327    -0.006327    Cartesian    0.00
    249 z          4.507787      4.539989     0.032202    Cartesian    0.71
    250 x         -2.253894     -2.259821    -0.005927    Cartesian    0.26
    250 y         -2.253894     -2.251743     0.002150    Cartesian   -0.10
    250 z          6.761681      6.765060     0.003379    Cartesian    0.05
    251 x          2.253894      2.253894     0.000000    Cartesian    0.00
    251 y         -6.761681     -6.798550    -0.036869    Cartesian    0.55
    251 z          2.253894      2.259575     0.005682    Cartesian    0.25
    252 x          4.507787      4.550203     0.042416    Cartesian    0.94
    252 y          4.507787      4.520377     0.012590    Cartesian    0.28
    252 z         -4.507787     -4.558658    -0.050871    Cartesian    1.13
    253 x         -2.253894     -2.264602    -0.010709    Cartesian    0.48
    253 y          6.761681      6.766216     0.004535    Cartesian    0.07
    253 z          2.253894      2.265368     0.011474    Cartesian    0.51
    254 x          4.507787      4.552826     0.045039    Cartesian    1.00
    254 y          0.000000     -0.009950    -0.009950    Cartesian    0.00
    254 z          9.015574      9.091278     0.075704    Cartesian    0.84
    255 x          9.015574      9.072961     0.057386    Cartesian    0.64
    255 y          4.507787      4.539349     0.031562    Cartesian    0.70
    255 z          0.000000     -0.016949    -0.016949    Cartesian *******
    256 x          2.253894      2.253894     0.000000    Cartesian    0.00
    256 y          6.761681      6.735413    -0.026268    Cartesian   -0.39
    256 z          6.761681      6.734437    -0.027244    Cartesian   -0.40
    257 x          4.507787      4.518522     0.010735    Cartesian    0.24
    257 y         -4.507787     -4.536847    -0.029060    Cartesian    0.64
    257 z         -4.507787     -4.539967    -0.032180    Cartesian    0.71
    258 x          9.015574      9.087437     0.071862    Cartesian    0.80
    258 y          4.507787      4.519762     0.011975    Cartesian    0.27
    258 z          4.507787      4.528368     0.020581    Cartesian    0.46
    259 x          2.253894      2.253894     0.000000    Cartesian    0.00
    259 y         -6.761681     -6.759496     0.002185    Cartesian   -0.03
    259 z         -2.253894     -2.233910     0.019983    Cartesian   -0.89
    260 x          2.253894      2.253894     0.000000    Cartesian    0.00
    260 y          2.253894      2.253745    -0.000149    Cartesian   -0.01
    260 z         -6.761681     -6.702140     0.059541    Cartesian   -0.88
    261 x         -2.253894     -2.254732    -0.000839    Cartesian    0.04
    261 y          6.761681      6.766811     0.005130    Cartesian    0.08
    261 z         -2.253894     -2.257041    -0.003147    Cartesian    0.14
    262 x          4.507787      4.536774     0.028987    Cartesian    0.64
    262 y          4.507787      4.530669     0.022881    Cartesian    0.51
    262 z          9.015574      9.086288     0.070713    Cartesian    0.78
    263 x          9.015574      9.076045     0.060471    Cartesian    0.67
    263 y         -4.507787     -4.508336    -0.000549    Cartesian    0.01
    263 z          0.000000     -0.004309    -0.004309    Cartesian *******
    264 x         -2.253894     -2.230371     0.023523    Cartesian   -1.04
    264 y         -6.761681     -6.713153     0.048527    Cartesian   -0.72
    264 z          2.253894      2.243774    -0.010119    Cartesian   -0.45
    265 x          4.507787      4.473056    -0.034731    Cartesian   -0.77
    265 y          9.015574      9.039292     0.023718    Cartesian    0.26
    265 z          0.000000      0.039965     0.039965    Cartesian *******
    266 x          2.253894      2.253894     0.000000    Cartesian    0.00
    266 y         -2.253894     -2.250413     0.003481    Cartesian   -0.15
    266 z         -6.761681     -6.729555     0.032126    Cartesian   -0.48
    267 x          9.015574      9.075455     0.059881    Cartesian    0.66
    267 y         -4.507787     -4.517013    -0.009226    Cartesian    0.20
    267 z          4.507787      4.552938     0.045151    Cartesian    1.00
    268 x          2.253894      2.253894     0.000000    Cartesian    0.00
    268 y         -6.761681     -6.756837     0.004844    Cartesian   -0.07
    268 z          6.761681      6.743263    -0.018418    Cartesian   -0.27
    269 x          4.507787      4.498002    -0.009785    Cartesian   -0.22
    269 y          9.015574      9.046789     0.031214    Cartesian    0.35
    269 z          4.507787      4.529831     0.022044    Cartesian    0.49
    270 x          9.015574      9.039262     0.023688    Cartesian    0.26
    270 y          0.000000     -0.034707    -0.034707    Cartesian    0.00
    270 z         -4.507787     -4.518644    -0.010856    Cartesian    0.24
    271 x         11.269468     11.240933    -0.028535    Cartesian   -0.25
    271 y          2.253894      2.252098    -0.001796    Cartesian   -0.08
    271 z          2.253894      2.263250     0.009356    Cartesian    0.42
    272 x          6.761681      6.773296     0.011616    Cartesian    0.17
    272 y          6.761681      6.761240    -0.000441    Cartesian   -0.01
    272 z          6.761681      6.783275     0.021594    Cartesian    0.32
    273 x          4.507787      4.499527    -0.008260    Cartesian   -0.18
    273 y         -4.507787     -4.522494    -0.014706    Cartesian    0.33
    273 z          9.015574      9.070106     0.054531    Cartesian    0.60
    274 x         11.269468     11.225735    -0.043733    Cartesian   -0.39
    274 y         -2.253894     -2.250621     0.003273    Cartesian   -0.15
    274 z          2.253894      2.252973    -0.000921    Cartesian   -0.04
    275 x         -2.253894     -2.258789    -0.004896    Cartesian    0.22
    275 y         -6.761681     -6.762469    -0.000788    Cartesian    0.01
    275 z         -2.253894     -2.263674    -0.009780    Cartesian    0.43
    276 x          6.761681      6.760520    -0.001160    Cartesian   -0.02
    276 y          2.253894      2.250122    -0.003772    Cartesian   -0.17
    276 z         -6.761681     -6.740289     0.021392    Cartesian   -0.32
    277 x          2.253894      2.253894     0.000000    Cartesian    0.00
    277 y          2.253894      2.277883     0.023989    Cartesian    1.06
    277 z         11.269468     11.263986    -0.005482    Cartesian   -0.05
    278 x          9.015574      9.049131     0.033556    Cartesian    0.37
    278 y          4.507787      4.526735     0.018948    Cartesian    0.42
    278 z         -4.507787     -4.521383    -0.013596    Cartesian    0.30
    279 x          6.761681      6.757470    -0.004211    Cartesian   -0.06
    279 y         -2.253894     -2.244558     0.009336    Cartesian   -0.41
    279 z         -6.761681     -6.752120     0.009560    Cartesian   -0.14
    280 x         11.269468     11.266199    -0.003269    Cartesian   -0.03
    280 y          2.253894      2.257541     0.003648    Cartesian    0.16
    280 z         -2.253894     -2.228945     0.024948    Cartesian   -1.11
    281 x          4.507787      4.464488    -0.043299    Cartesian   -0.96
    281 y         -9.015574     -9.091819    -0.076245    Cartesian    0.85
    281 z          0.000000      0.013634     0.013634    Cartesian *******
    282 x          9.015574      9.031813     0.016238    Cartesian    0.18
    282 y          0.000000      0.031623     0.031623    Cartesian    0.00
    282 z          9.015574      9.048336     0.032762    Cartesian    0.36
    283 x          2.253894      2.253894     0.000000    Cartesian    0.00
    283 y         -2.253894     -2.276942    -0.023048    Cartesian    1.02
    283 z         11.269468     11.255469    -0.013999    Cartesian   -0.12
    284 x          6.761681      6.761821     0.000140    Cartesian    0.00
    284 y         -6.761681     -6.759419     0.002262    Cartesian   -0.03
    284 z          6.761681      6.771909     0.010228    Cartesian    0.15
    285 x         11.269468     11.265002    -0.004466    Cartesian   -0.04
    285 y         -2.253894     -2.258076    -0.004182    Cartesian    0.19
    285 z         -2.253894     -2.251554     0.002339    Cartesian   -0.10
    286 x          4.507787      4.514663     0.006875    Cartesian    0.15
    286 y         -9.015574     -9.024410    -0.008835    Cartesian    0.10
    286 z          4.507787      4.502103    -0.005684    Cartesian   -0.13
    287 x          2.253894      2.253894     0.000000    Cartesian    0.00
    287 y          6.761681      6.733900    -0.027780    Cartesian   -0.41
    287 z         -6.761681     -6.737151     0.024530    Cartesian   -0.36
    288 x          9.015574      9.066309     0.050735    Cartesian    0.56
    288 y         -4.507787     -4.528212    -0.020425    Cartesian    0.45
    288 z         -4.507787     -4.504366     0.003422    Cartesian   -0.08
    289 x         11.269468     11.267680    -0.001788    Cartesian   -0.02
    289 y          2.253894      2.255897     0.002003    Cartesian    0.09
    289 z          6.761681      6.777234     0.015553    Cartesian    0.23
    290 x          4.507787      4.534858     0.027071    Cartesian    0.60
    290 y          9.015574      9.062714     0.047139    Cartesian    0.52
    290 z         -4.507787     -4.503684     0.004103    Cartesian   -0.09
    291 x          2.253894      2.253894     0.000000    Cartesian    0.00
    291 y         11.269468     11.282794     0.013326    Cartesian    0.12
    291 z          2.253894      2.244568    -0.009325    Cartesian   -0.41
    292 x          9.015574      9.062716     0.047142    Cartesian    0.52
    292 y          4.507787      4.514340     0.006553    Cartesian    0.15
    292 z          9.015574      9.037725     0.022151    Cartesian    0.25
    293 x          6.761681      6.754818    -0.006863    Cartesian   -0.10
    293 y          2.253894      2.241940    -0.011954    Cartesian   -0.53
    293 z         11.269468     11.275978     0.006510    Cartesian    0.06
    294 x         11.269468     11.272375     0.002907    Cartesian    0.03
    294 y         -2.253894     -2.247456     0.006438    Cartesian   -0.29
    294 z          6.761681      6.761191    -0.000490    Cartesian   -0.01
    295 x          4.507787      4.503459    -0.004329    Cartesian   -0.10
    295 y          0.000000      0.005777     0.005777    Cartesian    0.00
    295 z         -9.015574     -9.026939    -0.011365    Cartesian    0.13
    296 x          9.015574      9.011461    -0.004114    Cartesian   -0.05
    296 y          9.015574      9.046832     0.031258    Cartesian    0.35
    296 z          0.000000      0.001370     0.001370    Cartesian *******
    297 x         11.269468     11.276510     0.007042    Cartesian    0.06
    297 y          6.761681      6.752926    -0.008755    Cartesian   -0.13
    297 z          2.253894      2.259618     0.005724    Cartesian    0.25
    298 x          6.761681      6.770843     0.009163    Cartesian    0.14
    298 y         -2.253894     -2.240795     0.013099    Cartesian   -0.58
    298 z         11.269468     11.271620     0.002152    Cartesian    0.02
    299 x          9.015574      9.047838     0.032263    Cartesian    0.36
    299 y          9.015574      9.064490     0.048916    Cartesian    0.54
    299 z          4.507787      4.525171     0.017384    Cartesian    0.39
    300 x          2.253894      2.253894     0.000000    Cartesian    0.00
    300 y         -6.761681     -6.766558    -0.004877    Cartesian    0.07
    300 z         -6.761681     -6.752879     0.008802    Cartesian   -0.13
    301 x          9.015574      9.034459     0.018885    Cartesian    0.21
    301 y         -4.507787     -4.510847    -0.003060    Cartesian    0.07
    301 z          9.015574      9.034400     0.018826    Cartesian    0.21
    302 x          2.253894      2.253894     0.000000    Cartesian    0.00
    302 y         11.269468     11.254648    -0.014820    Cartesian   -0.13
    302 z         -2.253894     -2.262189    -0.008295    Cartesian    0.37
    303 x         -2.253894     -2.257595    -0.003701    Cartesian    0.16
    303 y          6.761681      6.766556     0.004876    Cartesian    0.07
    303 z         -6.761681     -6.759230     0.002451    Cartesian   -0.04
    304 x         13.523362     13.585206     0.061845    Cartesian    0.46
    304 y          0.000000      0.021184     0.021184    Cartesian    0.00
    304 z          0.000000      0.023014     0.023014    Cartesian *******
    305 x          4.507787      4.513026     0.005239    Cartesian    0.12
    305 y          9.015574      9.050066     0.034491    Cartesian    0.38
    305 z          9.015574      9.043940     0.028366    Cartesian    0.31
    306 x          2.253894      2.253894     0.000000    Cartesian    0.00
    306 y          6.761681      6.747032    -0.014649    Cartesian   -0.22
    306 z         11.269468     11.271153     0.001685    Cartesian    0.01
    307 x          4.507787      4.501111    -0.006676    Cartesian   -0.15
    307 y          4.507787      4.503898    -0.003889    Cartesian   -0.09
    307 z         -9.015574     -9.058617    -0.043043    Cartesian    0.48
    308 x          6.761681      6.768663     0.006982    Cartesian    0.10
    308 y         11.269468     11.269708     0.000240    Cartesian    0.00
    308 z          2.253894      2.263253     0.009360    Cartesian    0.42
    309 x         11.269468     11.276422     0.006954    Cartesian    0.06
    309 y          6.761681      6.763411     0.001730    Cartesian    0.03
    309 z         -2.253894     -2.255208    -0.001314    Cartesian    0.06
    310 x         13.523362     13.602280     0.078918    Cartesian    0.58
    310 y          0.000000     -0.015363    -0.015363    Cartesian    0.00
    310 z          4.507787      4.488820    -0.018967    Cartesian   -0.42
    311 x          4.507787      4.520044     0.012256    Cartesian    0.27
    311 y         -9.015574     -9.025874    -0.010299    Cartesian    0.11
    311 z         -4.507787     -4.550484    -0.042696    Cartesian    0.95
    312 x         11.269468     11.268931    -0.000537    Cartesian   -0.00
    312 y         -6.761681     -6.746403     0.015278    Cartesian   -0.23
    312 z          2.253894      2.259372     0.005478    Cartesian    0.24
    313 x          2.253894      2.253894     0.000000    Cartesian    0.00
    313 y         11.269468     11.256724    -0.012744    Cartesian   -0.11
    313 z          6.761681      6.782022     0.020342    Cartesian    0.30
    314 x          9.015574      9.009571    -0.006003    Cartesian   -0.07
    314 y         -9.015574     -9.092707    -0.077132    Cartesian    0.86
    314 z          0.000000     -0.009853    -0.009853    Cartesian *******
    315 x          2.253894      2.253894     0.000000    Cartesian    0.00
    315 y        -11.269468    -11.283256    -0.013788    Cartesian    0.12
    315 z          2.253894      2.248086    -0.005808    Cartesian   -0.26
--------------------------------------------------------------------------------


  Time to end of optimisation  =       87.1598 seconds


  Peak dynamic memory used =      91.07 MB 


  Timing analysis for GULP :

--------------------------------------------------------------------------------
  Task / Subroutine                                          Time (Seconds)
--------------------------------------------------------------------------------
  Calculation of reciprocal space energy and derivatives          0.0006
  Calculation of reciprocal space energy using symmetry           0.0009
  Calculation of real space energy and derivatives                0.0033
  Calculation of real space energy using symmetry                 0.0079
  Calculation for region 1 energy and derivatives (2-b)          46.7021
  Calculation for region 2a energy                               36.7773
  Calculation for region 2b energy                                0.0142
  Calculation and manipulation of Hessian matrix                  0.1402
  Calculation of matrix inversion                                 3.2110
  Symmetry generation of equivalent positions                     0.0043
--------------------------------------------------------------------------------
  Total CPU time                                                 87.1599
--------------------------------------------------------------------------------


  Dump file written as Na3OCl.grs


  Job Finished at 10:48.57  4th December   2020                               

