********************************************************************************
*                       GENERAL UTILITY LATTICE PROGRAM                        *
*                                 Julian Gale                                  *
*                       Curtin Institute for Computation                       *
*                    School of Molecular and Life Sciences                     *
*                    Curtin University, Western Australia                      *
********************************************************************************
* Version = 5.2.0 * Last modified =  10th September 2020                       *
********************************************************************************
*  optimise     - perform optimisation run                                     *
*  conp         - constant pressure calculation                                *
*  property     - calculate properties for final geometry                      *
*  defect       - perform defect calculation after bulk run                    *
*  compare      - compare initial and final structures                         *
********************************************************************************

  Job Started  at 10:48.17  4th December   2020                               

  Number of CPUs =     1


  Total number of configurations input =      1

********************************************************************************
*  Input for Configuration =   1                                               *
********************************************************************************

  Formula = ClONa3                                                      

  Number of irreducible atoms/shells =       5


  Total number atoms/shells =       7

  Dimensionality = 3               :  Bulk   


  Symmetry :

  Crystal family                   :  Cubic       
  Crystal class  (Groth - 1921)    :  Cubic Hexakisoctahedral              

  Space group (centrosymmetric)    :  P M 3 M         

  Patterson group                  :  P m -3 m 

  Cartesian lattice vectors (Angstroms) :

        4.504000    0.000000    0.000000
        0.000000    4.504000    0.000000
        0.000000    0.000000    4.504000

  Cell parameters (Angstroms/Degrees):

  a =       4.5040    alpha =  90.0000
  b =       4.5040    beta  =  90.0000
  c =       4.5040    gamma =  90.0000

  Initial cell volume =          91.368216 Angs**3

  Temperature of configuration =   0.00     K 

  Pressure of configuration =         0.000 GPa 

  Fractional coordinates of asymmetric unit :

--------------------------------------------------------------------------------
   No.  Atomic       x           y          z         Charge      Occupancy
        Label      (Frac)      (Frac)     (Frac)        (e)         (Frac)  
--------------------------------------------------------------------------------
      1 Cl    c    0.000000    0.000000    0.000000     1.48500    1.000000    
      2 O     c    0.500000    0.500000    0.500000     0.18300    1.000000    
      3 Na    c    0.500000    0.500000    0.000000     1.00000    1.000000    
      4 Cl    s    0.000000    0.000000    0.000000    -2.48500    1.000000    
      5 O     s    0.500000    0.500000    0.500000    -2.18300    1.000000    
--------------------------------------------------------------------------------


  Constraints : 

--------------------------------------------------------------------------------
  Constraint no.      Unconstrained     Constrained    Coefficient    Offset
                         Variable         Variable
--------------------------------------------------------------------------------
           1              Strain 1        Strain 2       1.00000      0.0000
           2              Strain 1        Strain 3       1.00000      0.0000
--------------------------------------------------------------------------------


********************************************************************************
*  General input information                                                   *
********************************************************************************

  Species output for all configurations : 

--------------------------------------------------------------------------------
  Species    Type    Atomic    Atomic    Charge       Radii (Angs)     Library
                     Number     Mass       (e)     Cova   Ionic  VDW   Symbol
--------------------------------------------------------------------------------
    Na       Core       11      22.99   1.000000   0.970  0.000  2.300          
    O        Core        8      16.00   0.183000   0.730  0.000  1.360          
    O        Shell       8       0.00  -2.183000   0.730  0.000  1.360          
    Cl       Core       17      35.45   1.485000   0.990  0.000  1.650          
    Cl       Shell      17       0.00  -2.485000   0.990  0.000  1.650          
    Mg       Core       12      24.31   0.415000   1.100  0.000  0.000          
    Mg       Shell      12       0.00   1.585000   1.100  0.000  0.000          
    Ca       Core       20      40.08  -1.135000   0.990  0.000  0.000          
    Ca       Shell      20       0.00   3.135000   0.990  0.000  0.000          
    Sr       Core       38      87.62  -1.251000   1.120  0.000  0.000          
    Sr       Shell      38       0.00   3.251000   1.120  0.000  0.000          
    Ba       Core       56     137.33  -7.203000   1.340  0.000  0.000          
    Ba       Shell      56       0.00   9.203000   1.340  0.000  0.000          
--------------------------------------------------------------------------------


  Lattice summation method               =    Ewald          (3-D)
                                         =    Parry          (2-D)
                                         =    Saunders et al (1-D)
  Accuracy factor for lattice sums       =   12.000


  Analytic derivatives to be used

  Time limit = Infinity

  Maximum range for interatomic potentials =    100000.000000 Angstroms

  General interatomic potentials :

--------------------------------------------------------------------------------
Atom  Types   Potential      Parameter       Value         Units   Cutoffs(Ang)
  1     2                                                            Min /  Max 
--------------------------------------------------------------------------------
O    c O    s Spring (c-s)  Spring k 2       593.71600    eV*Ang^-2 0.000  0.800
                            Spring k 4       0.0000000    eV*Ang^-4 
--------------------------------------------------------------------------------
Cl   c Cl   s Spring (c-s)  Spring k 2       29.380000    eV*Ang^-2 0.000  0.800
                            Spring k 4       0.0000000    eV*Ang^-4 
--------------------------------------------------------------------------------
Mg   c Mg   s Spring (c-s)  Spring k 2       361.60000    eV*Ang^-2 0.000  0.800
                            Spring k 4       0.0000000    eV*Ang^-4 
--------------------------------------------------------------------------------
Ca   c Ca   s Spring (c-s)  Spring k 2       110.20000    eV*Ang^-2 0.000  0.800
                            Spring k 4       0.0000000    eV*Ang^-4 
--------------------------------------------------------------------------------
Sr   c Sr   s Spring (c-s)  Spring k 2       71.700000    eV*Ang^-2 0.000  0.800
                            Spring k 4       0.0000000    eV*Ang^-4 
--------------------------------------------------------------------------------
Ba   c Ba   s Spring (c-s)  Spring k 2       495.20000    eV*Ang^-2 0.000  0.800
                            Spring k 4       0.0000000    eV*Ang^-4 
--------------------------------------------------------------------------------
Na   c Na   c Buckingham    Buckingham A     1788.1900    eV        0.000 12.000
                            Buckingham rho  0.15900000    Ang       
                            Buckingham C     0.0000000    eV*Ang^6  
--------------------------------------------------------------------------------
Na   c O    s Buckingham    Buckingham A     1226.8400    eV        0.000 12.000
                            Buckingham rho  0.30700000    Ang       
                            Buckingham C     0.0000000    eV*Ang^6  
--------------------------------------------------------------------------------
Na   c Cl   s Buckingham    Buckingham A     2314.7000    eV        0.000 12.000
                            Buckingham rho  0.29000000    Ang       
                            Buckingham C     0.0000000    eV*Ang^6  
--------------------------------------------------------------------------------
O    s O    s Buckingham    Buckingham A     22764.300    eV        0.000 12.000
                            Buckingham rho  0.14900000    Ang       
                            Buckingham C     13.190000    eV*Ang^6  
--------------------------------------------------------------------------------
O    s Cl   s Buckingham    Buckingham A     8286.9100    eV        0.000 12.000
                            Buckingham rho  0.25900000    Ang       
                            Buckingham C     62.200000    eV*Ang^6  
--------------------------------------------------------------------------------
Cl   s Cl   s Buckingham    Buckingham A     1227.2000    eV        0.000 12.000
                            Buckingham rho  0.32100000    Ang       
                            Buckingham C     14.530000    eV*Ang^6  
--------------------------------------------------------------------------------
O    s Mg   s Buckingham    Buckingham A     1428.5000    eV        0.000 12.000
                            Buckingham rho  0.29450000    Ang       
                            Buckingham C     0.0000000    eV*Ang^6  
--------------------------------------------------------------------------------
Mg   s Cl   s Buckingham    Buckingham A     4914.5400    eV        0.000 12.000
                            Buckingham rho  0.25700000    Ang       
                            Buckingham C     0.0000000    eV*Ang^6  
--------------------------------------------------------------------------------
O    s Ca   s Buckingham    Buckingham A     1090.4000    eV        0.000 12.000
                            Buckingham rho  0.34370000    Ang       
                            Buckingham C     0.0000000    eV*Ang^6  
--------------------------------------------------------------------------------
Cl   s Ca   s Buckingham    Buckingham A     2302.0000    eV        0.000 12.000
                            Buckingham rho  0.34020000    Ang       
                            Buckingham C     0.0000000    eV*Ang^6  
--------------------------------------------------------------------------------
O    s Sr   s Buckingham    Buckingham A     959.10000    eV        0.000 12.000
                            Buckingham rho  0.37210000    Ang       
                            Buckingham C     0.0000000    eV*Ang^6  
--------------------------------------------------------------------------------
Cl   s Sr   s Buckingham    Buckingham A     2191.0900    eV        0.000 12.000
                            Buckingham rho  0.34570000    Ang       
                            Buckingham C     0.0000000    eV*Ang^6  
--------------------------------------------------------------------------------
O    s Ba   s Buckingham    Buckingham A     905.70000    eV        0.000 12.000
                            Buckingham rho  0.39760000    Ang       
                            Buckingham C     0.0000000    eV*Ang^6  
--------------------------------------------------------------------------------
Cl   s Ba   s Buckingham    Buckingham A     2704.5500    eV        0.000 12.000
                            Buckingham rho  0.35280000    Ang       
                            Buckingham C     0.0000000    eV*Ang^6  
--------------------------------------------------------------------------------

********************************************************************************
*  Output for configuration   1                                                *
********************************************************************************


  Components of energy : 

--------------------------------------------------------------------------------
  Interatomic potentials     =           5.13022605 eV    
  Monopole - monopole (real) =         -10.03624526 eV    
  Monopole - monopole (recip)=         -29.53581274 eV    
  Monopole - monopole (total)=         -39.57205800 eV    
--------------------------------------------------------------------------------
  Total lattice energy       =         -34.44183194 eV    
--------------------------------------------------------------------------------
  Total lattice energy       =           -3323.1103 kJ/(mole unit cells)
--------------------------------------------------------------------------------


  Number of variables =        1

  Maximum number of calculations  =          1000
  Maximum Hessian update interval =            10
  Maximum step size               =   1.000000000
  Maximum parameter tolerance     =   0.000010000
  Maximum function  tolerance     =   0.000010000
  Maximum gradient  tolerance     =   0.001000000
  Maximum gradient  component     =   0.010000000

  Symmetry constrained optimisation

  Symmetry used for second derivatives

  Cell parameters to be optimised using strains

  Newton-Raphson optimiser to be used

  BFGS hessian update to be used

  Lower half triangular hessian to be used

  Start of bulk optimisation :

  Cycle:      0 Energy:       -34.441832  Gnorm:      0.196570  CPU:    0.014
  ** Hessian calculated **
  Cycle:      1 Energy:       -34.441914  Gnorm:      0.000103  CPU:    0.017


  **** Optimisation achieved ****


  Final energy =     -34.44191447 eV
  Final Gnorm  =       0.00000000

  Components of energy : 

--------------------------------------------------------------------------------
  Interatomic potentials     =           5.09689708 eV    
  Monopole - monopole (real) =         -10.02781331 eV    
  Monopole - monopole (recip)=         -29.51099824 eV    
  Monopole - monopole (total)=         -39.53881155 eV    
--------------------------------------------------------------------------------
  Total lattice energy       =         -34.44191447 eV    
--------------------------------------------------------------------------------
  Total lattice energy       =           -3323.1183 kJ/(mole unit cells)
--------------------------------------------------------------------------------

  Final asymmetric unit coordinates :

--------------------------------------------------------------------------------
   No.  Atomic        x           y           z         Radius
        Label       (Frac)      (Frac)      (Frac)       (Angs) 
--------------------------------------------------------------------------------
     1  Cl    c     0.000000    0.000000    0.000000    0.000000
     2  O     c     0.500000    0.500000    0.500000    0.000000
     3  Na    c     0.500000    0.500000    0.000000    0.000000
     4  Cl    s     0.000000    0.000000    0.000000    0.000000
     5  O     s     0.500000    0.500000    0.500000    0.000000
--------------------------------------------------------------------------------

  Final Cartesian lattice vectors (Angstroms) :

        4.507787    0.000000    0.000000
        0.000000    4.507787    0.000000
        0.000000    0.000000    4.507787


  Final cell parameters and derivatives :

--------------------------------------------------------------------------------
       a            4.507787 Angstrom     dE/de1(xx)     0.000000 eV/strain
       b            4.507787 Angstrom     dE/de2(yy)     0.000000 eV/strain
       c            4.507787 Angstrom     dE/de3(zz)     0.000000 eV/strain
       alpha       90.000000 Degrees      dE/de4(yz)     0.000000 eV/strain
       beta        90.000000 Degrees      dE/de5(xz)     0.000000 eV/strain
       gamma       90.000000 Degrees      dE/de6(xy)     0.000000 eV/strain
--------------------------------------------------------------------------------

  Primitive cell volume =            91.598892 Angs**3

  Density of cell =      2.183054 g/cm**3

  Non-primitive cell volume =            91.598892 Angs**3


  Final internal derivatives :

--------------------------------------------------------------------------------
   No.  Atomic          a             b             c           Radius
        Label          (eV)          (eV)          (eV)        (eV/Angs)
--------------------------------------------------------------------------------
      1 Cl    c       0.000000      0.000000      0.000000      0.000000
      2 O     c       0.000000      0.000000      0.000000      0.000000
      3 Na    c       0.000000      0.000000      0.000000      0.000000
      4 Cl    s       0.000000      0.000000      0.000000      0.000000
      5 O     s       0.000000      0.000000      0.000000      0.000000
--------------------------------------------------------------------------------
  Maximum abs         0.000000      0.000000      0.000000      0.000000
--------------------------------------------------------------------------------

  Comparison of initial and final structures : 

--------------------------------------------------------------------------------
  Parameter   Initial value   Final value   Difference    Units      Percent
--------------------------------------------------------------------------------
    Volume        91.368216     91.598892     0.230676    Angs**3      0.25
    a              4.504000      4.507787     0.003787    Angstroms    0.08
    b              4.504000      4.507787     0.003787    Angstroms    0.08
    c              4.504000      4.507787     0.003787    Angstroms    0.08
    alpha         90.000000     90.000000     0.000000    Degrees      0.00
    beta          90.000000     90.000000     0.000000    Degrees      0.00
    gamma         90.000000     90.000000     0.000000    Degrees      0.00
      1 x          0.000000      0.000000     0.000000    Fractional   0.00
      1 y          0.000000      0.000000     0.000000    Fractional   0.00
      1 z          0.000000      0.000000     0.000000    Fractional   0.00
      2 x          0.500000      0.500000     0.000000    Fractional   0.00
      2 y          0.500000      0.500000     0.000000    Fractional   0.00
      2 z          0.500000      0.500000     0.000000    Fractional   0.00
      3 x          0.500000      0.500000     0.000000    Fractional   0.00
      3 y          0.500000      0.500000     0.000000    Fractional   0.00
      3 z          0.000000      0.000000     0.000000    Fractional   0.00
      4 x          0.000000      0.000000     0.000000    Fractional   0.00
      4 y          0.000000      0.000000     0.000000    Fractional   0.00
      4 z          0.000000      0.000000     0.000000    Fractional   0.00
      5 x          0.500000      0.500000     0.000000    Fractional   0.00
      5 y          0.500000      0.500000     0.000000    Fractional   0.00
      5 z          0.500000      0.500000     0.000000    Fractional   0.00
--------------------------------------------------------------------------------


  Born effective charge tensors : 

-------------------------------------------------------------------------------
  Atom             x           y             z
-------------------------------------------------------------------------------
    1 Cl    x      -1.0181     -0.0000      0.0000
            y      -0.0000     -1.0181      0.0000
            z       0.0000      0.0000     -1.0181
-------------------------------------------------------------------------------
    2 O     x      -2.2647      0.0000     -0.0000
            y       0.0000     -2.2647     -0.0000
            z      -0.0000     -0.0000     -2.2647
-------------------------------------------------------------------------------
    3 Na    x       1.2258     -0.0000      0.0000
            y      -0.0000      1.2258     -0.0000
            z       0.0000     -0.0000      0.8313
-------------------------------------------------------------------------------




  Elastic Constant Matrix: (Units=GPa)

-------------------------------------------------------------------------------
  Indices      1         2         3         4         5         6    
-------------------------------------------------------------------------------
       1     95.8177   20.0737   20.0737   -0.0000   -0.0000    0.0000
       2     20.0737   95.8177   20.0737   -0.0000   -0.0000    0.0000
       3     20.0737   20.0737   95.8177   -0.0000   -0.0000    0.0000
       4     -0.0000   -0.0000   -0.0000   20.0737   -0.0000    0.0000
       5     -0.0000   -0.0000   -0.0000   -0.0000   20.0737    0.0000
       6      0.0000    0.0000    0.0000    0.0000    0.0000   20.0737
-------------------------------------------------------------------------------


  Elastic Compliance Matrix: (Units=1/GPa)

-------------------------------------------------------------------------------
  Indices      1         2         3         4         5         6    
-------------------------------------------------------------------------------
       1    0.011253 -0.001949 -0.001949  0.000000  0.000000 -0.000000
       2   -0.001949  0.011253 -0.001949  0.000000  0.000000  0.000000
       3   -0.001949 -0.001949  0.011253  0.000000  0.000000 -0.000000
       4    0.000000  0.000000  0.000000  0.049816  0.000000 -0.000000
       5    0.000000  0.000000  0.000000  0.000000  0.049816 -0.000000
       6   -0.000000  0.000000 -0.000000 -0.000000 -0.000000  0.049816
-------------------------------------------------------------------------------

  Mechanical properties :

-------------------------------------------------------------------------------
  Convention :                    Reuss         Voigt         Hill
-------------------------------------------------------------------------------
  Bulk  Modulus (GPa)     =      45.32174      45.32174      45.32174
  Shear Modulus (GPa)     =      24.72085      27.19304      25.95695
-------------------------------------------------------------------------------
  Velocity S-wave (km/s)  =       3.36511       3.52937       3.44822
  Velocity P-wave (km/s)  =       5.98827       6.11304       6.05098
-------------------------------------------------------------------------------
  Compressibility (1/GPa) =    0.02206447
-------------------------------------------------------------------------------
  Stress axis :                     x             y             z
-------------------------------------------------------------------------------
  Youngs Moduli (GPa)     =      88.86373      88.86373      88.86373
-------------------------------------------------------------------------------
  Poissons Ratio (x)      =                     0.17321       0.17321
  Poissons Ratio (y)      =       0.17321                     0.17321
  Poissons Ratio (z)      =       0.17321       0.17321
-------------------------------------------------------------------------------


  Piezoelectric Strain Matrix: (Units=C/m**2)

-------------------------------------------------------------------------------
  Indices      1         2         3         4         5         6    
-------------------------------------------------------------------------------
       x    -0.00000  -0.00000  -0.00000   0.00000  -0.00000  -0.00000
       y    -0.00000  -0.00000   0.00000  -0.00000   0.00000   0.00000
       z    -0.00000  -0.00000  -0.00000  -0.00000   0.00000   0.00000
-------------------------------------------------------------------------------


  Piezoelectric Stress Matrix: (Units=10**-11 C/N)

-------------------------------------------------------------------------------
  Indices      1         2         3         4         5         6    
-------------------------------------------------------------------------------
       x    -0.00000   0.00000   0.00000   0.00000  -0.00000  -0.00000
       y    -0.00000  -0.00000   0.00000  -0.00000   0.00000   0.00000
       z     0.00000   0.00000  -0.00000  -0.00000   0.00000   0.00000
-------------------------------------------------------------------------------


  Static dielectric constant tensor : 

-------------------------------------------------------------------------------
              x         y         z
-------------------------------------------------------------------------------
       x    22.84729   0.00000   0.00000
       y     0.00000  22.84729  -0.00000
       z     0.00000  -0.00000  22.84729
--------------------------------------------------------------------------------

  High frequency dielectric constant tensor : 

-------------------------------------------------------------------------------
              x         y         z
-------------------------------------------------------------------------------
       x     1.47557   0.00000  -0.00000
       y     0.00000   1.47557  -0.00000
       z    -0.00000  -0.00000   1.47557
-------------------------------------------------------------------------------

  Static refractive indices : 

-------------------------------------------------------------------------------
    1 =    4.77988      2 =    4.77988      3 =    4.77988
-------------------------------------------------------------------------------

  High frequency refractive indices : 

-------------------------------------------------------------------------------
    1 =    1.21473      2 =    1.21473      3 =    1.21473
-------------------------------------------------------------------------------


  Time to end of optimisation =       0.0255 seconds

********************************************************************************
*  Defect calculation for configuration   1 :                                  *
********************************************************************************

  Total number of defects =      3

  Total charge on defect  =  -1.00

  Defect centre is at   0.5000   0.1100   0.3900  Frac

  Region 1 radius =  12.0000      Number of ions =    562

  Number of symmetry inequivalent region 1 ions  =    326

  Region 2 radius =  16.0000      Number of ions =    747

  Number of symmetry inequivalent region 2a ions =    407

  Region 2a mode = 4 : screened electrostatics due to region 1 
                       neglect correction to region 1 forces from 2a
                       region 2a displacements based on defects only

  Region 2a ions will only interact with defects in region 1

  Vacancies:

--------------------------------------------------------------------------------
    Specification type     Symbol/Number         x          y          z
--------------------------------------------------------------------------------
    Fractional                               0.500000   0.500000   0.000000
    Fractional                               0.500000   0.000000   0.500000
--------------------------------------------------------------------------------

  Interstitials:

--------------------------------------------------------------------------------
    Specification type     Symbol/Number         x          y          z
--------------------------------------------------------------------------------
    Atom/Fractional         Na               0.500000   0.390000   0.110000
--------------------------------------------------------------------------------


  Symmetry reduced region 1 (Relative to defect centre) :

--------------------------------------------------------------------------------
   No.   Atomic       x            y             z       Radius  Multiplicity   
         Label      (Angs)       (Angs)        (Angs)    (Angs)     
--------------------------------------------------------------------------------
     1  Na    c      0.0000       1.2622      -1.2622    0.0000     1    Defect
     2  O     c      0.0000       1.7580 *     0.4959 *  0.0000     1          
     3  O     c      0.0000      -2.7498 *     0.4959 *  0.0000     1          
     4  Cl    c      2.2539 *    -0.4959 *    -1.7580 *  0.0000     2          
     5  Na    c      2.2539 *     1.7580 *     0.4959 *  0.0000     2          
     6  Na    c      0.0000       1.7580 *     2.7498 *  0.0000     1          
     7  Na    c      0.0000      -2.7498 *    -1.7580 *  0.0000     1          
     8  Cl    c      2.2539 *    -0.4959 *     2.7498 *  0.0000     2          
     9  Na    c      2.2539 *    -2.7498 *     0.4959 *  0.0000     2          
    10  Na    c      0.0000      -2.7498 *     2.7498 *  0.0000     1          
    11  Na    c      0.0000      -0.4959 *    -4.0119 *  0.0000     1          
    12  Na    c      0.0000       4.0119 *     0.4959 *  0.0000     1          
    13  O     c      0.0000       1.7580 *    -4.0119 *  0.0000     1          
    14  Na    c     -4.5078 *    -0.4959 *     0.4959 *  0.0000     2          
    15  O     c      0.0000      -2.7498 *    -4.0119 *  0.0000     1          
    16  O     c     -4.5078 *     1.7580 *     0.4959 *  0.0000     2          
    17  Cl    c      2.2539 *     4.0119 *    -1.7580 *  0.0000     2          
    18  Na    c      2.2539 *     1.7580 *    -4.0119 *  0.0000     2          
    19  Na    c      0.0000      -0.4959 *     5.0036 *  0.0000     1          
    20  Na    c      0.0000      -5.0036 *     0.4959 *  0.0000     1          
    21  Na    c     -4.5078 *     1.7580 *    -1.7580 *  0.0000     2          
    22  O     c     -4.5078 *    -2.7498 *     0.4959 *  0.0000     2          
    23  O     c      0.0000       1.7580 *     5.0036 *  0.0000     1          
    24  Cl    c      2.2539 *     4.0119 *     2.7498 *  0.0000     2          
    25  Na    c      2.2539 *    -2.7498 *    -4.0119 *  0.0000     2          
    26  Na    c     -4.5078 *    -2.7498 *    -1.7580 *  0.0000     2          
    27  Na    c     -4.5078 *     1.7580 *     2.7498 *  0.0000     2          
    28  Na    c      0.0000       4.0119 *    -4.0119 *  0.0000     1          
    29  O     c      0.0000      -2.7498 *     5.0036 *  0.0000     1          
    30  Cl    c      2.2539 *    -5.0036 *    -1.7580 *  0.0000     2          
    31  Na    c      2.2539 *     1.7580 *     5.0036 *  0.0000     2          
    32  Na    c      4.5078 *    -2.7498 *     2.7498 *  0.0000     2          
    33  Na    c     -4.5078 *    -0.4959 *    -4.0119 *  0.0000     2          
    34  Na    c     -4.5078 *     4.0119 *     0.4959 *  0.0000     2          
    35  Cl    c      2.2539 *    -5.0036 *     2.7498 *  0.0000     2          
    36  Na    c      2.2539 *    -2.7498 *     5.0036 *  0.0000     2          
    37  O     c      0.0000       6.2658 *     0.4959 *  0.0000     1          
    38  O     c     -4.5078 *     1.7580 *    -4.0119 *  0.0000     2          
    39  Na    c      0.0000       4.0119 *     5.0036 *  0.0000     1          
    40  Na    c      0.0000      -5.0036 *    -4.0119 *  0.0000     1          
    41  Na    c      0.0000       6.2658 *    -1.7580 *  0.0000     1          
    42  Na    c      0.0000       1.7580 *    -6.2658 *  0.0000     1          
    43  O     c     -4.5078 *    -2.7498 *    -4.0119 *  0.0000     2          
    44  Na    c      2.2539 *     6.2658 *     0.4959 *  0.0000     2          
    45  Cl    c      2.2539 *    -0.4959 *    -6.2658 *  0.0000     2          
    46  Na    c     -4.5078 *    -0.4959 *     5.0036 *  0.0000     2          
    47  Na    c     -4.5078 *    -5.0036 *     0.4959 *  0.0000     2          
    48  Na    c      0.0000       6.2658 *     2.7498 *  0.0000     1          
    49  Na    c      0.0000      -2.7498 *    -6.2658 *  0.0000     1          
    50  O     c     -4.5078 *     1.7580 *     5.0036 *  0.0000     2          
    51  Cl    c      6.7617 *    -0.4959 *    -1.7580 *  0.0000     2          
    52  Na    c      6.7617 *     1.7580 *     0.4959 *  0.0000     2          
    53  Na    c      0.0000      -5.0036 *     5.0036 *  0.0000     1          
    54  Na    c     -4.5078 *     4.0119 *    -4.0119 *  0.0000     2          
    55  O     c      0.0000      -7.2575 *     0.4959 *  0.0000     1          
    56  O     c     -4.5078 *    -2.7498 *     5.0036 *  0.0000     2          
    57  Cl    c      6.7617 *    -0.4959 *     2.7498 *  0.0000     2          
    58  Na    c      6.7617 *    -2.7498 *     0.4959 *  0.0000     2          
    59  O     c      0.0000       6.2658 *    -4.0119 *  0.0000     1          
    60  Na    c      0.0000       1.7580 *     7.2575 *  0.0000     1          
    61  Na    c      0.0000      -7.2575 *    -1.7580 *  0.0000     1          
    62  Cl    c      2.2539 *    -0.4959 *     7.2575 *  0.0000     2          
    63  Na    c      2.2539 *    -7.2575 *     0.4959 *  0.0000     2          
    64  O     c     -4.5078 *     6.2658 *     0.4959 *  0.0000     2          
    65  Na    c      0.0000      -2.7498 *     7.2575 *  0.0000     1          
    66  Na    c      0.0000      -7.2575 *     2.7498 *  0.0000     1          
    67  Na    c      2.2539 *     6.2658 *    -4.0119 *  0.0000     2          
    68  Cl    c      2.2539 *     4.0119 *    -6.2658 *  0.0000     2          
    69  Na    c     -4.5078 *     4.0119 *     5.0036 *  0.0000     2          
    70  Na    c     -4.5078 *    -5.0036 *    -4.0119 *  0.0000     2          
    71  Na    c     -4.5078 *     6.2658 *    -1.7580 *  0.0000     2          
    72  Na    c      4.5078 *     1.7580 *    -6.2658 *  0.0000     2          
    73  O     c      0.0000       6.2658 *     5.0036 *  0.0000     1          
    74  Cl    c      6.7617 *     4.0119 *    -1.7580 *  0.0000     2          
    75  Na    c      6.7617 *     1.7580 *    -4.0119 *  0.0000     2          
    76  Na    c     -4.5078 *    -2.7498 *    -6.2658 *  0.0000     2          
    77  Na    c     -4.5078 *     6.2658 *     2.7498 *  0.0000     2          
    78  O     c      0.0000      -7.2575 *    -4.0119 *  0.0000     1          
    79  Cl    c      2.2539 *    -5.0036 *    -6.2658 *  0.0000     2          
    80  Na    c      2.2539 *     6.2658 *     5.0036 *  0.0000     2          
    81  Cl    c      6.7617 *     4.0119 *     2.7498 *  0.0000     2          
    82  Na    c      6.7617 *    -2.7498 *    -4.0119 *  0.0000     2          
    83  Na    c     -4.5078 *    -5.0036 *     5.0036 *  0.0000     2          
    84  Na    c      0.0000      -0.4959 *    -8.5197 *  0.0000     1          
    85  Na    c      0.0000       8.5197 *     0.4959 *  0.0000     1          
    86  O     c     -4.5078 *    -7.2575 *     0.4959 *  0.0000     2          
    87  Cl    c      2.2539 *     4.0119 *     7.2575 *  0.0000     2          
    88  Na    c      2.2539 *    -7.2575 *    -4.0119 *  0.0000     2          
    89  Cl    c      6.7617 *    -5.0036 *    -1.7580 *  0.0000     2          
    90  Na    c      6.7617 *     1.7580 *     5.0036 *  0.0000     2          
    91  O     c     -4.5078 *     6.2658 *    -4.0119 *  0.0000     2          
    92  O     c      0.0000       1.7580 *    -8.5197 *  0.0000     1          
    93  Na    c     -4.5078 *     1.7580 *     7.2575 *  0.0000     2          
    94  Na    c     -4.5078 *    -7.2575 *    -1.7580 *  0.0000     2          
    95  O     c      0.0000      -7.2575 *     5.0036 *  0.0000     1          
    96  Cl    c      6.7617 *    -5.0036 *     2.7498 *  0.0000     2          
    97  Na    c      6.7617 *    -2.7498 *     5.0036 *  0.0000     2          
    98  Na    c      0.0000       6.2658 *    -6.2658 *  0.0000     1          
    99  O     c      0.0000      -2.7498 *    -8.5197 *  0.0000     1          
   100  Na    c      4.5078 *    -2.7498 *     7.2575 *  0.0000     2          
   101  Na    c     -4.5078 *    -7.2575 *     2.7498 *  0.0000     2          
   102  Cl    c      2.2539 *     8.5197 *    -1.7580 *  0.0000     2          
   103  Na    c      2.2539 *     1.7580 *    -8.5197 *  0.0000     2          
   104  Na    c      9.0156 *    -0.4959 *     0.4959 *  0.0000     2          
   105  Cl    c      2.2539 *    -5.0036 *     7.2575 *  0.0000     2          
   106  Na    c      2.2539 *    -7.2575 *     5.0036 *  0.0000     2          
   107  O     c     -4.5078 *     6.2658 *     5.0036 *  0.0000     2          
   108  O     c      9.0156 *     1.7580 *     0.4959 *  0.0000     2          
   109  Na    c      6.7617 *     6.2658 *     0.4959 *  0.0000     2          
   110  Cl    c      2.2539 *     8.5197 *     2.7498 *  0.0000     2          
   111  Cl    c      6.7617 *    -0.4959 *    -6.2658 *  0.0000     2          
   112  Na    c      2.2539 *    -2.7498 *    -8.5197 *  0.0000     2          
   113  Na    c      9.0156 *     1.7580 *    -1.7580 *  0.0000     2          
   114  Na    c      0.0000       4.0119 *    -8.5197 *  0.0000     1          
   115  Na    c      0.0000       8.5197 *    -4.0119 *  0.0000     1          
   116  O     c     -4.5078 *    -7.2575 *    -4.0119 *  0.0000     2          
   117  O     c      9.0156 *    -2.7498 *     0.4959 *  0.0000     2          
   118  Na    c      0.0000      -0.4959 *     9.5114 *  0.0000     1          
   119  Na    c      0.0000      -9.5114 *     0.4959 *  0.0000     1          
   120  Na    c      0.0000       6.2658 *     7.2575 *  0.0000     1          
   121  Na    c      0.0000      -7.2575 *    -6.2658 *  0.0000     1          
   122  Na    c      9.0156 *    -2.7498 *    -1.7580 *  0.0000     2          
   123  Na    c      9.0156 *     1.7580 *     2.7498 *  0.0000     2          
   124  Na    c      4.5078 *    -0.4959 *    -8.5197 *  0.0000     2          
   125  Na    c     -4.5078 *     8.5197 *     0.4959 *  0.0000     2          
   126  O     c      0.0000       1.7580 *     9.5114 *  0.0000     1          
   127  O     c     -4.5078 *     1.7580 *    -8.5197 *  0.0000     2          
   128  Na    c      9.0156 *    -2.7498 *     2.7498 *  0.0000     2          
   129  Na    c      9.0156 *    -0.4959 *    -4.0119 *  0.0000     2          
   130  Na    c      9.0156 *     4.0119 *     0.4959 *  0.0000     2          
   131  Na    c      0.0000       8.5197 *     5.0036 *  0.0000     1          
   132  Na    c      0.0000      -5.0036 *    -8.5197 *  0.0000     1          
   133  O     c      0.0000      -2.7498 *     9.5114 *  0.0000     1          
   134  O     c     -4.5078 *    -7.2575 *     5.0036 *  0.0000     2          
   135  Cl    c      2.2539 *    -9.5114 *    -1.7580 *  0.0000     2          
   136  Na    c      2.2539 *     1.7580 *     9.5114 *  0.0000     2          
   137  Cl    c      6.7617 *    -0.4959 *     7.2575 *  0.0000     2          
   138  Na    c      6.7617 *    -7.2575 *     0.4959 *  0.0000     2          
   139  Na    c     -4.5078 *     6.2658 *    -6.2658 *  0.0000     2          
   140  O     c      9.0156 *     1.7580 *    -4.0119 *  0.0000     2          
   141  O     c      4.5078 *    -2.7498 *    -8.5197 *  0.0000     2          
   142  Na    c      6.7617 *     6.2658 *    -4.0119 *  0.0000     2          
   143  Cl    c      6.7617 *     4.0119 *    -6.2658 *  0.0000     2          
   144  Cl    c      2.2539 *    -9.5114 *     2.7498 *  0.0000     2          
   145  Na    c      2.2539 *    -2.7498 *     9.5114 *  0.0000     2          
   146  O     c      9.0156 *    -2.7498 *    -4.0119 *  0.0000     2          
   147  Na    c      0.0000      -7.2575 *     7.2575 *  0.0000     1          
   148  Na    c      0.0000       4.0119 *     9.5114 *  0.0000     1          
   149  Na    c      0.0000      -9.5114 *    -4.0119 *  0.0000     1          
   150  Na    c      9.0156 *    -0.4959 *     5.0036 *  0.0000     2          
   151  Na    c      9.0156 *    -5.0036 *     0.4959 *  0.0000     2          
   152  Na    c     -4.5078 *     4.0119 *    -8.5197 *  0.0000     2          
   153  Na    c     -4.5078 *     8.5197 *    -4.0119 *  0.0000     2          
   154  O     c      9.0156 *     1.7580 *     5.0036 *  0.0000     2          
   155  Na    c      6.7617 *     6.2658 *     5.0036 *  0.0000     2          
   156  Cl    c      6.7617 *    -5.0036 *    -6.2658 *  0.0000     2          
   157  Na    c     -4.5078 *    -0.4959 *     9.5114 *  0.0000     2          
   158  Na    c     -4.5078 *    -9.5114 *     0.4959 *  0.0000     2          
   159  O     c      0.0000       6.2658 *    -8.5197 *  0.0000     1          
   160  Na    c     -4.5078 *     6.2658 *     7.2575 *  0.0000     2          
   161  Na    c     -4.5078 *    -7.2575 *    -6.2658 *  0.0000     2          
   162  Na    c      9.0156 *     4.0119 *    -4.0119 *  0.0000     2          
   163  O     c     -4.5078 *     1.7580 *     9.5114 *  0.0000     2          
   164  O     c      9.0156 *    -2.7498 *     5.0036 *  0.0000     2          
   165  Cl    c      6.7617 *     4.0119 *     7.2575 *  0.0000     2          
   166  Na    c      6.7617 *    -7.2575 *    -4.0119 *  0.0000     2          
   167  Na    c      0.0000      -5.0036 *     9.5114 *  0.0000     1          
   168  Na    c      0.0000      -9.5114 *     5.0036 *  0.0000     1          
   169  O     c      0.0000      10.7736 *     0.4959 *  0.0000     1          
   170  Cl    c      2.2539 *     8.5197 *    -6.2658 *  0.0000     2          
   171  Na    c      2.2539 *     6.2658 *    -8.5197 *  0.0000     2          
   172  Na    c     -4.5078 *     8.5197 *     5.0036 *  0.0000     2          
   173  Na    c     -4.5078 *    -5.0036 *    -8.5197 *  0.0000     2          
   174  O     c     -4.5078 *    -2.7498 *     9.5114 *  0.0000     2          
   175  Na    c      0.0000      10.7736 *    -1.7580 *  0.0000     1          
   176  Na    c      0.0000       1.7580 *   -10.7736 *  0.0000     1          
   177  O     c      9.0156 *     6.2658 *     0.4959 *  0.0000     2          
   178  Na    c      2.2539 *    10.7736 *     0.4959 *  0.0000     2          
   179  Cl    c      2.2539 *    -0.4959 *   -10.7736 *  0.0000     2          
   180  Cl    c      6.7617 *     8.5197 *    -1.7580 *  0.0000     2          
   181  Na    c      6.7617 *     1.7580 *    -8.5197 *  0.0000     2          
   182  Na    c      9.0156 *     4.0119 *     5.0036 *  0.0000     2          
   183  Na    c      9.0156 *    -5.0036 *    -4.0119 *  0.0000     2          
   184  Cl    c      6.7617 *    -5.0036 *     7.2575 *  0.0000     2          
   185  Na    c      6.7617 *    -7.2575 *     5.0036 *  0.0000     2          
   186  Na    c      0.0000      10.7736 *     2.7498 *  0.0000     1          
   187  Na    c      9.0156 *     6.2658 *    -1.7580 *  0.0000     2          
   188  Na    c      0.0000      -2.7498 *   -10.7736 *  0.0000     1          
   189  Na    c      9.0156 *     1.7580 *    -6.2658 *  0.0000     2          
   190  O     c      0.0000      -7.2575 *    -8.5197 *  0.0000     1          
   191  Na    c     -4.5078 *    -7.2575 *     7.2575 *  0.0000     2          
   192  Cl    c      6.7617 *     8.5197 *     2.7498 *  0.0000     2          
   193  Na    c      6.7617 *    -2.7498 *    -8.5197 *  0.0000     2          
   194  Na    c     -4.5078 *     4.0119 *     9.5114 *  0.0000     2          
   195  Na    c     -4.5078 *    -9.5114 *    -4.0119 *  0.0000     2          
   196  Na    c      9.0156 *     6.2658 *     2.7498 *  0.0000     2          
   197  Na    c      9.0156 *    -2.7498 *    -6.2658 *  0.0000     2          
   198  O     c      0.0000       6.2658 *     9.5114 *  0.0000     1          
   199  Cl    c     11.2695 *    -0.4959 *    -1.7580 *  0.0000     2          
   200  Na    c     11.2695 *     1.7580 *     0.4959 *  0.0000     2          
   201  Cl    c      2.2539 *     8.5197 *     7.2575 *  0.0000     2          
   202  Na    c      2.2539 *    -7.2575 *    -8.5197 *  0.0000     2          
   203  Na    c      9.0156 *    -5.0036 *     5.0036 *  0.0000     2          
   204  O     c      0.0000      10.7736 *    -4.0119 *  0.0000     1          
   205  O     c      4.5078 *     6.2658 *    -8.5197 *  0.0000     2          
   206  O     c      9.0156 *    -7.2575 *     0.4959 *  0.0000     2          
   207  Cl    c      2.2539 *    -9.5114 *    -6.2658 *  0.0000     2          
   208  Cl    c     11.2695 *    -0.4959 *     2.7498 *  0.0000     2          
   209  Na    c      2.2539 *     6.2658 *     9.5114 *  0.0000     2          
   210  Na    c     11.2695 *    -2.7498 *     0.4959 *  0.0000     2          
   211  Na    c      4.5078 *    -5.0036 *     9.5114 *  0.0000     2          
   212  Na    c      4.5078 *    -9.5114 *     5.0036 *  0.0000     2          
   213  O     c      4.5078 *    10.7736 *     0.4959 *  0.0000     2          
   214  O     c      9.0156 *     6.2658 *    -4.0119 *  0.0000     2          
   215  Na    c      9.0156 *     1.7580 *     7.2575 *  0.0000     2          
   216  Na    c      9.0156 *    -7.2575 *    -1.7580 *  0.0000     2          
   217  Na    c      2.2539 *    10.7736 *    -4.0119 *  0.0000     2          
   218  Cl    c      2.2539 *     4.0119 *   -10.7736 *  0.0000     2          
   219  O     c      0.0000     -11.7653 *     0.4959 *  0.0000     1          
   220  Cl    c      6.7617 *    -9.5114 *    -1.7580 *  0.0000     2          
   221  Na    c      6.7617 *     1.7580 *     9.5114 *  0.0000     2          
   222  Na    c      4.5078 *    10.7736 *    -1.7580 *  0.0000     2          
   223  Na    c      4.5078 *     1.7580 *   -10.7736 *  0.0000     2          
   224  O     c      0.0000      10.7736 *     5.0036 *  0.0000     1          
   225  Na    c      9.0156 *    -2.7498 *     7.2575 *  0.0000     2          
   226  Na    c      9.0156 *    -7.2575 *     2.7498 *  0.0000     2          
   227  Na    c      0.0000       1.7580 *    11.7653 *  0.0000     1          
   228  Na    c      0.0000     -11.7653 *    -1.7580 *  0.0000     1          
   229  O     c      0.0000      -7.2575 *     9.5114 *  0.0000     1          
   230  Cl    c      6.7617 *    -9.5114 *     2.7498 *  0.0000     2          
   231  Na    c      6.7617 *    -2.7498 *     9.5114 *  0.0000     2          
   232  Cl    c      2.2539 *    -0.4959 *    11.7653 *  0.0000     2          
   233  Na    c      2.2539 *   -11.7653 *     0.4959 *  0.0000     2          
   234  Na    c      4.5078 *    10.7736 *     2.7498 *  0.0000     2          
   235  Na    c      4.5078 *    -2.7498 *   -10.7736 *  0.0000     2          
   236  O     s      0.0000       1.7580 *     0.4959 *  0.0000     1          
   237  O     s      0.0000      -2.7498 *     0.4959 *  0.0000     1          
   238  Cl    s      2.2539 *    -0.4959 *    -1.7580 *  0.0000     2          
   239  Cl    s      2.2539 *    -0.4959 *     2.7498 *  0.0000     2          
   240  O     s      0.0000       1.7580 *    -4.0119 *  0.0000     1          
   241  O     s      0.0000      -2.7498 *    -4.0119 *  0.0000     1          
   242  O     s     -4.5078 *     1.7580 *     0.4959 *  0.0000     2          
   243  Cl    s      2.2539 *     4.0119 *    -1.7580 *  0.0000     2          
   244  O     s     -4.5078 *    -2.7498 *     0.4959 *  0.0000     2          
   245  O     s      0.0000       1.7580 *     5.0036 *  0.0000     1          
   246  Cl    s      2.2539 *     4.0119 *     2.7498 *  0.0000     2          
   247  O     s      0.0000      -2.7498 *     5.0036 *  0.0000     1          
   248  Cl    s      2.2539 *    -5.0036 *    -1.7580 *  0.0000     2          
   249  Cl    s      2.2539 *    -5.0036 *     2.7498 *  0.0000     2          
   250  O     s      0.0000       6.2658 *     0.4959 *  0.0000     1          
   251  O     s     -4.5078 *     1.7580 *    -4.0119 *  0.0000     2          
   252  O     s     -4.5078 *    -2.7498 *    -4.0119 *  0.0000     2          
   253  Cl    s      2.2539 *    -0.4959 *    -6.2658 *  0.0000     2          
   254  O     s     -4.5078 *     1.7580 *     5.0036 *  0.0000     2          
   255  Cl    s      6.7617 *    -0.4959 *    -1.7580 *  0.0000     2          
   256  O     s      0.0000      -7.2575 *     0.4959 *  0.0000     1          
   257  O     s     -4.5078 *    -2.7498 *     5.0036 *  0.0000     2          
   258  Cl    s      6.7617 *    -0.4959 *     2.7498 *  0.0000     2          
   259  O     s      0.0000       6.2658 *    -4.0119 *  0.0000     1          
   260  Cl    s      2.2539 *    -0.4959 *     7.2575 *  0.0000     2          
   261  O     s     -4.5078 *     6.2658 *     0.4959 *  0.0000     2          
   262  Cl    s      2.2539 *     4.0119 *    -6.2658 *  0.0000     2          
   263  O     s      0.0000       6.2658 *     5.0036 *  0.0000     1          
   264  Cl    s      6.7617 *     4.0119 *    -1.7580 *  0.0000     2          
   265  O     s      0.0000      -7.2575 *    -4.0119 *  0.0000     1          
   266  Cl    s      2.2539 *    -5.0036 *    -6.2658 *  0.0000     2          
   267  Cl    s      6.7617 *     4.0119 *     2.7498 *  0.0000     2          
   268  O     s     -4.5078 *    -7.2575 *     0.4959 *  0.0000     2          
   269  Cl    s      2.2539 *     4.0119 *     7.2575 *  0.0000     2          
   270  Cl    s      6.7617 *    -5.0036 *    -1.7580 *  0.0000     2          
   271  O     s     -4.5078 *     6.2658 *    -4.0119 *  0.0000     2          
   272  O     s      0.0000       1.7580 *    -8.5197 *  0.0000     1          
   273  O     s      0.0000      -7.2575 *     5.0036 *  0.0000     1          
   274  Cl    s      6.7617 *    -5.0036 *     2.7498 *  0.0000     2          
   275  O     s      0.0000      -2.7498 *    -8.5197 *  0.0000     1          
   276  Cl    s      2.2539 *     8.5197 *    -1.7580 *  0.0000     2          
   277  Cl    s      2.2539 *    -5.0036 *     7.2575 *  0.0000     2          
   278  O     s     -4.5078 *     6.2658 *     5.0036 *  0.0000     2          
   279  O     s      9.0156 *     1.7580 *     0.4959 *  0.0000     2          
   280  Cl    s      2.2539 *     8.5197 *     2.7498 *  0.0000     2          
   281  Cl    s      6.7617 *    -0.4959 *    -6.2658 *  0.0000     2          
   282  O     s     -4.5078 *    -7.2575 *    -4.0119 *  0.0000     2          
   283  O     s      9.0156 *    -2.7498 *     0.4959 *  0.0000     2          
   284  O     s      0.0000       1.7580 *     9.5114 *  0.0000     1          
   285  O     s     -4.5078 *     1.7580 *    -8.5197 *  0.0000     2          
   286  O     s      0.0000      -2.7498 *     9.5114 *  0.0000     1          
   287  O     s     -4.5078 *    -7.2575 *     5.0036 *  0.0000     2          
   288  Cl    s      2.2539 *    -9.5114 *    -1.7580 *  0.0000     2          
   289  Cl    s      6.7617 *    -0.4959 *     7.2575 *  0.0000     2          
   290  O     s      9.0156 *     1.7580 *    -4.0119 *  0.0000     2          
   291  O     s      4.5078 *    -2.7498 *    -8.5197 *  0.0000     2          
   292  Cl    s      6.7617 *     4.0119 *    -6.2658 *  0.0000     2          
   293  Cl    s      2.2539 *    -9.5114 *     2.7498 *  0.0000     2          
   294  O     s      9.0156 *    -2.7498 *    -4.0119 *  0.0000     2          
   295  O     s      9.0156 *     1.7580 *     5.0036 *  0.0000     2          
   296  Cl    s      6.7617 *    -5.0036 *    -6.2658 *  0.0000     2          
   297  O     s      0.0000       6.2658 *    -8.5197 *  0.0000     1          
   298  O     s     -4.5078 *     1.7580 *     9.5114 *  0.0000     2          
   299  O     s      9.0156 *    -2.7498 *     5.0036 *  0.0000     2          
   300  Cl    s      6.7617 *     4.0119 *     7.2575 *  0.0000     2          
   301  O     s      0.0000      10.7736 *     0.4959 *  0.0000     1          
   302  Cl    s      2.2539 *     8.5197 *    -6.2658 *  0.0000     2          
   303  O     s     -4.5078 *    -2.7498 *     9.5114 *  0.0000     2          
   304  O     s      9.0156 *     6.2658 *     0.4959 *  0.0000     2          
   305  Cl    s      2.2539 *    -0.4959 *   -10.7736 *  0.0000     2          
   306  Cl    s      6.7617 *     8.5197 *    -1.7580 *  0.0000     2          
   307  Cl    s      6.7617 *    -5.0036 *     7.2575 *  0.0000     2          
   308  O     s      0.0000      -7.2575 *    -8.5197 *  0.0000     1          
   309  Cl    s      6.7617 *     8.5197 *     2.7498 *  0.0000     2          
   310  O     s      0.0000       6.2658 *     9.5114 *  0.0000     1          
   311  Cl    s     11.2695 *    -0.4959 *    -1.7580 *  0.0000     2          
   312  Cl    s      2.2539 *     8.5197 *     7.2575 *  0.0000     2          
   313  O     s      0.0000      10.7736 *    -4.0119 *  0.0000     1          
   314  O     s      4.5078 *     6.2658 *    -8.5197 *  0.0000     2          
   315  O     s      9.0156 *    -7.2575 *     0.4959 *  0.0000     2          
   316  Cl    s      2.2539 *    -9.5114 *    -6.2658 *  0.0000     2          
   317  Cl    s     11.2695 *    -0.4959 *     2.7498 *  0.0000     2          
   318  O     s      4.5078 *    10.7736 *     0.4959 *  0.0000     2          
   319  O     s      9.0156 *     6.2658 *    -4.0119 *  0.0000     2          
   320  Cl    s      2.2539 *     4.0119 *   -10.7736 *  0.0000     2          
   321  O     s      0.0000     -11.7653 *     0.4959 *  0.0000     1          
   322  Cl    s      6.7617 *    -9.5114 *    -1.7580 *  0.0000     2          
   323  O     s      0.0000      10.7736 *     5.0036 *  0.0000     1          
   324  O     s      0.0000      -7.2575 *     9.5114 *  0.0000     1          
   325  Cl    s      6.7617 *    -9.5114 *     2.7498 *  0.0000     2          
   326  Cl    s      2.2539 *    -0.4959 *    11.7653 *  0.0000     2          
--------------------------------------------------------------------------------

  Components of defect energy : 

--------------------------------------------------------------------------------
  Region 1 - region 1                   =     -4.50557945 eV
  Region 1 - region 2a (unrelaxed)      =     13.32600161 eV
  Region 1 - 2a (relaxed - correction)  =     -0.27630922 eV
  Region 1 (Total)                      =      8.54411294 eV
  Region 2a                             =      0.13807979 eV
  Region 2b                             =     -0.43057808 eV
--------------------------------------------------------------------------------
  Total defect energy                   =      8.25161464 eV
--------------------------------------------------------------------------------

  Largest displacement in region 2 =   0.0215 Angstroms


  Number of variables =      886

  Maximum number of calculations  =        1000
  Maximum Hessian update interval =          10
  Maximum step size               =   1.0000000
  Maximum parameter tolerance     =   0.0000100
  Maximum function  tolerance     =   0.0000100
  Maximum gradient  tolerance     =   0.0010000

  Symmetry adapted optimisation

  Symmetry to be used for second derivatives

  Newton-Raphson optimiser to be used

  BFGS hessian update to be used

  Lower half triangular hessian to be used

  Start of defect optimisation :

  Cycle:      0 Defect Energy:   8.251615  Gnorm:     0.018656  CPU:    2.444
  ** Hessian calculated **
  Cycle:      1 Defect Energy:   6.641392  Gnorm:     0.007646  CPU:    6.628
  Cycle:      2 Defect Energy:   6.155585  Gnorm:     0.006823  CPU:   10.347
  Cycle:      3 Defect Energy:   6.029385  Gnorm:     0.004929  CPU:   13.390
  Cycle:      4 Defect Energy:   5.859097  Gnorm:     0.005608  CPU:   17.824
  Cycle:      5 Defect Energy:   5.722869  Gnorm:     0.004135  CPU:   21.530
  Cycle:      6 Defect Energy:   5.658799  Gnorm:     0.004027  CPU:   22.364
  Cycle:      7 Defect Energy:   5.560642  Gnorm:     0.003677  CPU:   23.196
  Cycle:      8 Defect Energy:   5.427654  Gnorm:     0.003467  CPU:   24.023
  Cycle:      9 Defect Energy:   5.300272  Gnorm:     0.003248  CPU:   24.857
  Cycle:     10 Defect Energy:   5.225781  Gnorm:     0.002895  CPU:   25.687
  ** Hessian calculated **
  Cycle:     11 Defect Energy:   5.116779  Gnorm:     0.002605  CPU:   27.899
  Cycle:     12 Defect Energy:   4.978087  Gnorm:     0.002169  CPU:   28.766
  Cycle:     13 Defect Energy:   4.932911  Gnorm:     0.002008  CPU:   29.626
  ** Hessian calculated **
  Cycle:     14 Defect Energy:   4.799183  Gnorm:     0.001447  CPU:   31.823
  Cycle:     15 Defect Energy:   4.830432  Gnorm:     0.001618  CPU:   32.655
  ** Hessian calculated **
  Cycle:     16 Defect Energy:   4.737992  Gnorm:     0.001149  CPU:   34.847
  Cycle:     17 Defect Energy:   4.688667  Gnorm:     0.000826  CPU:   35.721
  Cycle:     18 Defect Energy:   4.660706  Gnorm:     0.000591  CPU:   36.588
  Cycle:     19 Defect Energy:   4.645171  Gnorm:     0.000420  CPU:   37.393
  Cycle:     20 Defect Energy:   4.636538  Gnorm:     0.000298  CPU:   38.245
  Cycle:     21 Defect Energy:   4.631762  Gnorm:     0.000209  CPU:   39.088
  Cycle:     22 Defect Energy:   4.629108  Gnorm:     0.000146  CPU:   39.925
  Cycle:     23 Defect Energy:   4.627631  Gnorm:     0.000102  CPU:   40.767
  Cycle:     24 Defect Energy:   4.626811  Gnorm:     0.000071  CPU:   41.606
  Cycle:     25 Defect Energy:   4.626309  Gnorm:     0.000050  CPU:   42.463
  ** Hessian calculated **
  Cycle:     26 Defect Energy:   4.625987  Gnorm:     0.000035  CPU:   44.667
  Cycle:     27 Defect Energy:   4.625807  Gnorm:     0.000025  CPU:   45.506
  Cycle:     28 Defect Energy:   4.625699  Gnorm:     0.000018  CPU:   46.340
  Cycle:     29 Defect Energy:   4.625633  Gnorm:     0.000013  CPU:   47.173
  Cycle:     30 Defect Energy:   4.625590  Gnorm:     0.000009  CPU:   48.018
  Cycle:     31 Defect Energy:   4.625563  Gnorm:     0.000006  CPU:   48.850
  Cycle:     32 Defect Energy:   4.625543  Gnorm:     0.000004  CPU:   49.669
  Cycle:     33 Defect Energy:   4.625530  Gnorm:     0.000003  CPU:   50.508


  **** Optimisation achieved ****


  Final defect energy  =        4.62552033
  Final defect Gnorm   =        0.00000220

  Components of defect energy : 

--------------------------------------------------------------------------------
  Region 1 - region 1                   =     -6.19672413 eV
  Region 1 - region 2a (unrelaxed)      =     11.35545602 eV
  Region 1 - 2a (relaxed - correction)  =     -0.20505662 eV
  Region 1 (Total)                      =      4.95367527 eV
  Region 2a                             =      0.10245299 eV
  Region 2b                             =     -0.43060793 eV
--------------------------------------------------------------------------------
  Total defect energy                   =      4.62552033 eV
--------------------------------------------------------------------------------

  Largest displacement in region 2 =   0.0215 Angstroms

  Final coordinates of region 1 :

--------------------------------------------------------------------------------
   No.  Atomic        x           y           z          Radius      Charge
        Label       (Angs)      (Angs)      (Angs)       (Angs)       (e) 
--------------------------------------------------------------------------------
     1  Na    c     2.253894    1.758037    0.495857    0.000000    1.000000
     2  O     c     2.253894    2.371246    2.545602    0.000000    0.183000
     3  O     c     2.253894   -2.313891    2.285539    0.000000    0.183000
     4  Cl    c     4.615685    0.004156   -0.037882    0.000000    1.485000
     5  Cl    c    -0.107898    0.004156   -0.037882    0.000000    1.485000
     6  Na    c     4.467360    1.993838    2.547811    0.000000    1.000000
     7  Na    c     0.040427    1.993838    2.547811    0.000000    1.000000
     8  Na    c     2.253894    1.614416    4.594929    0.000000    1.000000
     9  Na    c     2.253894   -1.939320    0.092030    0.000000    1.000000
    10  Cl    c     4.643914   -0.023168    4.668397    0.000000    1.485000
    11  Cl    c    -0.136127   -0.023168    4.668397    0.000000    1.485000
    12  Na    c     4.416848   -1.763080    2.284431    0.000000    1.000000
    13  Na    c     0.090939   -1.763080    2.284431    0.000000    1.000000
    14  Na    c     2.253894   -1.919391    4.478980    0.000000    1.000000
    15  Na    c     2.253894    0.006070   -2.459396    0.000000    1.000000
    16  Na    c     2.253894    4.561031    2.591243    0.000000    1.000000
    17  O     c     2.253894    2.212296   -2.100181    0.000000    0.183000
    18  Na    c    -2.556916    0.008670    2.303658    0.000000    1.000000
    19  Na    c     7.064704    0.008670    2.303658    0.000000    1.000000
    20  O     c     2.253894   -2.238366   -2.201323    0.000000    0.183000
    21  O     c    -2.236200    2.270702    2.300400    0.000000    0.183000
    22  O     c     6.743987    2.270702    2.300400    0.000000    0.183000
    23  Cl    c     4.618500    4.626308   -0.047291    0.000000    1.485000
    24  Cl    c    -0.110713    4.626308   -0.047291    0.000000    1.485000
    25  Na    c     4.487140    2.142762   -2.064080    0.000000    1.000000
    26  Na    c     0.020648    2.142762   -2.064080    0.000000    1.000000
    27  Na    c     2.253894   -0.001331    7.285799    0.000000    1.000000
    28  Na    c     2.253894   -4.510937    2.257544    0.000000    1.000000
    29  Na    c    -2.153368    2.267111    0.050419    0.000000    1.000000
    30  Na    c     6.661155    2.267111    0.050419    0.000000    1.000000
    31  O     c    -2.197954   -2.246380    2.269031    0.000000    0.183000
    32  O     c     6.705742   -2.246380    2.269031    0.000000    0.183000
    33  O     c     2.253894    2.216934    6.798063    0.000000    0.183000
    34  Cl    c     4.662902    4.591357    4.616919    0.000000    1.485000
    35  Cl    c    -0.155115    4.591357    4.616919    0.000000    1.485000
    36  Na    c     4.506239   -2.151791   -2.236270    0.000000    1.000000
    37  Na    c     0.001548   -2.151791   -2.236270    0.000000    1.000000
    38  Na    c    -2.161444   -2.293993    0.017938    0.000000    1.000000
    39  Na    c     6.669231   -2.293993    0.017938    0.000000    1.000000
    40  Na    c    -2.393370    2.392501    4.544065    0.000000    1.000000
    41  Na    c     6.901157    2.392501    4.544065    0.000000    1.000000
    42  Na    c     2.253894    4.435585   -1.807560    0.000000    1.000000
    43  O     c     2.253894   -2.216122    6.777952    0.000000    0.183000
    44  Cl    c     4.588099   -4.610065   -0.100863    0.000000    1.485000
    45  Cl    c    -0.080312   -4.610065   -0.100863    0.000000    1.485000
    46  Na    c     4.518508    2.190218    6.703114    0.000000    1.000000
    47  Na    c    -0.010721    2.190218    6.703114    0.000000    1.000000
    48  Na    c     6.693380   -2.353729    4.515311    0.000000    1.000000
    49  Na    c    -2.185593   -2.353729    4.515311    0.000000    1.000000
    50  Na    c    -2.403871    0.000530   -2.097400    0.000000    1.000000
    51  Na    c     6.911659    0.000530   -2.097400    0.000000    1.000000
    52  Na    c    -1.880334    4.505434    2.238735    0.000000    1.000000
    53  Na    c     6.388122    4.505434    2.238735    0.000000    1.000000
    54  Cl    c     4.589712   -4.601512    4.630562    0.000000    1.485000
    55  Cl    c    -0.081925   -4.601512    4.630562    0.000000    1.485000
    56  Na    c     4.507482   -2.126942    6.748281    0.000000    1.000000
    57  Na    c     0.000305   -2.126942    6.748281    0.000000    1.000000
    58  O     c     2.253894    6.830469    2.309538    0.000000    0.183000
    59  O     c    -2.244525    2.249664   -2.214447    0.000000    0.183000
    60  O     c     6.752312    2.249664   -2.214447    0.000000    0.183000
    61  Na    c     2.253894    4.462382    6.310135    0.000000    1.000000
    62  Na    c     2.253894   -4.487126   -1.913225    0.000000    1.000000
    63  Na    c     2.253894    6.708861    0.062676    0.000000    1.000000
    64  Na    c     2.253894    2.555463   -4.388953    0.000000    1.000000
    65  O     c    -2.257227   -2.249581   -2.246050    0.000000    0.183000
    66  O     c     6.765014   -2.249581   -2.246050    0.000000    0.183000
    67  Na    c     4.513293    6.938003    2.300957    0.000000    1.000000
    68  Na    c    -0.005506    6.938003    2.300957    0.000000    1.000000
    69  Cl    c     4.512062   -0.012043   -4.487764    0.000000    1.485000
    70  Cl    c    -0.004275   -0.012043   -4.487764    0.000000    1.485000
    71  Na    c    -2.393366    0.000465    6.588897    0.000000    1.000000
    72  Na    c     6.901153    0.000465    6.588897    0.000000    1.000000
    73  Na    c    -1.776945   -4.475096    2.246516    0.000000    1.000000
    74  Na    c     6.284732   -4.475096    2.246516    0.000000    1.000000
    75  Na    c     2.253894    7.155635    4.531926    0.000000    1.000000
    76  Na    c     2.253894   -2.562823   -4.456668    0.000000    1.000000
    77  O     c    -2.274780    2.256560    6.793007    0.000000    0.183000
    78  O     c     6.782567    2.256560    6.793007    0.000000    0.183000
    79  Cl    c     9.028074    0.023814   -0.000446    0.000000    1.485000
    80  Cl    c    -4.520287    0.023814   -0.000446    0.000000    1.485000
    81  Na    c     8.993586    2.592029    2.180350    0.000000    1.000000
    82  Na    c    -4.485799    2.592029    2.180350    0.000000    1.000000
    83  Na    c     2.253894   -4.474962    6.469916    0.000000    1.000000
    84  Na    c    -2.113611    4.499927   -2.317792    0.000000    1.000000
    85  Na    c     6.621398    4.499927   -2.317792    0.000000    1.000000
    86  O     c     2.253894   -6.802857    2.256322    0.000000    0.183000
    87  O     c    -2.259228   -2.257113    6.774083    0.000000    0.183000
    88  O     c     6.767015   -2.257113    6.774083    0.000000    0.183000
    89  Cl    c     9.053509    0.005568    4.544992    0.000000    1.485000
    90  Cl    c    -4.545722    0.005568    4.544992    0.000000    1.485000
    91  Na    c     8.962957   -2.593668    2.246445    0.000000    1.000000
    92  Na    c    -4.455169   -2.593668    2.246445    0.000000    1.000000
    93  O     c     2.253894    6.707505   -2.198485    0.000000    0.183000
    94  Na    c     2.253894    2.660510    9.012994    0.000000    1.000000
    95  Na    c     2.253894   -6.889935    0.011332    0.000000    1.000000
    96  Cl    c     4.541253   -0.022208    9.084534    0.000000    1.485000
    97  Cl    c    -0.033466   -0.022208    9.084534    0.000000    1.485000
    98  Na    c     4.504940   -6.960977    2.247358    0.000000    1.000000
    99  Na    c     0.002848   -6.960977    2.247358    0.000000    1.000000
   100  O     c    -2.257064    6.740719    2.264970    0.000000    0.183000
   101  O     c     6.764851    6.740719    2.264970    0.000000    0.183000
   102  Na    c     2.253894   -2.628633    9.008086    0.000000    1.000000
   103  Na    c     2.253894   -6.833834    4.498819    0.000000    1.000000
   104  Na    c     4.503219    6.753591   -2.212975    0.000000    1.000000
   105  Na    c     0.004568    6.753591   -2.212975    0.000000    1.000000
   106  Cl    c     4.527985    4.525207   -4.554208    0.000000    1.485000
   107  Cl    c    -0.020198    4.525207   -4.554208    0.000000    1.485000
   108  Na    c    -2.153626    4.505928    6.908425    0.000000    1.000000
   109  Na    c     6.661414    4.505928    6.908425    0.000000    1.000000
   110  Na    c    -2.109914   -4.500065   -2.361760    0.000000    1.000000
   111  Na    c     6.617701   -4.500065   -2.361760    0.000000    1.000000
   112  Na    c    -2.248097    6.688261   -0.000435    0.000000    1.000000
   113  Na    c     6.755885    6.688261   -0.000435    0.000000    1.000000
   114  Na    c     6.722105    2.100289   -4.472166    0.000000    1.000000
   115  Na    c    -2.214318    2.100289   -4.472166    0.000000    1.000000
   116  O     c     2.253894    6.735530    6.746701    0.000000    0.183000
   117  Cl    c     9.070270    4.532079   -0.015035    0.000000    1.485000
   118  Cl    c    -4.562482    4.532079   -0.015035    0.000000    1.485000
   119  Na    c     9.003707    2.399336   -2.190599    0.000000    1.000000
   120  Na    c    -4.495919    2.399336   -2.190599    0.000000    1.000000
   121  Na    c    -2.273731   -2.070139   -4.498240    0.000000    1.000000
   122  Na    c     6.781519   -2.070139   -4.498240    0.000000    1.000000
   123  Na    c    -2.308195    6.635778    4.526380    0.000000    1.000000
   124  Na    c     6.815982    6.635778    4.526380    0.000000    1.000000
   125  O     c     2.253894   -6.749863   -2.240930    0.000000    0.183000
   126  Cl    c     4.520175   -4.519455   -4.546883    0.000000    1.485000
   127  Cl    c    -0.012388   -4.519455   -4.546883    0.000000    1.485000
   128  Na    c     4.508563    6.722286    6.708206    0.000000    1.000000
   129  Na    c    -0.000775    6.722286    6.708206    0.000000    1.000000
   130  Cl    c     9.070738    4.513992    4.534322    0.000000    1.485000
   131  Cl    c    -4.562951    4.513992    4.534322    0.000000    1.485000
   132  Na    c     9.008769   -2.414973   -2.220635    0.000000    1.000000
   133  Na    c    -4.500982   -2.414973   -2.220635    0.000000    1.000000
   134  Na    c    -2.092473   -4.503439    6.886789    0.000000    1.000000
   135  Na    c     6.600260   -4.503439    6.886789    0.000000    1.000000
   136  Na    c     2.253894    0.003735   -6.426911    0.000000    1.000000
   137  Na    c     2.253894    9.062170    2.037775    0.000000    1.000000
   138  O     c    -2.240410   -6.715412    2.255674    0.000000    0.183000
   139  O     c     6.748197   -6.715412    2.255674    0.000000    0.183000
   140  Cl    c     4.540478    4.526490    9.076816    0.000000    1.485000
   141  Cl    c    -0.032691    4.526490    9.076816    0.000000    1.485000
   142  Na    c     4.505231   -6.768270   -2.213899    0.000000    1.000000
   143  Na    c     0.002556   -6.768270   -2.213899    0.000000    1.000000
   144  Cl    c     9.072323   -4.522340   -0.025681    0.000000    1.485000
   145  Cl    c    -4.564536   -4.522340   -0.025681    0.000000    1.485000
   146  Na    c     9.024459    2.368563    6.902934    0.000000    1.000000
   147  Na    c    -4.516672    2.368563    6.902934    0.000000    1.000000
   148  O     c    -2.257160    6.761975   -2.261592    0.000000    0.183000
   149  O     c     6.764948    6.761975   -2.261592    0.000000    0.183000
   150  O     c     2.253894    2.258327   -6.683632    0.000000    0.183000
   151  Na    c    -2.190478    2.079292    9.028444    0.000000    1.000000
   152  Na    c     6.698265    2.079292    9.028444    0.000000    1.000000
   153  Na    c    -2.269372   -6.638884   -0.007553    0.000000    1.000000
   154  Na    c     6.777159   -6.638884   -0.007553    0.000000    1.000000
   155  O     c     2.253894   -6.743823    6.746934    0.000000    0.183000
   156  Cl    c     9.071292   -4.520440    4.538472    0.000000    1.485000
   157  Cl    c    -4.563504   -4.520440    4.538472    0.000000    1.485000
   158  Na    c     9.010740   -2.407759    6.753958    0.000000    1.000000
   159  Na    c    -4.502953   -2.407759    6.753958    0.000000    1.000000
   160  Na    c     2.253894    6.552630   -4.468998    0.000000    1.000000
   161  O     c     2.253894   -2.250192   -6.716143    0.000000    0.183000
   162  Na    c     6.769863   -2.092123    9.017146    0.000000    1.000000
   163  Na    c    -2.262075   -2.092123    9.017146    0.000000    1.000000
   164  Na    c    -2.270348   -6.626213    4.517603    0.000000    1.000000
   165  Na    c     6.778135   -6.626213    4.517603    0.000000    1.000000
   166  Cl    c     4.465231    9.031264    0.019404    0.000000    1.485000
   167  Cl    c     0.042556    9.031264    0.019404    0.000000    1.485000
   168  Na    c     4.500800    2.239250   -6.676149    0.000000    1.000000
   169  Na    c     0.006988    2.239250   -6.676149    0.000000    1.000000
   170  Na    c    10.940396    0.000707    2.234915    0.000000    1.000000
   171  Na    c    -6.432608    0.000707    2.234915    0.000000    1.000000
   172  Cl    c     4.507407   -4.525877    9.082403    0.000000    1.485000
   173  Cl    c     0.000380   -4.525877    9.082403    0.000000    1.485000
   174  Na    c     4.504178   -6.786413    6.721670    0.000000    1.000000
   175  Na    c     0.003610   -6.786413    6.721670    0.000000    1.000000
   176  O     c    -2.261686    6.761359    6.787237    0.000000    0.183000
   177  O     c     6.769473    6.761359    6.787237    0.000000    0.183000
   178  O     c    11.239329    2.249043    2.260410    0.000000    0.183000
   179  O     c    -6.731542    2.249043    2.260410    0.000000    0.183000
   180  Na    c     9.016012    6.545603    2.226080    0.000000    1.000000
   181  Na    c    -4.508224    6.545603    2.226080    0.000000    1.000000
   182  Cl    c     4.510474    9.048126    4.519427    0.000000    1.485000
   183  Cl    c    -0.002687    9.048126    4.519427    0.000000    1.485000
   184  Cl    c     9.019798   -0.003729   -4.521359    0.000000    1.485000
   185  Cl    c    -4.512011   -0.003729   -4.521359    0.000000    1.485000
   186  Na    c     4.505879   -2.224306   -6.698607    0.000000    1.000000
   187  Na    c     0.001908   -2.224306   -6.698607    0.000000    1.000000
   188  Na    c    11.299411    2.217072    0.008126    0.000000    1.000000
   189  Na    c    -6.791624    2.217072    0.008126    0.000000    1.000000
   190  Na    c     2.253894    4.498500   -6.896598    0.000000    1.000000
   191  Na    c     2.253894    8.981128   -2.239431    0.000000    1.000000
   192  O     c    -2.256620   -6.760386   -2.268431    0.000000    0.183000
   193  O     c     6.764408   -6.760386   -2.268431    0.000000    0.183000
   194  O     c    11.226952   -2.248764    2.256759    0.000000    0.183000
   195  O     c    -6.719165   -2.248764    2.256759    0.000000    0.183000
   196  Na    c     2.253894   -0.009277   11.016818    0.000000    1.000000
   197  Na    c     2.253894   -9.052867    2.290505    0.000000    1.000000
   198  Na    c     2.253894    6.485036    9.005102    0.000000    1.000000
   199  Na    c     2.253894   -6.558914   -4.498343    0.000000    1.000000
   200  Na    c    11.251366   -2.216464    0.007172    0.000000    1.000000
   201  Na    c    -6.743579   -2.216464    0.007172    0.000000    1.000000
   202  Na    c    11.169775    2.177254    4.517163    0.000000    1.000000
   203  Na    c    -6.661988    2.177254    4.517163    0.000000    1.000000
   204  Na    c     6.804769    0.006112   -6.913437    0.000000    1.000000
   205  Na    c    -2.296982    0.006112   -6.913437    0.000000    1.000000
   206  Na    c    -2.405472    8.993348    2.273756    0.000000    1.000000
   207  Na    c     6.913259    8.993348    2.273756    0.000000    1.000000
   208  O     c     2.253894    2.255029   11.259383    0.000000    0.183000
   209  O     c    -2.246904    2.248021   -6.744376    0.000000    0.183000
   210  O     c     6.754691    2.248021   -6.744376    0.000000    0.183000
   211  Na    c    11.224342   -2.172929    4.506645    0.000000    1.000000
   212  Na    c    -6.716555   -2.172929    4.506645    0.000000    1.000000
   213  Na    c    11.158414    0.000504   -2.297597    0.000000    1.000000
   214  Na    c    -6.650627    0.000504   -2.297597    0.000000    1.000000
   215  Na    c    11.477474    4.491787    2.293219    0.000000    1.000000
   216  Na    c    -6.969687    4.491787    2.293219    0.000000    1.000000
   217  Na    c     2.253894    8.992500    7.011163    0.000000    1.000000
   218  Na    c     2.253894   -4.490217   -6.943310    0.000000    1.000000
   219  O     c     2.253894   -2.271352   11.255172    0.000000    0.183000
   220  O     c    -2.257146   -6.758358    6.779889    0.000000    0.183000
   221  O     c     6.764933   -6.758358    6.779889    0.000000    0.183000
   222  Cl    c     4.481733   -9.027313    0.019882    0.000000    1.485000
   223  Cl    c     0.026054   -9.027313    0.019882    0.000000    1.485000
   224  Na    c     4.505189    2.224933   11.264372    0.000000    1.000000
   225  Na    c     0.002599    2.224933   11.264372    0.000000    1.000000
   226  Cl    c     9.017637    0.016109    9.042795    0.000000    1.485000
   227  Cl    c    -4.509850    0.016109    9.042795    0.000000    1.485000
   228  Na    c     9.001781   -6.509872    2.249227    0.000000    1.000000
   229  Na    c    -4.493994   -6.509872    2.249227    0.000000    1.000000
   230  Na    c    -2.240622    6.838862   -4.503778    0.000000    1.000000
   231  Na    c     6.748409    6.838862   -4.503778    0.000000    1.000000
   232  O     c    11.266280    2.259097   -2.246099    0.000000    0.183000
   233  O     c    -6.758493    2.259097   -2.246099    0.000000    0.183000
   234  O     c     6.761609   -2.239293   -6.756759    0.000000    0.183000
   235  O     c    -2.253822   -2.239293   -6.756759    0.000000    0.183000
   236  Na    c     9.015412    6.680983   -2.278969    0.000000    1.000000
   237  Na    c    -4.507625    6.680983   -2.278969    0.000000    1.000000
   238  Cl    c     9.057878    4.517232   -4.510465    0.000000    1.485000
   239  Cl    c    -4.550090    4.517232   -4.510465    0.000000    1.485000
   240  Cl    c     4.474409   -9.028619    4.493906    0.000000    1.485000
   241  Cl    c     0.033379   -9.028619    4.493906    0.000000    1.485000
   242  Na    c     4.510202   -2.220340   11.234946    0.000000    1.000000
   243  Na    c    -0.002415   -2.220340   11.234946    0.000000    1.000000
   244  O     c    11.265286   -2.258700   -2.247554    0.000000    0.183000
   245  O     c    -6.757499   -2.258700   -2.247554    0.000000    0.183000
   246  Na    c     2.253894   -6.634673    9.006291    0.000000    1.000000
   247  Na    c     2.253894    4.492367   11.516441    0.000000    1.000000
   248  Na    c     2.253894   -9.005643   -2.354848    0.000000    1.000000
   249  Na    c    11.179149   -0.003649    6.834165    0.000000    1.000000
   250  Na    c    -6.671362   -0.003649    6.834165    0.000000    1.000000
   251  Na    c    11.469714   -4.490261    2.278194    0.000000    1.000000
   252  Na    c    -6.961927   -4.490261    2.278194    0.000000    1.000000
   253  Na    c    -2.234042    4.507526   -6.646967    0.000000    1.000000
   254  Na    c     6.741829    4.507526   -6.646967    0.000000    1.000000
   255  Na    c    -2.308580    9.010441   -2.225024    0.000000    1.000000
   256  Na    c     6.816368    9.010441   -2.225024    0.000000    1.000000
   257  O     c    11.271638    2.254418    6.775699    0.000000    0.183000
   258  O     c    -6.763851    2.254418    6.775699    0.000000    0.183000
   259  Na    c     9.016089    6.709276    6.825162    0.000000    1.000000
   260  Na    c    -4.508301    6.709276    6.825162    0.000000    1.000000
   261  Cl    c     9.051013   -4.516275   -4.515184    0.000000    1.485000
   262  Cl    c    -4.543226   -4.516275   -4.515184    0.000000    1.485000
   263  Na    c    -2.316003   -0.001282   11.370426    0.000000    1.000000
   264  Na    c     6.823790   -0.001282   11.370426    0.000000    1.000000
   265  Na    c    -2.397003   -8.985180    2.253726    0.000000    1.000000
   266  Na    c     6.904790   -8.985180    2.253726    0.000000    1.000000
[...]
    246 y          4.507787      4.600860     0.093073    Cartesian    2.06
    246 z          4.507787      4.624818     0.117031    Cartesian    2.60
    247 x          2.253894      2.253894     0.000000    Cartesian    0.00
    247 y         -2.253894     -2.216116     0.037778    Cartesian   -1.68
    247 z          6.761681      6.778030     0.016349    Cartesian    0.24
    248 x          4.507787      4.603298     0.095510    Cartesian    2.12
    248 y         -4.507787     -4.621198    -0.113411    Cartesian    2.52
    248 z          0.000000     -0.108794    -0.108794    Cartesian    0.00
    249 x          4.507787      4.605734     0.097947    Cartesian    2.17
    249 y         -4.507787     -4.612170    -0.104382    Cartesian    2.32
    249 z          4.507787      4.639974     0.132187    Cartesian    2.93
    250 x          2.253894      2.253894     0.000000    Cartesian    0.00
    250 y          6.761681      6.830590     0.068910    Cartesian    1.02
    250 z          2.253894      2.309532     0.055638    Cartesian    2.47
    251 x         -2.253894     -2.244530     0.009364    Cartesian   -0.42
    251 y          2.253894      2.249652    -0.004242    Cartesian   -0.19
    251 z         -2.253894     -2.214420     0.039473    Cartesian   -1.75
    252 x         -2.253894     -2.257227    -0.003333    Cartesian    0.15
    252 y         -2.253894     -2.249572     0.004321    Cartesian   -0.19
    252 z         -2.253894     -2.246046     0.007847    Cartesian   -0.35
    253 x          4.507787      4.508941     0.001154    Cartesian    0.03
    253 y          0.000000     -0.014437    -0.014437    Cartesian    0.00
    253 z         -4.507787     -4.490660     0.017128    Cartesian   -0.38
    254 x         -2.253894     -2.274809    -0.020915    Cartesian    0.93
    254 y          2.253894      2.256578     0.002684    Cartesian    0.12
    254 z          6.761681      6.793014     0.031333    Cartesian    0.46
    255 x          9.015574      9.030060     0.014486    Cartesian    0.16
    255 y          0.000000      0.025491     0.025491    Cartesian    0.00
    255 z          0.000000      0.002194     0.002194    Cartesian    0.00
    256 x          2.253894      2.253894     0.000000    Cartesian    0.00
    256 y         -6.761681     -6.802985    -0.041304    Cartesian    0.61
    256 z          2.253894      2.256331     0.002437    Cartesian    0.11
    257 x         -2.253894     -2.259228    -0.005334    Cartesian    0.24
    257 y         -2.253894     -2.257123    -0.003229    Cartesian    0.14
    257 z          6.761681      6.774080     0.012399    Cartesian    0.18
    258 x          9.015574      9.056899     0.041324    Cartesian    0.46
    258 y          0.000000      0.007544     0.007544    Cartesian    0.00
    258 z          4.507787      4.543309     0.035522    Cartesian    0.79
    259 x          2.253894      2.253894     0.000000    Cartesian    0.00
    259 y          6.761681      6.707538    -0.054143    Cartesian   -0.80
    259 z         -2.253894     -2.198420     0.055473    Cartesian   -2.46
    260 x          4.507787      4.536736     0.028948    Cartesian    0.64
    260 y          0.000000     -0.024210    -0.024210    Cartesian    0.00
    260 z          9.015574      9.086670     0.071096    Cartesian    0.79
    261 x         -2.253894     -2.257034    -0.003141    Cartesian    0.14
    261 y          6.761681      6.740709    -0.020972    Cartesian   -0.31
    261 z          2.253894      2.264968     0.011075    Cartesian    0.49
    262 x          4.507787      4.528377     0.020590    Cartesian    0.46
    262 y          4.507787      4.527105     0.019318    Cartesian    0.43
    262 z         -4.507787     -4.561589    -0.053801    Cartesian    1.19
    263 x          2.253894      2.253894     0.000000    Cartesian    0.00
    263 y          6.761681      6.735610    -0.026071    Cartesian   -0.39
    263 z          6.761681      6.746651    -0.015030    Cartesian   -0.22
    264 x          9.015574      9.075556     0.059981    Cartesian    0.67
    264 y          4.507787      4.531363     0.023576    Cartesian    0.52
    264 z          0.000000     -0.010547    -0.010547    Cartesian    0.00
    265 x          2.253894      2.253894     0.000000    Cartesian    0.00
    265 y         -6.761681     -6.749899     0.011782    Cartesian   -0.17
    265 z         -2.253894     -2.240877     0.013016    Cartesian   -0.58
    266 x          4.507787      4.519787     0.012000    Cartesian    0.27
    266 y         -4.507787     -4.520303    -0.012515    Cartesian    0.28
    266 z         -4.507787     -4.550740    -0.042952    Cartesian    0.95
    267 x          9.015574      9.072187     0.056613    Cartesian    0.63
    267 y          4.507787      4.512302     0.004514    Cartesian    0.10
    267 z          4.507787      4.531883     0.024095    Cartesian    0.53
    268 x         -2.253894     -2.240366     0.013528    Cartesian   -0.60
    268 y         -6.761681     -6.715413     0.046268    Cartesian   -0.68
    268 z          2.253894      2.255670     0.001777    Cartesian    0.08
    269 x          4.507787      4.538562     0.030775    Cartesian    0.68
    269 y          4.507787      4.528202     0.020415    Cartesian    0.45
    269 z          9.015574      9.080977     0.065403    Cartesian    0.73
    270 x          9.015574      9.078034     0.062460    Cartesian    0.69
    270 y         -4.507787     -4.522995    -0.015207    Cartesian    0.34
    270 z          0.000000     -0.023572    -0.023572    Cartesian    0.00
    271 x         -2.253894     -2.257154    -0.003260    Cartesian    0.14
    271 y          6.761681      6.761984     0.000304    Cartesian    0.00
    271 z         -2.253894     -2.261614    -0.007720    Cartesian    0.34
    272 x          2.253894      2.253894     0.000000    Cartesian    0.00
    272 y          2.253894      2.258366     0.004473    Cartesian    0.20
    272 z         -6.761681     -6.683646     0.078034    Cartesian   -1.15
    273 x          2.253894      2.253894     0.000000    Cartesian    0.00
    273 y         -6.761681     -6.743865     0.017815    Cartesian   -0.26
    273 z          6.761681      6.746877    -0.014804    Cartesian   -0.22
    274 x          9.015574      9.076377     0.060803    Cartesian    0.67
    274 y         -4.507787     -4.521065    -0.013278    Cartesian    0.29
    274 z          4.507787      4.536818     0.029031    Cartesian    0.64
    275 x          2.253894      2.253894     0.000000    Cartesian    0.00
    275 y         -2.253894     -2.250234     0.003660    Cartesian   -0.16
    275 z         -6.761681     -6.716137     0.045543    Cartesian   -0.67
    276 x          4.507787      4.456567    -0.051220    Cartesian   -1.14
    276 y          9.015574      9.031749     0.016174    Cartesian    0.18
    276 z          0.000000      0.024647     0.024647    Cartesian    0.00
    277 x          4.507787      4.504917    -0.002871    Cartesian   -0.06
    277 y         -4.507787     -4.524598    -0.016810    Cartesian    0.37
    277 z          9.015574      9.087321     0.071747    Cartesian    0.80
    278 x         -2.253894     -2.261690    -0.007796    Cartesian    0.35
    278 y          6.761681      6.761352    -0.000329    Cartesian   -0.00
    278 z          6.761681      6.787271     0.025590    Cartesian    0.38
    279 x         11.269468     11.239325    -0.030143    Cartesian   -0.27
    279 y          2.253894      2.249072    -0.004822    Cartesian   -0.21
    279 z          2.253894      2.260397     0.006503    Cartesian    0.29
    280 x          4.507787      4.503490    -0.004297    Cartesian   -0.10
    280 y          9.015574      9.045349     0.029775    Cartesian    0.33
    280 z          4.507787      4.517936     0.010149    Cartesian    0.23
    281 x          9.015574      9.019182     0.003607    Cartesian    0.04
    281 y          0.000000     -0.005452    -0.005452    Cartesian    0.00
    281 z         -4.507787     -4.522551    -0.014764    Cartesian    0.33
    282 x         -2.253894     -2.256614    -0.002721    Cartesian    0.12
    282 y         -6.761681     -6.760390     0.001291    Cartesian   -0.02
    282 z         -2.253894     -2.268457    -0.014564    Cartesian    0.65
    283 x         11.269468     11.226966    -0.042502    Cartesian   -0.38
    283 y         -2.253894     -2.248789     0.005105    Cartesian   -0.23
    283 z          2.253894      2.256757     0.002863    Cartesian    0.13
    284 x          2.253894      2.253894     0.000000    Cartesian    0.00
    284 y          2.253894      2.255085     0.001191    Cartesian    0.05
    284 z         11.269468     11.259419    -0.010049    Cartesian   -0.09
    285 x         -2.253894     -2.246902     0.006992    Cartesian   -0.31
    285 y          2.253894      2.248000    -0.005894    Cartesian   -0.26
    285 z         -6.761681     -6.744394     0.017287    Cartesian   -0.26
    286 x          2.253894      2.253894     0.000000    Cartesian    0.00
    286 y         -2.253894     -2.271423    -0.017529    Cartesian    0.78
    286 z         11.269468     11.255164    -0.014304    Cartesian   -0.13
    287 x         -2.253894     -2.257138    -0.003244    Cartesian    0.14
    287 y         -6.761681     -6.758356     0.003325    Cartesian   -0.05
    287 z          6.761681      6.779920     0.018239    Cartesian    0.27
    288 x          4.507787      4.476169    -0.031619    Cartesian   -0.70
    288 y         -9.015574     -9.025096    -0.009522    Cartesian    0.11
    288 z          0.000000      0.024185     0.024185    Cartesian    0.00
    289 x          9.015574      9.015745     0.000171    Cartesian    0.00
    289 y          0.000000      0.018204     0.018204    Cartesian    0.00
    289 z          9.015574      9.043885     0.028311    Cartesian    0.31
    290 x         11.269468     11.266287    -0.003181    Cartesian   -0.03
    290 y          2.253894      2.259126     0.005233    Cartesian    0.23
    290 z         -2.253894     -2.246097     0.007797    Cartesian   -0.35
    291 x          6.761681      6.761617    -0.000064    Cartesian   -0.00
    291 y         -2.253894     -2.239268     0.014625    Cartesian   -0.65
    291 z         -6.761681     -6.756773     0.004908    Cartesian   -0.07
    292 x          9.015574      9.063050     0.047475    Cartesian    0.53
    292 y          4.507787      4.518191     0.010404    Cartesian    0.23
    292 z         -4.507787     -4.511321    -0.003534    Cartesian    0.08
    293 x          4.507787      4.468039    -0.039749    Cartesian   -0.88
    293 y         -9.015574     -9.026845    -0.011271    Cartesian    0.13
    293 z          4.507787      4.490300    -0.017487    Cartesian   -0.39
    294 x         11.269468     11.265279    -0.004189    Cartesian   -0.04
    294 y         -2.253894     -2.258731    -0.004838    Cartesian    0.21
    294 z         -2.253894     -2.247553     0.006340    Cartesian   -0.28
    295 x         11.269468     11.271623     0.002154    Cartesian    0.02
    295 y          2.253894      2.254435     0.000542    Cartesian    0.02
    295 z          6.761681      6.775734     0.014053    Cartesian    0.21
    296 x          9.015574      9.055086     0.039511    Cartesian    0.44
    296 y         -4.507787     -4.516944    -0.009157    Cartesian    0.20
    296 z         -4.507787     -4.514876    -0.007089    Cartesian    0.16
    297 x          2.253894      2.253894     0.000000    Cartesian    0.00
    297 y          6.761681      6.750019    -0.011662    Cartesian   -0.17
    297 z         -6.761681     -6.754060     0.007620    Cartesian   -0.11
    298 x         -2.253894     -2.252531     0.001362    Cartesian   -0.06
    298 y          2.253894      2.238287    -0.015607    Cartesian   -0.69
    298 z         11.269468     11.275152     0.005684    Cartesian    0.05
    299 x         11.269468     11.267744    -0.001724    Cartesian   -0.02
    299 y         -2.253894     -2.259194    -0.005300    Cartesian    0.24
    299 z          6.761681      6.762389     0.000708    Cartesian    0.01
    300 x          9.015574      9.067350     0.051776    Cartesian    0.57
    300 y          4.507787      4.513285     0.005497    Cartesian    0.12
    300 z          9.015574      9.030135     0.014561    Cartesian    0.16
    301 x          2.253894      2.253894     0.000000    Cartesian    0.00
    301 y         11.269468     11.279938     0.010470    Cartesian    0.09
    301 z          2.253894      2.245595    -0.008299    Cartesian   -0.37
    302 x          4.507787      4.553492     0.045705    Cartesian    1.01
    302 y          9.015574      9.047436     0.031862    Cartesian    0.35
    302 z         -4.507787     -4.508764    -0.000977    Cartesian    0.02
    303 x         -2.253894     -2.260809    -0.006915    Cartesian    0.31
    303 y         -2.253894     -2.240568     0.013325    Cartesian   -0.59
    303 z         11.269468     11.273514     0.004046    Cartesian    0.04
    304 x         11.269468     11.275734     0.006266    Cartesian    0.06
    304 y          6.761681      6.747477    -0.014204    Cartesian   -0.21
    304 z          2.253894      2.257111     0.003218    Cartesian    0.14
    305 x          4.507787      4.497592    -0.010195    Cartesian   -0.23
    305 y          0.000000      0.000829     0.000829    Cartesian    0.00
    305 z         -9.015574     -9.060377    -0.044802    Cartesian    0.50
    306 x          9.015574      9.020660     0.005086    Cartesian    0.06
    306 y          9.015574      9.057239     0.041664    Cartesian    0.46
    306 z          0.000000     -0.005457    -0.005457    Cartesian    0.00
    307 x          9.015574      9.060314     0.044739    Cartesian    0.50
    307 y         -4.507787     -4.507450     0.000337    Cartesian   -0.01
    307 z          9.015574      9.038732     0.023157    Cartesian    0.26
    308 x          2.253894      2.253894     0.000000    Cartesian    0.00
    308 y         -6.761681     -6.743877     0.017803    Cartesian   -0.26
    308 z         -6.761681     -6.769172    -0.007491    Cartesian    0.11
    309 x          9.015574      9.036819     0.021244    Cartesian    0.24
    309 y          9.015574      9.062321     0.046747    Cartesian    0.52
    309 z          4.507787      4.523795     0.016007    Cartesian    0.36
    310 x          2.253894      2.253894     0.000000    Cartesian    0.00
    310 y          6.761681      6.735812    -0.025868    Cartesian   -0.38
    310 z         11.269468     11.276974     0.007506    Cartesian    0.07
    311 x         13.523362     13.585790     0.062428    Cartesian    0.46
    311 y          0.000000      0.001430     0.001430    Cartesian    0.00
    311 z          0.000000      0.034377     0.034377    Cartesian    0.00
    312 x          4.507787      4.516951     0.009164    Cartesian    0.20
    312 y          9.015574      9.054014     0.038439    Cartesian    0.43
    312 z          9.015574      9.044462     0.028888    Cartesian    0.32
    313 x          2.253894      2.253894     0.000000    Cartesian    0.00
    313 y         11.269468     11.260569    -0.008899    Cartesian   -0.08
    313 z         -2.253894     -2.261921    -0.008027    Cartesian    0.36
    314 x          6.761681      6.764572     0.002891    Cartesian    0.04
    314 y          6.761681      6.768757     0.007076    Cartesian    0.10
    314 z         -6.761681     -6.757226     0.004455    Cartesian   -0.07
    315 x         11.269468     11.267999    -0.001469    Cartesian   -0.01
    315 y         -6.761681     -6.746051     0.015630    Cartesian   -0.23
    315 z          2.253894      2.256902     0.003009    Cartesian    0.13
    316 x          4.507787      4.530673     0.022885    Cartesian    0.51
    316 y         -9.015574     -9.051549    -0.035975    Cartesian    0.40
    316 z         -4.507787     -4.527094    -0.019306    Cartesian    0.43
    317 x         13.523362     13.604705     0.081343    Cartesian    0.60
    317 y          0.000000     -0.010802    -0.010802    Cartesian    0.00
    317 z          4.507787      4.481014    -0.026774    Cartesian   -0.59
    318 x          6.761681      6.770204     0.008523    Cartesian    0.13
    318 y         11.269468     11.262321    -0.007147    Cartesian   -0.06
    318 z          2.253894      2.258978     0.005085    Cartesian    0.23
    319 x         11.269468     11.276990     0.007522    Cartesian    0.07
    319 y          6.761681      6.763054     0.001373    Cartesian    0.02
    319 z         -2.253894     -2.254910    -0.001016    Cartesian    0.05
    320 x          4.507787      4.501355    -0.006432    Cartesian   -0.14
    320 y          4.507787      4.516707     0.008920    Cartesian    0.20
    320 z         -9.015574     -9.040694    -0.025120    Cartesian    0.28
    321 x          2.253894      2.253894     0.000000    Cartesian    0.00
    321 y        -11.269468    -11.281053    -0.011585    Cartesian    0.10
    321 z          2.253894      2.255225     0.001331    Cartesian    0.06
    322 x          9.015574      9.014915    -0.000660    Cartesian   -0.01
    322 y         -9.015574     -9.076190    -0.060615    Cartesian    0.67
    322 z          0.000000     -0.006210    -0.006210    Cartesian    0.00
    323 x          2.253894      2.253894     0.000000    Cartesian    0.00
    323 y         11.269468     11.253654    -0.015814    Cartesian   -0.14
    323 z          6.761681      6.782363     0.020683    Cartesian    0.31
    324 x          2.253894      2.253894     0.000000    Cartesian    0.00
    324 y         -6.761681     -6.759552     0.002129    Cartesian   -0.03
    324 z         11.269468     11.284766     0.015298    Cartesian    0.14
    325 x          9.015574      9.021755     0.006181    Cartesian    0.07
    325 y         -9.015574     -9.079393    -0.063818    Cartesian    0.71
    325 z          4.507787      4.521152     0.013364    Cartesian    0.30
    326 x          4.507787      4.531403     0.023616    Cartesian    0.52
    326 y          0.000000      0.011567     0.011567    Cartesian    0.00
    326 z         13.523362     13.588070     0.064708    Cartesian    0.48
--------------------------------------------------------------------------------


  Time to end of optimisation  =       51.3795 seconds


  Peak dynamic memory used =      97.36 MB 


  Timing analysis for GULP :

--------------------------------------------------------------------------------
  Task / Subroutine                                          Time (Seconds)
--------------------------------------------------------------------------------
  Calculation of reciprocal space energy and derivatives          0.0006
  Calculation of reciprocal space energy using symmetry           0.0008
  Calculation of real space energy and derivatives                0.0033
  Calculation of real space energy using symmetry                 0.0080
  Calculation for region 1 energy and derivatives (2-b)          28.1261
  Calculation for region 2a energy                               21.1478
  Calculation for region 2b energy                                0.0082
  Calculation and manipulation of Hessian matrix                  0.1010
  Calculation of matrix inversion                                 1.7649
  Symmetry generation of equivalent positions                     0.0041
--------------------------------------------------------------------------------
  Total CPU time                                                 51.3796
--------------------------------------------------------------------------------


  Dump file written as Na3OCl.grs


  Job Finished at 10:49.11  4th December   2020                               

