********************************************************************************
*                       GENERAL UTILITY LATTICE PROGRAM                        *
*                                 Julian Gale                                  *
*                       Curtin Institute for Computation                       *
*                    School of Molecular and Life Sciences                     *
*                    Curtin University, Western Australia                      *
********************************************************************************
* Version = 5.2.0 * Last modified =  10th September 2020                       *
********************************************************************************
*  optimise     - perform optimisation run                                     *
*  conp         - constant pressure calculation                                *
*  property     - calculate properties for final geometry                      *
*  defect       - perform defect calculation after bulk run                    *
*  compare      - compare initial and final structures                         *
********************************************************************************

  Job Started  at 10:48.51  4th December   2020                               

  Number of CPUs =     1


  Total number of configurations input =      1

********************************************************************************
*  Input for Configuration =   1                                               *
********************************************************************************

  Formula = ClONa3                                                      

  Number of irreducible atoms/shells =       5


  Total number atoms/shells =       7

  Dimensionality = 3               :  Bulk   


  Symmetry :

  Crystal family                   :  Cubic       
  Crystal class  (Groth - 1921)    :  Cubic Hexakisoctahedral              

  Space group (centrosymmetric)    :  P M 3 M         

  Patterson group                  :  P m -3 m 

  Cartesian lattice vectors (Angstroms) :

        4.504000    0.000000    0.000000
        0.000000    4.504000    0.000000
        0.000000    0.000000    4.504000

  Cell parameters (Angstroms/Degrees):

  a =       4.5040    alpha =  90.0000
  b =       4.5040    beta  =  90.0000
  c =       4.5040    gamma =  90.0000

  Initial cell volume =          91.368216 Angs**3

  Temperature of configuration =   0.00     K 

  Pressure of configuration =         0.000 GPa 

  Fractional coordinates of asymmetric unit :

--------------------------------------------------------------------------------
   No.  Atomic       x           y          z         Charge      Occupancy
        Label      (Frac)      (Frac)     (Frac)        (e)         (Frac)  
--------------------------------------------------------------------------------
      1 Cl    c    0.000000    0.000000    0.000000     1.48500    1.000000    
      2 O     c    0.500000    0.500000    0.500000     0.18300    1.000000    
      3 Na    c    0.500000    0.500000    0.000000     1.00000    1.000000    
      4 Cl    s    0.000000    0.000000    0.000000    -2.48500    1.000000    
      5 O     s    0.500000    0.500000    0.500000    -2.18300    1.000000    
--------------------------------------------------------------------------------


  Constraints : 

--------------------------------------------------------------------------------
  Constraint no.      Unconstrained     Constrained    Coefficient    Offset
                         Variable         Variable
--------------------------------------------------------------------------------
           1              Strain 1        Strain 2       1.00000      0.0000
           2              Strain 1        Strain 3       1.00000      0.0000
--------------------------------------------------------------------------------


********************************************************************************
*  General input information                                                   *
********************************************************************************

  Species output for all configurations : 

--------------------------------------------------------------------------------
  Species    Type    Atomic    Atomic    Charge       Radii (Angs)     Library
                     Number     Mass       (e)     Cova   Ionic  VDW   Symbol
--------------------------------------------------------------------------------
    Na       Core       11      22.99   1.000000   0.970  0.000  2.300          
    O        Core        8      16.00   0.183000   0.730  0.000  1.360          
    O        Shell       8       0.00  -2.183000   0.730  0.000  1.360          
    Cl       Core       17      35.45   1.485000   0.990  0.000  1.650          
    Cl       Shell      17       0.00  -2.485000   0.990  0.000  1.650          
    Mg       Core       12      24.31   0.415000   1.100  0.000  0.000          
    Mg       Shell      12       0.00   1.585000   1.100  0.000  0.000          
    Ca       Core       20      40.08  -1.135000   0.990  0.000  0.000          
    Ca       Shell      20       0.00   3.135000   0.990  0.000  0.000          
    Sr       Core       38      87.62  -1.251000   1.120  0.000  0.000          
    Sr       Shell      38       0.00   3.251000   1.120  0.000  0.000          
    Ba       Core       56     137.33  -7.203000   1.340  0.000  0.000          
    Ba       Shell      56       0.00   9.203000   1.340  0.000  0.000          
--------------------------------------------------------------------------------


  Lattice summation method               =    Ewald          (3-D)
                                         =    Parry          (2-D)
                                         =    Saunders et al (1-D)
  Accuracy factor for lattice sums       =   12.000


  Analytic derivatives to be used

  Time limit = Infinity

  Maximum range for interatomic potentials =    100000.000000 Angstroms

  General interatomic potentials :

--------------------------------------------------------------------------------
Atom  Types   Potential      Parameter       Value         Units   Cutoffs(Ang)
  1     2                                                            Min /  Max 
--------------------------------------------------------------------------------
O    c O    s Spring (c-s)  Spring k 2       593.71600    eV*Ang^-2 0.000  0.800
                            Spring k 4       0.0000000    eV*Ang^-4 
--------------------------------------------------------------------------------
Cl   c Cl   s Spring (c-s)  Spring k 2       29.380000    eV*Ang^-2 0.000  0.800
                            Spring k 4       0.0000000    eV*Ang^-4 
--------------------------------------------------------------------------------
Mg   c Mg   s Spring (c-s)  Spring k 2       361.60000    eV*Ang^-2 0.000  0.800
                            Spring k 4       0.0000000    eV*Ang^-4 
--------------------------------------------------------------------------------
Ca   c Ca   s Spring (c-s)  Spring k 2       110.20000    eV*Ang^-2 0.000  0.800
                            Spring k 4       0.0000000    eV*Ang^-4 
--------------------------------------------------------------------------------
Sr   c Sr   s Spring (c-s)  Spring k 2       71.700000    eV*Ang^-2 0.000  0.800
                            Spring k 4       0.0000000    eV*Ang^-4 
--------------------------------------------------------------------------------
Ba   c Ba   s Spring (c-s)  Spring k 2       495.20000    eV*Ang^-2 0.000  0.800
                            Spring k 4       0.0000000    eV*Ang^-4 
--------------------------------------------------------------------------------
Na   c Na   c Buckingham    Buckingham A     1788.1900    eV        0.000 12.000
                            Buckingham rho  0.15900000    Ang       
                            Buckingham C     0.0000000    eV*Ang^6  
--------------------------------------------------------------------------------
Na   c O    s Buckingham    Buckingham A     1226.8400    eV        0.000 12.000
                            Buckingham rho  0.30700000    Ang       
                            Buckingham C     0.0000000    eV*Ang^6  
--------------------------------------------------------------------------------
Na   c Cl   s Buckingham    Buckingham A     2314.7000    eV        0.000 12.000
                            Buckingham rho  0.29000000    Ang       
                            Buckingham C     0.0000000    eV*Ang^6  
--------------------------------------------------------------------------------
O    s O    s Buckingham    Buckingham A     22764.300    eV        0.000 12.000
                            Buckingham rho  0.14900000    Ang       
                            Buckingham C     13.190000    eV*Ang^6  
--------------------------------------------------------------------------------
O    s Cl   s Buckingham    Buckingham A     8286.9100    eV        0.000 12.000
                            Buckingham rho  0.25900000    Ang       
                            Buckingham C     62.200000    eV*Ang^6  
--------------------------------------------------------------------------------
Cl   s Cl   s Buckingham    Buckingham A     1227.2000    eV        0.000 12.000
                            Buckingham rho  0.32100000    Ang       
                            Buckingham C     14.530000    eV*Ang^6  
--------------------------------------------------------------------------------
O    s Mg   s Buckingham    Buckingham A     1428.5000    eV        0.000 12.000
                            Buckingham rho  0.29450000    Ang       
                            Buckingham C     0.0000000    eV*Ang^6  
--------------------------------------------------------------------------------
Mg   s Cl   s Buckingham    Buckingham A     4914.5400    eV        0.000 12.000
                            Buckingham rho  0.25700000    Ang       
                            Buckingham C     0.0000000    eV*Ang^6  
--------------------------------------------------------------------------------
O    s Ca   s Buckingham    Buckingham A     1090.4000    eV        0.000 12.000
                            Buckingham rho  0.34370000    Ang       
                            Buckingham C     0.0000000    eV*Ang^6  
--------------------------------------------------------------------------------
Cl   s Ca   s Buckingham    Buckingham A     2302.0000    eV        0.000 12.000
                            Buckingham rho  0.34020000    Ang       
                            Buckingham C     0.0000000    eV*Ang^6  
--------------------------------------------------------------------------------
O    s Sr   s Buckingham    Buckingham A     959.10000    eV        0.000 12.000
                            Buckingham rho  0.37210000    Ang       
                            Buckingham C     0.0000000    eV*Ang^6  
--------------------------------------------------------------------------------
Cl   s Sr   s Buckingham    Buckingham A     2191.0900    eV        0.000 12.000
                            Buckingham rho  0.34570000    Ang       
                            Buckingham C     0.0000000    eV*Ang^6  
--------------------------------------------------------------------------------
O    s Ba   s Buckingham    Buckingham A     905.70000    eV        0.000 12.000
                            Buckingham rho  0.39760000    Ang       
                            Buckingham C     0.0000000    eV*Ang^6  
--------------------------------------------------------------------------------
Cl   s Ba   s Buckingham    Buckingham A     2704.5500    eV        0.000 12.000
                            Buckingham rho  0.35280000    Ang       
                            Buckingham C     0.0000000    eV*Ang^6  
--------------------------------------------------------------------------------

********************************************************************************
*  Output for configuration   1                                                *
********************************************************************************


  Components of energy : 

--------------------------------------------------------------------------------
  Interatomic potentials     =           5.13022605 eV    
  Monopole - monopole (real) =         -10.03624526 eV    
  Monopole - monopole (recip)=         -29.53581274 eV    
  Monopole - monopole (total)=         -39.57205800 eV    
--------------------------------------------------------------------------------
  Total lattice energy       =         -34.44183194 eV    
--------------------------------------------------------------------------------
  Total lattice energy       =           -3323.1103 kJ/(mole unit cells)
--------------------------------------------------------------------------------


  Number of variables =        1

  Maximum number of calculations  =          1000
  Maximum Hessian update interval =            10
  Maximum step size               =   1.000000000
  Maximum parameter tolerance     =   0.000010000
  Maximum function  tolerance     =   0.000010000
  Maximum gradient  tolerance     =   0.001000000
  Maximum gradient  component     =   0.010000000

  Symmetry constrained optimisation

  Symmetry used for second derivatives

  Cell parameters to be optimised using strains

  Newton-Raphson optimiser to be used

  BFGS hessian update to be used

  Lower half triangular hessian to be used

  Start of bulk optimisation :

  Cycle:      0 Energy:       -34.441832  Gnorm:      0.196570  CPU:    0.013
  ** Hessian calculated **
  Cycle:      1 Energy:       -34.441914  Gnorm:      0.000103  CPU:    0.016


  **** Optimisation achieved ****


  Final energy =     -34.44191447 eV
  Final Gnorm  =       0.00000000

  Components of energy : 

--------------------------------------------------------------------------------
  Interatomic potentials     =           5.09689708 eV    
  Monopole - monopole (real) =         -10.02781331 eV    
  Monopole - monopole (recip)=         -29.51099824 eV    
  Monopole - monopole (total)=         -39.53881155 eV    
--------------------------------------------------------------------------------
  Total lattice energy       =         -34.44191447 eV    
--------------------------------------------------------------------------------
  Total lattice energy       =           -3323.1183 kJ/(mole unit cells)
--------------------------------------------------------------------------------

  Final asymmetric unit coordinates :

--------------------------------------------------------------------------------
   No.  Atomic        x           y           z         Radius
        Label       (Frac)      (Frac)      (Frac)       (Angs) 
--------------------------------------------------------------------------------
     1  Cl    c     0.000000    0.000000    0.000000    0.000000
     2  O     c     0.500000    0.500000    0.500000    0.000000
     3  Na    c     0.500000    0.500000    0.000000    0.000000
     4  Cl    s     0.000000    0.000000    0.000000    0.000000
     5  O     s     0.500000    0.500000    0.500000    0.000000
--------------------------------------------------------------------------------

  Final Cartesian lattice vectors (Angstroms) :

        4.507787    0.000000    0.000000
        0.000000    4.507787    0.000000
        0.000000    0.000000    4.507787


  Final cell parameters and derivatives :

--------------------------------------------------------------------------------
       a            4.507787 Angstrom     dE/de1(xx)     0.000000 eV/strain
       b            4.507787 Angstrom     dE/de2(yy)     0.000000 eV/strain
       c            4.507787 Angstrom     dE/de3(zz)     0.000000 eV/strain
       alpha       90.000000 Degrees      dE/de4(yz)     0.000000 eV/strain
       beta        90.000000 Degrees      dE/de5(xz)     0.000000 eV/strain
       gamma       90.000000 Degrees      dE/de6(xy)     0.000000 eV/strain
--------------------------------------------------------------------------------

  Primitive cell volume =            91.598892 Angs**3

  Density of cell =      2.183054 g/cm**3

  Non-primitive cell volume =            91.598892 Angs**3


  Final internal derivatives :

--------------------------------------------------------------------------------
   No.  Atomic          a             b             c           Radius
        Label          (eV)          (eV)          (eV)        (eV/Angs)
--------------------------------------------------------------------------------
      1 Cl    c       0.000000      0.000000      0.000000      0.000000
      2 O     c       0.000000      0.000000      0.000000      0.000000
      3 Na    c       0.000000      0.000000      0.000000      0.000000
      4 Cl    s       0.000000      0.000000      0.000000      0.000000
      5 O     s       0.000000      0.000000      0.000000      0.000000
--------------------------------------------------------------------------------
  Maximum abs         0.000000      0.000000      0.000000      0.000000
--------------------------------------------------------------------------------

  Comparison of initial and final structures : 

--------------------------------------------------------------------------------
  Parameter   Initial value   Final value   Difference    Units      Percent
--------------------------------------------------------------------------------
    Volume        91.368216     91.598892     0.230676    Angs**3      0.25
    a              4.504000      4.507787     0.003787    Angstroms    0.08
    b              4.504000      4.507787     0.003787    Angstroms    0.08
    c              4.504000      4.507787     0.003787    Angstroms    0.08
    alpha         90.000000     90.000000     0.000000    Degrees      0.00
    beta          90.000000     90.000000     0.000000    Degrees      0.00
    gamma         90.000000     90.000000     0.000000    Degrees      0.00
      1 x          0.000000      0.000000     0.000000    Fractional   0.00
      1 y          0.000000      0.000000     0.000000    Fractional   0.00
      1 z          0.000000      0.000000     0.000000    Fractional   0.00
      2 x          0.500000      0.500000     0.000000    Fractional   0.00
      2 y          0.500000      0.500000     0.000000    Fractional   0.00
      2 z          0.500000      0.500000     0.000000    Fractional   0.00
      3 x          0.500000      0.500000     0.000000    Fractional   0.00
      3 y          0.500000      0.500000     0.000000    Fractional   0.00
      3 z          0.000000      0.000000     0.000000    Fractional   0.00
      4 x          0.000000      0.000000     0.000000    Fractional   0.00
      4 y          0.000000      0.000000     0.000000    Fractional   0.00
      4 z          0.000000      0.000000     0.000000    Fractional   0.00
      5 x          0.500000      0.500000     0.000000    Fractional   0.00
      5 y          0.500000      0.500000     0.000000    Fractional   0.00
      5 z          0.500000      0.500000     0.000000    Fractional   0.00
--------------------------------------------------------------------------------


  Born effective charge tensors : 

-------------------------------------------------------------------------------
  Atom             x           y             z
-------------------------------------------------------------------------------
    1 Cl    x      -1.0181     -0.0000      0.0000
            y      -0.0000     -1.0181      0.0000
            z       0.0000      0.0000     -1.0181
-------------------------------------------------------------------------------
    2 O     x      -2.2647      0.0000     -0.0000
            y       0.0000     -2.2647     -0.0000
            z      -0.0000     -0.0000     -2.2647
-------------------------------------------------------------------------------
    3 Na    x       1.2258     -0.0000      0.0000
            y      -0.0000      1.2258     -0.0000
            z       0.0000     -0.0000      0.8313
-------------------------------------------------------------------------------




  Elastic Constant Matrix: (Units=GPa)

-------------------------------------------------------------------------------
  Indices      1         2         3         4         5         6    
-------------------------------------------------------------------------------
       1     95.8177   20.0737   20.0737   -0.0000   -0.0000    0.0000
       2     20.0737   95.8177   20.0737   -0.0000   -0.0000    0.0000
       3     20.0737   20.0737   95.8177   -0.0000   -0.0000    0.0000
       4     -0.0000   -0.0000   -0.0000   20.0737   -0.0000    0.0000
       5     -0.0000   -0.0000   -0.0000   -0.0000   20.0737    0.0000
       6      0.0000    0.0000    0.0000    0.0000    0.0000   20.0737
-------------------------------------------------------------------------------


  Elastic Compliance Matrix: (Units=1/GPa)

-------------------------------------------------------------------------------
  Indices      1         2         3         4         5         6    
-------------------------------------------------------------------------------
       1    0.011253 -0.001949 -0.001949  0.000000  0.000000 -0.000000
       2   -0.001949  0.011253 -0.001949  0.000000  0.000000  0.000000
       3   -0.001949 -0.001949  0.011253  0.000000  0.000000 -0.000000
       4    0.000000  0.000000  0.000000  0.049816  0.000000 -0.000000
       5    0.000000  0.000000  0.000000  0.000000  0.049816 -0.000000
       6   -0.000000  0.000000 -0.000000 -0.000000 -0.000000  0.049816
-------------------------------------------------------------------------------

  Mechanical properties :

-------------------------------------------------------------------------------
  Convention :                    Reuss         Voigt         Hill
-------------------------------------------------------------------------------
  Bulk  Modulus (GPa)     =      45.32174      45.32174      45.32174
  Shear Modulus (GPa)     =      24.72085      27.19304      25.95695
-------------------------------------------------------------------------------
  Velocity S-wave (km/s)  =       3.36511       3.52937       3.44822
  Velocity P-wave (km/s)  =       5.98827       6.11304       6.05098
-------------------------------------------------------------------------------
  Compressibility (1/GPa) =    0.02206447
-------------------------------------------------------------------------------
  Stress axis :                     x             y             z
-------------------------------------------------------------------------------
  Youngs Moduli (GPa)     =      88.86373      88.86373      88.86373
-------------------------------------------------------------------------------
  Poissons Ratio (x)      =                     0.17321       0.17321
  Poissons Ratio (y)      =       0.17321                     0.17321
  Poissons Ratio (z)      =       0.17321       0.17321
-------------------------------------------------------------------------------


  Piezoelectric Strain Matrix: (Units=C/m**2)

-------------------------------------------------------------------------------
  Indices      1         2         3         4         5         6    
-------------------------------------------------------------------------------
       x    -0.00000  -0.00000  -0.00000   0.00000  -0.00000  -0.00000
       y    -0.00000  -0.00000   0.00000  -0.00000   0.00000   0.00000
       z    -0.00000  -0.00000  -0.00000  -0.00000   0.00000   0.00000
-------------------------------------------------------------------------------


  Piezoelectric Stress Matrix: (Units=10**-11 C/N)

-------------------------------------------------------------------------------
  Indices      1         2         3         4         5         6    
-------------------------------------------------------------------------------
       x    -0.00000   0.00000   0.00000   0.00000  -0.00000  -0.00000
       y    -0.00000  -0.00000   0.00000  -0.00000   0.00000   0.00000
       z     0.00000   0.00000  -0.00000  -0.00000   0.00000   0.00000
-------------------------------------------------------------------------------


  Static dielectric constant tensor : 

-------------------------------------------------------------------------------
              x         y         z
-------------------------------------------------------------------------------
       x    22.84729   0.00000   0.00000
       y     0.00000  22.84729  -0.00000
       z     0.00000  -0.00000  22.84729
--------------------------------------------------------------------------------

  High frequency dielectric constant tensor : 

-------------------------------------------------------------------------------
              x         y         z
-------------------------------------------------------------------------------
       x     1.47557   0.00000  -0.00000
       y     0.00000   1.47557  -0.00000
       z    -0.00000  -0.00000   1.47557
-------------------------------------------------------------------------------

  Static refractive indices : 

-------------------------------------------------------------------------------
    1 =    4.77988      2 =    4.77988      3 =    4.77988
-------------------------------------------------------------------------------

  High frequency refractive indices : 

-------------------------------------------------------------------------------
    1 =    1.21473      2 =    1.21473      3 =    1.21473
-------------------------------------------------------------------------------


  Time to end of optimisation =       0.0241 seconds

********************************************************************************
*  Defect calculation for configuration   1 :                                  *
********************************************************************************

  Total number of defects =      3

  Total charge on defect  =  -1.00

  Defect centre is at   0.5000   0.1000   0.4000  Frac

  Region 1 radius =  12.0000      Number of ions =    558

  Number of symmetry inequivalent region 1 ions  =    324

  Region 2 radius =  16.0000      Number of ions =    739

  Number of symmetry inequivalent region 2a ions =    403

  Region 2a mode = 4 : screened electrostatics due to region 1 
                       neglect correction to region 1 forces from 2a
                       region 2a displacements based on defects only

  Region 2a ions will only interact with defects in region 1

  Vacancies:

--------------------------------------------------------------------------------
    Specification type     Symbol/Number         x          y          z
--------------------------------------------------------------------------------
    Fractional                               0.500000   0.500000   0.000000
    Fractional                               0.500000   0.000000   0.500000
--------------------------------------------------------------------------------

  Interstitials:

--------------------------------------------------------------------------------
    Specification type     Symbol/Number         x          y          z
--------------------------------------------------------------------------------
    Atom/Fractional         Na               0.500000   0.400000   0.100000
--------------------------------------------------------------------------------


  Symmetry reduced region 1 (Relative to defect centre) :

--------------------------------------------------------------------------------
   No.   Atomic       x            y             z       Radius  Multiplicity   
         Label      (Angs)       (Angs)        (Angs)    (Angs)     
--------------------------------------------------------------------------------
     1  O     c      0.0000       1.8031 *     0.4508 *  0.0000     1          
     2  Na    c      0.0000       1.3523      -1.3523    0.0000     1    Defect
     3  O     c      0.0000      -2.7047 *     0.4508 *  0.0000     1          
     4  Na    c      2.2539 *     1.8031 *     0.4508 *  0.0000     2          
     5  Cl    c      2.2539 *    -0.4508 *    -1.8031 *  0.0000     2          
     6  Na    c      0.0000       1.8031 *     2.7047 *  0.0000     1          
     7  Na    c      0.0000      -2.7047 *    -1.8031 *  0.0000     1          
     8  Cl    c      2.2539 *    -0.4508 *     2.7047 *  0.0000     2          
     9  Na    c      2.2539 *    -2.7047 *     0.4508 *  0.0000     2          
    10  Na    c      0.0000      -2.7047 *     2.7047 *  0.0000     1          
    11  Na    c      0.0000      -0.4508 *    -4.0570 *  0.0000     1          
    12  Na    c      0.0000       4.0570 *     0.4508 *  0.0000     1          
    13  O     c      0.0000       1.8031 *    -4.0570 *  0.0000     1          
    14  Na    c     -4.5078 *    -0.4508 *     0.4508 *  0.0000     2          
    15  O     c      0.0000      -2.7047 *    -4.0570 *  0.0000     1          
    16  O     c     -4.5078 *     1.8031 *     0.4508 *  0.0000     2          
    17  Cl    c      2.2539 *     4.0570 *    -1.8031 *  0.0000     2          
    18  Na    c      2.2539 *     1.8031 *    -4.0570 *  0.0000     2          
    19  Na    c      0.0000      -0.4508 *     4.9586 *  0.0000     1          
    20  Na    c      0.0000      -4.9586 *     0.4508 *  0.0000     1          
    21  Na    c     -4.5078 *     1.8031 *    -1.8031 *  0.0000     2          
    22  O     c      0.0000       1.8031 *     4.9586 *  0.0000     1          
    23  O     c     -4.5078 *    -2.7047 *     0.4508 *  0.0000     2          
    24  Cl    c      2.2539 *     4.0570 *     2.7047 *  0.0000     2          
    25  Na    c      2.2539 *    -2.7047 *    -4.0570 *  0.0000     2          
    26  Na    c     -4.5078 *     1.8031 *     2.7047 *  0.0000     2          
    27  Na    c     -4.5078 *    -2.7047 *    -1.8031 *  0.0000     2          
    28  O     c      0.0000      -2.7047 *     4.9586 *  0.0000     1          
    29  Cl    c      2.2539 *    -4.9586 *    -1.8031 *  0.0000     2          
    30  Na    c      2.2539 *     1.8031 *     4.9586 *  0.0000     2          
    31  Na    c      0.0000       4.0570 *    -4.0570 *  0.0000     1          
    32  Na    c     -4.5078 *    -2.7047 *     2.7047 *  0.0000     2          
    33  Cl    c      2.2539 *    -4.9586 *     2.7047 *  0.0000     2          
    34  Na    c      2.2539 *    -2.7047 *     4.9586 *  0.0000     2          
    35  Na    c      4.5078 *     4.0570 *     0.4508 *  0.0000     2          
    36  Na    c     -4.5078 *    -0.4508 *    -4.0570 *  0.0000     2          
    37  O     c      0.0000       6.3109 *     0.4508 *  0.0000     1          
    38  O     c     -4.5078 *     1.8031 *    -4.0570 *  0.0000     2          
    39  Na    c      0.0000       4.0570 *     4.9586 *  0.0000     1          
    40  Na    c      0.0000      -4.9586 *    -4.0570 *  0.0000     1          
    41  Na    c      0.0000       6.3109 *    -1.8031 *  0.0000     1          
    42  Na    c      0.0000       1.8031 *    -6.3109 *  0.0000     1          
    43  O     c      4.5078 *    -2.7047 *    -4.0570 *  0.0000     2          
    44  Na    c      2.2539 *     6.3109 *     0.4508 *  0.0000     2          
    45  Na    c      4.5078 *    -4.9586 *     0.4508 *  0.0000     2          
    46  Na    c     -4.5078 *    -0.4508 *     4.9586 *  0.0000     2          
    47  Cl    c      2.2539 *    -0.4508 *    -6.3109 *  0.0000     2          
    48  Na    c      0.0000       6.3109 *     2.7047 *  0.0000     1          
    49  Na    c      0.0000      -2.7047 *    -6.3109 *  0.0000     1          
    50  O     c     -4.5078 *     1.8031 *     4.9586 *  0.0000     2          
    51  Cl    c      6.7617 *    -0.4508 *    -1.8031 *  0.0000     2          
    52  Na    c      6.7617 *     1.8031 *     0.4508 *  0.0000     2          
    53  Na    c      0.0000      -4.9586 *     4.9586 *  0.0000     1          
    54  O     c      0.0000      -7.2125 *     0.4508 *  0.0000     1          
    55  O     c      4.5078 *    -2.7047 *     4.9586 *  0.0000     2          
    56  Cl    c      6.7617 *    -0.4508 *     2.7047 *  0.0000     2          
    57  Na    c      6.7617 *    -2.7047 *     0.4508 *  0.0000     2          
    58  Na    c      4.5078 *     4.0570 *    -4.0570 *  0.0000     2          
    59  Na    c      0.0000       1.8031 *     7.2125 *  0.0000     1          
    60  Na    c      0.0000      -7.2125 *    -1.8031 *  0.0000     1          
    61  O     c      0.0000       6.3109 *    -4.0570 *  0.0000     1          
    62  Na    c      2.2539 *    -7.2125 *     0.4508 *  0.0000     2          
    63  Cl    c      2.2539 *    -0.4508 *     7.2125 *  0.0000     2          
    64  Na    c      0.0000      -2.7047 *     7.2125 *  0.0000     1          
    65  Na    c      0.0000      -7.2125 *     2.7047 *  0.0000     1          
    66  O     c     -4.5078 *     6.3109 *     0.4508 *  0.0000     2          
    67  Na    c      2.2539 *     6.3109 *    -4.0570 *  0.0000     2          
    68  Cl    c      2.2539 *     4.0570 *    -6.3109 *  0.0000     2          
    69  Na    c      4.5078 *     4.0570 *     4.9586 *  0.0000     2          
    70  Na    c      4.5078 *    -4.9586 *    -4.0570 *  0.0000     2          
    71  Na    c     -4.5078 *     6.3109 *    -1.8031 *  0.0000     2          
    72  Na    c      4.5078 *     1.8031 *    -6.3109 *  0.0000     2          
    73  O     c      0.0000       6.3109 *     4.9586 *  0.0000     1          
    74  Cl    c      6.7617 *     4.0570 *    -1.8031 *  0.0000     2          
    75  Na    c      6.7617 *     1.8031 *    -4.0570 *  0.0000     2          
    76  Na    c     -4.5078 *     6.3109 *     2.7047 *  0.0000     2          
    77  Na    c     -4.5078 *    -2.7047 *    -6.3109 *  0.0000     2          
    78  O     c      0.0000      -7.2125 *    -4.0570 *  0.0000     1          
    79  Na    c      2.2539 *     6.3109 *     4.9586 *  0.0000     2          
    80  Cl    c      6.7617 *     4.0570 *     2.7047 *  0.0000     2          
    81  Cl    c      2.2539 *    -4.9586 *    -6.3109 *  0.0000     2          
    82  Na    c      6.7617 *    -2.7047 *    -4.0570 *  0.0000     2          
    83  Na    c      4.5078 *    -4.9586 *     4.9586 *  0.0000     2          
    84  O     c      4.5078 *    -7.2125 *     0.4508 *  0.0000     2          
    85  Cl    c      2.2539 *     4.0570 *     7.2125 *  0.0000     2          
    86  Na    c      2.2539 *    -7.2125 *    -4.0570 *  0.0000     2          
    87  Cl    c      6.7617 *    -4.9586 *    -1.8031 *  0.0000     2          
    88  Na    c      6.7617 *     1.8031 *     4.9586 *  0.0000     2          
    89  Na    c      0.0000      -0.4508 *    -8.5648 *  0.0000     1          
    90  Na    c      0.0000       8.5648 *     0.4508 *  0.0000     1          
    91  Na    c     -4.5078 *     1.8031 *     7.2125 *  0.0000     2          
    92  Na    c      4.5078 *    -7.2125 *    -1.8031 *  0.0000     2          
    93  O     c      0.0000      -7.2125 *     4.9586 *  0.0000     1          
    94  O     c      4.5078 *     6.3109 *    -4.0570 *  0.0000     2          
    95  O     c      0.0000       1.8031 *    -8.5648 *  0.0000     1          
    96  Cl    c      6.7617 *    -4.9586 *     2.7047 *  0.0000     2          
    97  Na    c      6.7617 *    -2.7047 *     4.9586 *  0.0000     2          
    98  Na    c      0.0000       6.3109 *    -6.3109 *  0.0000     1          
    99  Na    c      4.5078 *    -2.7047 *     7.2125 *  0.0000     2          
   100  Na    c      4.5078 *    -7.2125 *     2.7047 *  0.0000     2          
   101  O     c      0.0000      -2.7047 *    -8.5648 *  0.0000     1          
   102  Cl    c      2.2539 *    -4.9586 *     7.2125 *  0.0000     2          
   103  Na    c      2.2539 *    -7.2125 *     4.9586 *  0.0000     2          
   104  Na    c      9.0156 *    -0.4508 *     0.4508 *  0.0000     2          
   105  Cl    c      2.2539 *     8.5648 *    -1.8031 *  0.0000     2          
   106  Na    c      2.2539 *     1.8031 *    -8.5648 *  0.0000     2          
   107  O     c     -4.5078 *     6.3109 *     4.9586 *  0.0000     2          
   108  O     c      9.0156 *     1.8031 *     0.4508 *  0.0000     2          
   109  Na    c      6.7617 *     6.3109 *     0.4508 *  0.0000     2          
   110  Cl    c      2.2539 *     8.5648 *     2.7047 *  0.0000     2          
   111  Cl    c      6.7617 *    -0.4508 *    -6.3109 *  0.0000     2          
   112  Na    c      2.2539 *    -2.7047 *    -8.5648 *  0.0000     2          
   113  Na    c      9.0156 *     1.8031 *    -1.8031 *  0.0000     2          
   114  O     c      4.5078 *    -7.2125 *    -4.0570 *  0.0000     2          
   115  O     c      9.0156 *    -2.7047 *     0.4508 *  0.0000     2          
   116  Na    c      0.0000      -0.4508 *     9.4664 *  0.0000     1          
   117  Na    c      0.0000      -9.4664 *     0.4508 *  0.0000     1          
   118  Na    c      0.0000       4.0570 *    -8.5648 *  0.0000     1          
   119  Na    c      0.0000       8.5648 *    -4.0570 *  0.0000     1          
   120  Na    c      0.0000       6.3109 *     7.2125 *  0.0000     1          
   121  Na    c      0.0000      -7.2125 *    -6.3109 *  0.0000     1          
   122  Na    c      9.0156 *    -2.7047 *    -1.8031 *  0.0000     2          
   123  Na    c      9.0156 *     1.8031 *     2.7047 *  0.0000     2          
   124  O     c      0.0000       1.8031 *     9.4664 *  0.0000     1          
   125  Na    c     -4.5078 *    -0.4508 *    -8.5648 *  0.0000     2          
   126  Na    c     -4.5078 *     8.5648 *     0.4508 *  0.0000     2          
   127  Na    c      9.0156 *    -2.7047 *     2.7047 *  0.0000     2          
   128  O     c      0.0000      -2.7047 *     9.4664 *  0.0000     1          
   129  O     c      4.5078 *    -7.2125 *     4.9586 *  0.0000     2          
   130  O     c      4.5078 *     1.8031 *    -8.5648 *  0.0000     2          
   131  Cl    c      2.2539 *    -9.4664 *    -1.8031 *  0.0000     2          
   132  Na    c      2.2539 *     1.8031 *     9.4664 *  0.0000     2          
   133  Cl    c      6.7617 *    -0.4508 *     7.2125 *  0.0000     2          
   134  Na    c      9.0156 *    -0.4508 *    -4.0570 *  0.0000     2          
   135  Na    c      6.7617 *    -7.2125 *     0.4508 *  0.0000     2          
   136  Na    c      9.0156 *     4.0570 *     0.4508 *  0.0000     2          
   137  Na    c      0.0000       8.5648 *     4.9586 *  0.0000     1          
   138  Na    c      0.0000      -4.9586 *    -8.5648 *  0.0000     1          
   139  Na    c     -4.5078 *     6.3109 *    -6.3109 *  0.0000     2          
   140  O     c      9.0156 *     1.8031 *    -4.0570 *  0.0000     2          
   141  O     c     -4.5078 *    -2.7047 *    -8.5648 *  0.0000     2          
   142  Cl    c      2.2539 *    -9.4664 *     2.7047 *  0.0000     2          
   143  Na    c      2.2539 *    -2.7047 *     9.4664 *  0.0000     2          
   144  Na    c      6.7617 *     6.3109 *    -4.0570 *  0.0000     2          
   145  Cl    c      6.7617 *     4.0570 *    -6.3109 *  0.0000     2          
   146  Na    c      0.0000      -7.2125 *     7.2125 *  0.0000     1          
   147  O     c      9.0156 *    -2.7047 *    -4.0570 *  0.0000     2          
   148  Na    c      0.0000       4.0570 *     9.4664 *  0.0000     1          
   149  Na    c      0.0000      -9.4664 *    -4.0570 *  0.0000     1          
   150  Na    c      9.0156 *    -4.9586 *     0.4508 *  0.0000     2          
   151  Na    c      9.0156 *    -0.4508 *     4.9586 *  0.0000     2          
   152  O     c      9.0156 *     1.8031 *     4.9586 *  0.0000     2          
   153  Na    c      4.5078 *    -0.4508 *     9.4664 *  0.0000     2          
   154  Na    c     -4.5078 *    -9.4664 *     0.4508 *  0.0000     2          
   155  Cl    c      6.7617 *    -4.9586 *    -6.3109 *  0.0000     2          
   156  Na    c      6.7617 *     6.3109 *     4.9586 *  0.0000     2          
   157  Na    c     -4.5078 *     8.5648 *    -4.0570 *  0.0000     2          
   158  Na    c      4.5078 *     4.0570 *    -8.5648 *  0.0000     2          
   159  Na    c      4.5078 *     6.3109 *     7.2125 *  0.0000     2          
   160  Na    c      4.5078 *    -7.2125 *    -6.3109 *  0.0000     2          
   161  O     c      4.5078 *     1.8031 *     9.4664 *  0.0000     2          
   162  O     c      9.0156 *    -2.7047 *     4.9586 *  0.0000     2          
   163  O     c      0.0000       6.3109 *    -8.5648 *  0.0000     1          
   164  Na    c      0.0000      -4.9586 *     9.4664 *  0.0000     1          
   165  Na    c      0.0000      -9.4664 *     4.9586 *  0.0000     1          
   166  Cl    c      6.7617 *     4.0570 *     7.2125 *  0.0000     2          
   167  Na    c      6.7617 *    -7.2125 *    -4.0570 *  0.0000     2          
   168  Na    c      9.0156 *     4.0570 *    -4.0570 *  0.0000     2          
   169  O     c      0.0000      10.8187 *     0.4508 *  0.0000     1          
   170  O     c     -4.5078 *    -2.7047 *     9.4664 *  0.0000     2          
   171  Na    c      2.2539 *     6.3109 *    -8.5648 *  0.0000     2          
   172  Cl    c      2.2539 *     8.5648 *    -6.3109 *  0.0000     2          
   173  Na    c      4.5078 *     8.5648 *     4.9586 *  0.0000     2          
   174  Na    c      4.5078 *    -4.9586 *    -8.5648 *  0.0000     2          
   175  Na    c      0.0000      10.8187 *    -1.8031 *  0.0000     1          
   176  Na    c      0.0000       1.8031 *   -10.8187 *  0.0000     1          
   177  O     c      9.0156 *     6.3109 *     0.4508 *  0.0000     2          
   178  Na    c      2.2539 *    10.8187 *     0.4508 *  0.0000     2          
   179  Cl    c      6.7617 *    -4.9586 *     7.2125 *  0.0000     2          
   180  Na    c      9.0156 *    -4.9586 *    -4.0570 *  0.0000     2          
   181  Cl    c      2.2539 *    -0.4508 *   -10.8187 *  0.0000     2          
   182  Na    c      6.7617 *     1.8031 *    -8.5648 *  0.0000     2          
   183  Na    c      6.7617 *    -7.2125 *     4.9586 *  0.0000     2          
   184  Na    c      9.0156 *     4.0570 *     4.9586 *  0.0000     2          
   185  Cl    c      6.7617 *     8.5648 *    -1.8031 *  0.0000     2          
   186  Na    c      0.0000      10.8187 *     2.7047 *  0.0000     1          
   187  Na    c      0.0000      -2.7047 *   -10.8187 *  0.0000     1          
   188  Na    c      4.5078 *    -7.2125 *     7.2125 *  0.0000     2          
   189  Na    c      9.0156 *     6.3109 *    -1.8031 *  0.0000     2          
   190  Na    c      9.0156 *     1.8031 *    -6.3109 *  0.0000     2          
   191  O     c      0.0000      -7.2125 *    -8.5648 *  0.0000     1          
   192  Na    c      4.5078 *     4.0570 *     9.4664 *  0.0000     2          
   193  Na    c      4.5078 *    -9.4664 *    -4.0570 *  0.0000     2          
   194  Cl    c      6.7617 *     8.5648 *     2.7047 *  0.0000     2          
   195  Na    c      6.7617 *    -2.7047 *    -8.5648 *  0.0000     2          
   196  Na    c      9.0156 *    -2.7047 *    -6.3109 *  0.0000     2          
   197  Na    c      9.0156 *     6.3109 *     2.7047 *  0.0000     2          
   198  O     c      0.0000       6.3109 *     9.4664 *  0.0000     1          
   199  Cl    c     11.2695 *    -0.4508 *    -1.8031 *  0.0000     2          
   200  Na    c     11.2695 *     1.8031 *     0.4508 *  0.0000     2          
   201  Cl    c      2.2539 *     8.5648 *     7.2125 *  0.0000     2          
   202  Na    c      2.2539 *    -7.2125 *    -8.5648 *  0.0000     2          
   203  Na    c      9.0156 *    -4.9586 *     4.9586 *  0.0000     2          
   204  O     c      0.0000      10.8187 *    -4.0570 *  0.0000     1          
   205  O     c      9.0156 *    -7.2125 *     0.4508 *  0.0000     2          
   206  O     c      4.5078 *     6.3109 *    -8.5648 *  0.0000     2          
   207  Cl    c      2.2539 *    -9.4664 *    -6.3109 *  0.0000     2          
   208  Cl    c     11.2695 *    -0.4508 *     2.7047 *  0.0000     2          
   209  Na    c      2.2539 *     6.3109 *     9.4664 *  0.0000     2          
   210  Na    c     11.2695 *    -2.7047 *     0.4508 *  0.0000     2          
   211  Na    c      4.5078 *    -4.9586 *     9.4664 *  0.0000     2          
   212  Na    c     -4.5078 *    -9.4664 *     4.9586 *  0.0000     2          
   213  Na    c      9.0156 *     1.8031 *     7.2125 *  0.0000     2          
   214  Na    c      9.0156 *    -7.2125 *    -1.8031 *  0.0000     2          
   215  O     c      4.5078 *    10.8187 *     0.4508 *  0.0000     2          
   216  O     c      0.0000     -11.7202 *     0.4508 *  0.0000     1          
   217  O     c      9.0156 *     6.3109 *    -4.0570 *  0.0000     2          
   218  Na    c      2.2539 *    10.8187 *    -4.0570 *  0.0000     2          
   219  Cl    c      2.2539 *     4.0570 *   -10.8187 *  0.0000     2          
   220  Cl    c      6.7617 *    -9.4664 *    -1.8031 *  0.0000     2          
   221  Na    c      6.7617 *     1.8031 *     9.4664 *  0.0000     2          
   222  Na    c      4.5078 *    10.8187 *    -1.8031 *  0.0000     2          
   223  Na    c      0.0000       1.8031 *    11.7202 *  0.0000     1          
   224  Na    c      0.0000     -11.7202 *    -1.8031 *  0.0000     1          
   225  Na    c      4.5078 *     1.8031 *   -10.8187 *  0.0000     2          
   226  Na    c      9.0156 *    -2.7047 *     7.2125 *  0.0000     2          
   227  Na    c      9.0156 *    -7.2125 *     2.7047 *  0.0000     2          
   228  O     c      0.0000      10.8187 *     4.9586 *  0.0000     1          
   229  O     c      0.0000      -7.2125 *     9.4664 *  0.0000     1          
   230  Cl    c      2.2539 *    -0.4508 *    11.7202 *  0.0000     2          
   231  Cl    c      6.7617 *    -9.4664 *     2.7047 *  0.0000     2          
   232  Na    c      2.2539 *   -11.7202 *     0.4508 *  0.0000     2          
   233  Na    c      6.7617 *    -2.7047 *     9.4664 *  0.0000     2          
   234  O     s      0.0000       1.8031 *     0.4508 *  0.0000     1          
   235  O     s      0.0000      -2.7047 *     0.4508 *  0.0000     1          
   236  Cl    s      2.2539 *    -0.4508 *    -1.8031 *  0.0000     2          
   237  Cl    s      2.2539 *    -0.4508 *     2.7047 *  0.0000     2          
   238  O     s      0.0000       1.8031 *    -4.0570 *  0.0000     1          
   239  O     s      0.0000      -2.7047 *    -4.0570 *  0.0000     1          
   240  O     s     -4.5078 *     1.8031 *     0.4508 *  0.0000     2          
   241  Cl    s      2.2539 *     4.0570 *    -1.8031 *  0.0000     2          
   242  O     s      0.0000       1.8031 *     4.9586 *  0.0000     1          
   243  O     s     -4.5078 *    -2.7047 *     0.4508 *  0.0000     2          
   244  Cl    s      2.2539 *     4.0570 *     2.7047 *  0.0000     2          
   245  O     s      0.0000      -2.7047 *     4.9586 *  0.0000     1          
   246  Cl    s      2.2539 *    -4.9586 *    -1.8031 *  0.0000     2          
   247  Cl    s      2.2539 *    -4.9586 *     2.7047 *  0.0000     2          
   248  O     s      0.0000       6.3109 *     0.4508 *  0.0000     1          
   249  O     s     -4.5078 *     1.8031 *    -4.0570 *  0.0000     2          
   250  O     s      4.5078 *    -2.7047 *    -4.0570 *  0.0000     2          
   251  Cl    s      2.2539 *    -0.4508 *    -6.3109 *  0.0000     2          
   252  O     s     -4.5078 *     1.8031 *     4.9586 *  0.0000     2          
   253  Cl    s      6.7617 *    -0.4508 *    -1.8031 *  0.0000     2          
   254  O     s      0.0000      -7.2125 *     0.4508 *  0.0000     1          
   255  O     s      4.5078 *    -2.7047 *     4.9586 *  0.0000     2          
   256  Cl    s      6.7617 *    -0.4508 *     2.7047 *  0.0000     2          
   257  O     s      0.0000       6.3109 *    -4.0570 *  0.0000     1          
   258  Cl    s      2.2539 *    -0.4508 *     7.2125 *  0.0000     2          
   259  O     s     -4.5078 *     6.3109 *     0.4508 *  0.0000     2          
   260  Cl    s      2.2539 *     4.0570 *    -6.3109 *  0.0000     2          
   261  O     s      0.0000       6.3109 *     4.9586 *  0.0000     1          
   262  Cl    s      6.7617 *     4.0570 *    -1.8031 *  0.0000     2          
   263  O     s      0.0000      -7.2125 *    -4.0570 *  0.0000     1          
   264  Cl    s      6.7617 *     4.0570 *     2.7047 *  0.0000     2          
   265  Cl    s      2.2539 *    -4.9586 *    -6.3109 *  0.0000     2          
   266  O     s      4.5078 *    -7.2125 *     0.4508 *  0.0000     2          
   267  Cl    s      2.2539 *     4.0570 *     7.2125 *  0.0000     2          
   268  Cl    s      6.7617 *    -4.9586 *    -1.8031 *  0.0000     2          
   269  O     s      0.0000      -7.2125 *     4.9586 *  0.0000     1          
   270  O     s      4.5078 *     6.3109 *    -4.0570 *  0.0000     2          
   271  O     s      0.0000       1.8031 *    -8.5648 *  0.0000     1          
   272  Cl    s      6.7617 *    -4.9586 *     2.7047 *  0.0000     2          
   273  O     s      0.0000      -2.7047 *    -8.5648 *  0.0000     1          
   274  Cl    s      2.2539 *    -4.9586 *     7.2125 *  0.0000     2          
   275  Cl    s      2.2539 *     8.5648 *    -1.8031 *  0.0000     2          
   276  O     s     -4.5078 *     6.3109 *     4.9586 *  0.0000     2          
   277  O     s      9.0156 *     1.8031 *     0.4508 *  0.0000     2          
   278  Cl    s      2.2539 *     8.5648 *     2.7047 *  0.0000     2          
   279  Cl    s      6.7617 *    -0.4508 *    -6.3109 *  0.0000     2          
   280  O     s      4.5078 *    -7.2125 *    -4.0570 *  0.0000     2          
   281  O     s      9.0156 *    -2.7047 *     0.4508 *  0.0000     2          
   282  O     s      0.0000       1.8031 *     9.4664 *  0.0000     1          
   283  O     s      0.0000      -2.7047 *     9.4664 *  0.0000     1          
   284  O     s      4.5078 *    -7.2125 *     4.9586 *  0.0000     2          
   285  O     s      4.5078 *     1.8031 *    -8.5648 *  0.0000     2          
   286  Cl    s      2.2539 *    -9.4664 *    -1.8031 *  0.0000     2          
   287  Cl    s      6.7617 *    -0.4508 *     7.2125 *  0.0000     2          
   288  O     s      9.0156 *     1.8031 *    -4.0570 *  0.0000     2          
   289  O     s     -4.5078 *    -2.7047 *    -8.5648 *  0.0000     2          
   290  Cl    s      2.2539 *    -9.4664 *     2.7047 *  0.0000     2          
   291  Cl    s      6.7617 *     4.0570 *    -6.3109 *  0.0000     2          
   292  O     s      9.0156 *    -2.7047 *    -4.0570 *  0.0000     2          
   293  O     s      9.0156 *     1.8031 *     4.9586 *  0.0000     2          
   294  Cl    s      6.7617 *    -4.9586 *    -6.3109 *  0.0000     2          
   295  O     s      4.5078 *     1.8031 *     9.4664 *  0.0000     2          
   296  O     s      9.0156 *    -2.7047 *     4.9586 *  0.0000     2          
   297  O     s      0.0000       6.3109 *    -8.5648 *  0.0000     1          
   298  Cl    s      6.7617 *     4.0570 *     7.2125 *  0.0000     2          
   299  O     s      0.0000      10.8187 *     0.4508 *  0.0000     1          
   300  O     s     -4.5078 *    -2.7047 *     9.4664 *  0.0000     2          
   301  Cl    s      2.2539 *     8.5648 *    -6.3109 *  0.0000     2          
   302  O     s      9.0156 *     6.3109 *     0.4508 *  0.0000     2          
   303  Cl    s      6.7617 *    -4.9586 *     7.2125 *  0.0000     2          
   304  Cl    s      2.2539 *    -0.4508 *   -10.8187 *  0.0000     2          
   305  Cl    s      6.7617 *     8.5648 *    -1.8031 *  0.0000     2          
   306  O     s      0.0000      -7.2125 *    -8.5648 *  0.0000     1          
   307  Cl    s      6.7617 *     8.5648 *     2.7047 *  0.0000     2          
   308  O     s      0.0000       6.3109 *     9.4664 *  0.0000     1          
   309  Cl    s     11.2695 *    -0.4508 *    -1.8031 *  0.0000     2          
   310  Cl    s      2.2539 *     8.5648 *     7.2125 *  0.0000     2          
   311  O     s      0.0000      10.8187 *    -4.0570 *  0.0000     1          
   312  O     s      9.0156 *    -7.2125 *     0.4508 *  0.0000     2          
   313  O     s      4.5078 *     6.3109 *    -8.5648 *  0.0000     2          
   314  Cl    s      2.2539 *    -9.4664 *    -6.3109 *  0.0000     2          
   315  Cl    s     11.2695 *    -0.4508 *     2.7047 *  0.0000     2          
   316  O     s      4.5078 *    10.8187 *     0.4508 *  0.0000     2          
   317  O     s      0.0000     -11.7202 *     0.4508 *  0.0000     1          
   318  O     s      9.0156 *     6.3109 *    -4.0570 *  0.0000     2          
   319  Cl    s      2.2539 *     4.0570 *   -10.8187 *  0.0000     2          
   320  Cl    s      6.7617 *    -9.4664 *    -1.8031 *  0.0000     2          
   321  O     s      0.0000      10.8187 *     4.9586 *  0.0000     1          
   322  O     s      0.0000      -7.2125 *     9.4664 *  0.0000     1          
   323  Cl    s      2.2539 *    -0.4508 *    11.7202 *  0.0000     2          
   324  Cl    s      6.7617 *    -9.4664 *     2.7047 *  0.0000     2          
--------------------------------------------------------------------------------

  Components of defect energy : 

--------------------------------------------------------------------------------
  Region 1 - region 1                   =      0.08267310 eV
  Region 1 - region 2a (unrelaxed)      =      8.61172462 eV
  Region 1 - 2a (relaxed - correction)  =     -0.27316279 eV
  Region 1 (Total)                      =      8.42123493 eV
  Region 2a                             =      0.13650833 eV
  Region 2b                             =     -0.43320272 eV
--------------------------------------------------------------------------------
  Total defect energy                   =      8.12454054 eV
--------------------------------------------------------------------------------

  Largest displacement in region 2 =   0.0217 Angstroms


  Number of variables =      880

  Maximum number of calculations  =        1000
  Maximum Hessian update interval =          10
  Maximum step size               =   1.0000000
  Maximum parameter tolerance     =   0.0000100
  Maximum function  tolerance     =   0.0000100
  Maximum gradient  tolerance     =   0.0010000

  Symmetry adapted optimisation

  Symmetry to be used for second derivatives

  Newton-Raphson optimiser to be used

  BFGS hessian update to be used

  Lower half triangular hessian to be used

  Start of defect optimisation :

  Cycle:      0 Defect Energy:   8.124541  Gnorm:     0.018651  CPU:    2.451
  ** Hessian calculated **
  Cycle:      1 Defect Energy:   6.499860  Gnorm:     0.007408  CPU:    6.579
  Cycle:      2 Defect Energy:   6.008193  Gnorm:     0.006558  CPU:   10.282
  Cycle:      3 Defect Energy:   5.885179  Gnorm:     0.004512  CPU:   13.237
  Cycle:      4 Defect Energy:   5.832725  Gnorm:     0.004451  CPU:   14.076
  Cycle:      5 Defect Energy:   5.758827  Gnorm:     0.004048  CPU:   14.901
  Cycle:      6 Defect Energy:   5.657720  Gnorm:     0.003653  CPU:   15.739
  Cycle:      7 Defect Energy:   5.529770  Gnorm:     0.003514  CPU:   16.556
  Cycle:      8 Defect Energy:   5.421208  Gnorm:     0.003104  CPU:   17.372
  Cycle:      9 Defect Energy:   5.345259  Gnorm:     0.003124  CPU:   18.195
  Cycle:     10 Defect Energy:   5.275994  Gnorm:     0.003088  CPU:   19.031
  ** Hessian calculated **
  Cycle:     11 Defect Energy:   5.222941  Gnorm:     0.002947  CPU:   21.145
  ** Hessian calculated **
  Cycle:     12 Defect Energy:   5.143697  Gnorm:     0.002770  CPU:   23.321
  Cycle:     13 Defect Energy:   5.048562  Gnorm:     0.002476  CPU:   24.164
  Cycle:     14 Defect Energy:   4.997031  Gnorm:     0.002357  CPU:   25.015
  ** Hessian calculated **
  Cycle:     15 Defect Energy:   5.009041  Gnorm:     0.002658  CPU:   27.171
  Cycle:     16 Defect Energy:   4.740983  Gnorm:     0.001529  CPU:   28.015
  Cycle:     17 Defect Energy:   4.658722  Gnorm:     0.001030  CPU:   28.834
  Cycle:     18 Defect Energy:   4.621191  Gnorm:     0.000692  CPU:   29.650
  Cycle:     19 Defect Energy:   4.618660  Gnorm:     0.000783  CPU:   30.482
  ** Hessian calculated **
  Cycle:     20 Defect Energy:   4.612577  Gnorm:     0.000467  CPU:   32.643
  Cycle:     21 Defect Energy:   4.608784  Gnorm:     0.000338  CPU:   33.476
  Cycle:     22 Defect Energy:   4.604689  Gnorm:     0.000301  CPU:   34.308
  Cycle:     23 Defect Energy:   4.600552  Gnorm:     0.000303  CPU:   35.156
  Cycle:     24 Defect Energy:   4.596905  Gnorm:     0.000314  CPU:   36.001
  Cycle:     25 Defect Energy:   4.593924  Gnorm:     0.000332  CPU:   36.832
  Cycle:     26 Defect Energy:   4.591291  Gnorm:     0.000356  CPU:   37.685
  Cycle:     27 Defect Energy:   4.589357  Gnorm:     0.000340  CPU:   38.497
  Cycle:     28 Defect Energy:   4.587633  Gnorm:     0.000352  CPU:   39.318
  Cycle:     29 Defect Energy:   4.586432  Gnorm:     0.000349  CPU:   40.158
  ** Hessian calculated **
  Cycle:     30 Defect Energy:   4.584025  Gnorm:     0.000344  CPU:   42.279
  Cycle:     31 Defect Energy:   4.580038  Gnorm:     0.000332  CPU:   43.108
  Cycle:     32 Defect Energy:   4.573134  Gnorm:     0.000295  CPU:   43.928
  Cycle:     33 Defect Energy:   4.564356  Gnorm:     0.000228  CPU:   44.758
  Cycle:     34 Defect Energy:   4.559157  Gnorm:     0.000171  CPU:   45.577
  Cycle:     35 Defect Energy:   4.556840  Gnorm:     0.000135  CPU:   46.426
  Cycle:     36 Defect Energy:   4.555902  Gnorm:     0.000078  CPU:   47.261
  Cycle:     37 Defect Energy:   4.555547  Gnorm:     0.000057  CPU:   48.086
  Cycle:     38 Defect Energy:   4.555386  Gnorm:     0.000034  CPU:   48.912
  Cycle:     39 Defect Energy:   4.555359  Gnorm:     0.000021  CPU:   49.749
  ** Hessian calculated **


  **** Optimisation achieved ****


  Final defect energy  =        4.55535728
  Final defect Gnorm   =        0.00001439

  Components of defect energy : 

--------------------------------------------------------------------------------
  Region 1 - region 1                   =     -1.92274561 eV
  Region 1 - region 2a (unrelaxed)      =      7.01398320 eV
  Region 1 - 2a (relaxed - correction)  =     -0.20508394 eV
  Region 1 (Total)                      =      4.88615366 eV
  Region 2a                             =      0.10246187 eV
  Region 2b                             =     -0.43325825 eV
--------------------------------------------------------------------------------
  Total defect energy                   =      4.55535728 eV
--------------------------------------------------------------------------------

  Largest displacement in region 2 =   0.0217 Angstroms

  Final coordinates of region 1 :

--------------------------------------------------------------------------------
   No.  Atomic        x           y           z          Radius      Charge
        Label       (Angs)      (Angs)      (Angs)       (Angs)       (e) 
--------------------------------------------------------------------------------
     1  O     c     2.253894    2.362430    2.527799    0.000000    0.183000
     2  Na    c     2.253894    1.803115    0.450779    0.000000    1.000000
     3  O     c     2.253894   -2.415207    2.309324    0.000000    0.183000
     4  Na    c     4.460532    1.963165    2.512299    0.000000    1.000000
     5  Na    c     0.047256    1.963165    2.512299    0.000000    1.000000
     6  Cl    c     4.624424    0.034155   -0.062176    0.000000    1.485000
     7  Cl    c    -0.116636    0.034155   -0.062176    0.000000    1.485000
     8  Na    c     2.253894    1.644510    4.591748    0.000000    1.000000
     9  Na    c     2.253894   -2.618640    0.087445    0.000000    1.000000
    10  Cl    c     4.620083   -0.029786    4.657963    0.000000    1.485000
    11  Cl    c    -0.112296   -0.029786    4.657963    0.000000    1.485000
    12  Na    c     4.383954   -1.753472    2.189288    0.000000    1.000000
    13  Na    c     0.123834   -1.753472    2.189288    0.000000    1.000000
    14  Na    c     2.253894   -1.850115    4.478570    0.000000    1.000000
    15  Na    c     2.253894   -0.062871   -1.904056    0.000000    1.000000
    16  Na    c     2.253894    4.549332    2.680814    0.000000    1.000000
    17  O     c     2.253894    2.158268   -2.087373    0.000000    0.183000
    18  Na    c    -2.553445    0.009945    2.321876    0.000000    1.000000
    19  Na    c     7.061233    0.009945    2.321876    0.000000    1.000000
    20  O     c     2.253894   -2.282349   -2.206237    0.000000    0.183000
    21  O     c    -2.229322    2.271237    2.298503    0.000000    0.183000
    22  O     c     6.737109    2.271237    2.298503    0.000000    0.183000
    23  Cl    c     4.631913    4.619901   -0.074149    0.000000    1.485000
    24  Cl    c    -0.124126    4.619901   -0.074149    0.000000    1.485000
    25  Na    c     4.491053    2.176279   -2.094609    0.000000    1.000000
    26  Na    c     0.016734    2.176279   -2.094609    0.000000    1.000000
    27  Na    c     2.253894   -0.008699    7.272821    0.000000    1.000000
    28  Na    c     2.253894   -4.571789    2.706057    0.000000    1.000000
    29  Na    c    -2.144747    2.259448    0.043859    0.000000    1.000000
    30  Na    c     6.652534    2.259448    0.043859    0.000000    1.000000
    31  O     c     2.253894    2.217706    6.798497    0.000000    0.183000
    32  O     c    -2.182811   -2.241789    2.263890    0.000000    0.183000
    33  O     c     6.690598   -2.241789    2.263890    0.000000    0.183000
    34  Cl    c     4.651361    4.578353    4.621661    0.000000    1.485000
    35  Cl    c    -0.143573    4.578353    4.621661    0.000000    1.485000
    36  Na    c     4.507624   -2.228211   -2.177847    0.000000    1.000000
    37  Na    c     0.000163   -2.228211   -2.177847    0.000000    1.000000
    38  Na    c    -2.366099    2.432745    4.540349    0.000000    1.000000
    39  Na    c     6.873886    2.432745    4.540349    0.000000    1.000000
    40  Na    c    -2.286685   -2.275895    0.012865    0.000000    1.000000
    41  Na    c     6.794472   -2.275895    0.012865    0.000000    1.000000
    42  O     c     2.253894   -2.231767    6.775357    0.000000    0.183000
    43  Cl    c     4.575488   -4.577149   -0.134448    0.000000    1.485000
    44  Cl    c    -0.067700   -4.577149   -0.134448    0.000000    1.485000
    45  Na    c     4.515754    2.195730    6.711332    0.000000    1.000000
    46  Na    c    -0.007967    2.195730    6.711332    0.000000    1.000000
    47  Na    c     2.253894    4.411390   -2.167769    0.000000    1.000000
    48  Na    c    -2.050831   -2.363822    4.505397    0.000000    1.000000
    49  Na    c     6.558618   -2.363822    4.505397    0.000000    1.000000
    50  Cl    c     4.587275   -4.607848    4.624288    0.000000    1.485000
    51  Cl    c    -0.079488   -4.607848    4.624288    0.000000    1.485000
    52  Na    c     4.504050   -2.158654    6.803123    0.000000    1.000000
    53  Na    c     0.003738   -2.158654    6.803123    0.000000    1.000000
    54  Na    c     6.360170    4.503329    2.221151    0.000000    1.000000
    55  Na    c    -1.852383    4.503329    2.221151    0.000000    1.000000
    56  Na    c    -2.348298    0.000604   -2.106895    0.000000    1.000000
    57  Na    c     6.856085    0.000604   -2.106895    0.000000    1.000000
    58  O     c     2.253894    6.812048    2.290959    0.000000    0.183000
    59  O     c    -2.249381    2.252833   -2.223267    0.000000    0.183000
    60  O     c     6.757169    2.252833   -2.223267    0.000000    0.183000
    61  Na    c     2.253894    4.471321    6.337582    0.000000    1.000000
    62  Na    c     2.253894   -4.513905   -2.566209    0.000000    1.000000
    63  Na    c     2.253894    6.397897    0.066891    0.000000    1.000000
    64  Na    c     2.253894    2.017272   -4.399100    0.000000    1.000000
    65  O     c     6.765279   -2.252014   -2.255969    0.000000    0.183000
    66  O     c    -2.257491   -2.252014   -2.255969    0.000000    0.183000
    67  Na    c     4.512401    6.961008    2.269759    0.000000    1.000000
    68  Na    c    -0.004614    6.961008    2.269759    0.000000    1.000000
    69  Na    c     6.255144   -4.469776    2.208664    0.000000    1.000000
    70  Na    c    -1.747357   -4.469776    2.208664    0.000000    1.000000
    71  Na    c    -2.367535    0.003579    6.556518    0.000000    1.000000
    72  Na    c     6.875322    0.003579    6.556518    0.000000    1.000000
    73  Cl    c     4.508329   -0.005160   -4.521379    0.000000    1.485000
    74  Cl    c    -0.000542   -0.005160   -4.521379    0.000000    1.485000
    75  Na    c     2.253894    7.193062    4.514381    0.000000    1.000000
    76  Na    c     2.253894   -1.968031   -4.474951    0.000000    1.000000
    77  O     c    -2.271025    2.256900    6.788525    0.000000    0.183000
    78  O     c     6.778812    2.256900    6.788525    0.000000    0.183000
    79  Cl    c     9.014183    0.019553   -0.006566    0.000000    1.485000
    80  Cl    c    -4.506395    0.019553   -0.006566    0.000000    1.485000
    81  Na    c     8.987792    2.598186    2.182684    0.000000    1.000000
    82  Na    c    -4.480005    2.598186    2.182684    0.000000    1.000000
    83  Na    c     2.253894   -4.496087    6.405800    0.000000    1.000000
    84  O     c     2.253894   -6.816158    2.261276    0.000000    0.183000
    85  O     c     6.764468   -2.252449    6.760612    0.000000    0.183000
    86  O     c    -2.256681   -2.252449    6.760612    0.000000    0.183000
    87  Cl    c     9.059587   -0.010577    4.542388    0.000000    1.485000
    88  Cl    c    -4.551800   -0.010577    4.542388    0.000000    1.485000
    89  Na    c     8.953098   -2.592193    2.353786    0.000000    1.000000
    90  Na    c    -4.445311   -2.592193    2.353786    0.000000    1.000000
    91  Na    c     6.635748    4.504516   -2.333046    0.000000    1.000000
    92  Na    c    -2.127961    4.504516   -2.333046    0.000000    1.000000
    93  Na    c     2.253894    2.648479    9.014374    0.000000    1.000000
    94  Na    c     2.253894   -6.383778    0.022811    0.000000    1.000000
    95  O     c     2.253894    6.712915   -2.185542    0.000000    0.183000
    96  Na    c     4.504228   -6.994205    2.234966    0.000000    1.000000
    97  Na    c     0.003560   -6.994205    2.234966    0.000000    1.000000
    98  Cl    c     4.541279   -0.025594    9.077895    0.000000    1.485000
    99  Cl    c    -0.033491   -0.025594    9.077895    0.000000    1.485000
   100  Na    c     2.253894   -2.654228    9.004458    0.000000    1.000000
   101  Na    c     2.253894   -7.152242    4.501418    0.000000    1.000000
   102  O     c    -2.255407    6.735948    2.262113    0.000000    0.183000
   103  O     c     6.763194    6.735948    2.262113    0.000000    0.183000
   104  Na    c     4.506423    6.763851   -2.152671    0.000000    1.000000
   105  Na    c     0.001364    6.763851   -2.152671    0.000000    1.000000
   106  Cl    c     4.520137    4.523268   -4.532646    0.000000    1.485000
   107  Cl    c    -0.012350    4.523268   -4.532646    0.000000    1.485000
   108  Na    c     6.664269    4.506190    6.936834    0.000000    1.000000
   109  Na    c    -2.156482    4.506190    6.936834    0.000000    1.000000
   110  Na    c     6.641073   -4.504271   -2.364867    0.000000    1.000000
   111  Na    c    -2.133286   -4.504271   -2.364867    0.000000    1.000000
   112  Na    c    -2.298034    6.663951   -0.002386    0.000000    1.000000
   113  Na    c     6.805821    6.663951   -0.002386    0.000000    1.000000
   114  Na    c     6.757183    2.106362   -4.474560    0.000000    1.000000
   115  Na    c    -2.249396    2.106362   -4.474560    0.000000    1.000000
   116  O     c     2.253894    6.744839    6.737198    0.000000    0.183000
   117  Cl    c     9.072093    4.532541   -0.011871    0.000000    1.485000
   118  Cl    c    -4.564306    4.532541   -0.011871    0.000000    1.485000
   119  Na    c     9.005749    2.372867   -2.168906    0.000000    1.000000
   120  Na    c    -4.497962    2.372867   -2.168906    0.000000    1.000000
   121  Na    c    -2.292237    6.627941    4.523904    0.000000    1.000000
   122  Na    c     6.800024    6.627941    4.523904    0.000000    1.000000
   123  Na    c    -2.191657   -2.077825   -4.506019    0.000000    1.000000
   124  Na    c     6.699444   -2.077825   -4.506019    0.000000    1.000000
   125  O     c     2.253894   -6.762322   -2.232506    0.000000    0.183000
   126  Na    c     4.507078    6.726900    6.694657    0.000000    1.000000
   127  Na    c     0.000709    6.726900    6.694657    0.000000    1.000000
   128  Cl    c     9.070666    4.514563    4.534560    0.000000    1.485000
   129  Cl    c    -4.562879    4.514563    4.534560    0.000000    1.485000
   130  Cl    c     4.526643   -4.524183   -4.536822    0.000000    1.485000
   131  Cl    c    -0.018855   -4.524183   -4.536822    0.000000    1.485000
   132  Na    c     9.007819   -2.377556   -2.336767    0.000000    1.000000
   133  Na    c    -4.500032   -2.377556   -2.336767    0.000000    1.000000
   134  Na    c     6.673621   -4.499338    6.906378    0.000000    1.000000
   135  Na    c    -2.165834   -4.499338    6.906378    0.000000    1.000000
   136  O     c     6.744007   -6.711870    2.246770    0.000000    0.183000
   137  O     c    -2.236220   -6.711870    2.246770    0.000000    0.183000
   138  Cl    c     4.529770    4.526721    9.072982    0.000000    1.485000
   139  Cl    c    -0.021983    4.526721    9.072982    0.000000    1.485000
   140  Na    c     4.505338   -6.782225   -2.142753    0.000000    1.000000
   141  Na    c     0.002449   -6.782225   -2.142753    0.000000    1.000000
   142  Cl    c     9.058101   -4.512209   -0.014506    0.000000    1.485000
   143  Cl    c    -4.550314   -4.512209   -0.014506    0.000000    1.485000
   144  Na    c     9.022409    2.359283    6.885601    0.000000    1.000000
   145  Na    c    -4.514622    2.359283    6.885601    0.000000    1.000000
   146  Na    c     2.253894    0.004717   -6.931179    0.000000    1.000000
   147  Na    c     2.253894    9.039731    1.900996    0.000000    1.000000
   148  Na    c    -2.205743    2.057475    9.025527    0.000000    1.000000
   149  Na    c     6.713530    2.057475    9.025527    0.000000    1.000000
   150  Na    c     6.854744   -6.636050   -0.008574    0.000000    1.000000
   151  Na    c    -2.346957   -6.636050   -0.008574    0.000000    1.000000
   152  O     c     2.253894   -6.768375    6.734271    0.000000    0.183000
   153  O     c     6.767741    6.767511   -2.261240    0.000000    0.183000
   154  O     c    -2.259954    6.767511   -2.261240    0.000000    0.183000
   155  O     c     2.253894    2.250551   -6.703177    0.000000    0.183000
   156  Cl    c     9.067831   -4.539439    4.548414    0.000000    1.485000
   157  Cl    c    -4.560044   -4.539439    4.548414    0.000000    1.485000
   158  Na    c     9.011336   -2.355916    6.633086    0.000000    1.000000
   159  Na    c    -4.503549   -2.355916    6.633086    0.000000    1.000000
   160  Na    c     2.253894    6.807852   -4.450431    0.000000    1.000000
   161  Na    c     6.838889   -2.074077    9.007066    0.000000    1.000000
   162  Na    c    -2.331102   -2.074077    9.007066    0.000000    1.000000
   163  Na    c     6.757518   -6.613999    4.512524    0.000000    1.000000
   164  Na    c    -2.249731   -6.613999    4.512524    0.000000    1.000000
   165  O     c     2.253894   -2.249697   -6.737123    0.000000    0.183000
   166  Cl    c     4.500153   -4.534419    9.070825    0.000000    1.485000
   167  Cl    c     0.007634   -4.534419    9.070825    0.000000    1.485000
   168  Na    c     4.505523   -6.741538    6.716967    0.000000    1.000000
   169  Na    c     0.002264   -6.741538    6.716967    0.000000    1.000000
   170  Na    c    10.930124    0.000659    2.210228    0.000000    1.000000
   171  Na    c    -6.422337    0.000659    2.210228    0.000000    1.000000
   172  Cl    c     4.499939    9.061499    0.006976    0.000000    1.485000
   173  Cl    c     0.007848    9.061499    0.006976    0.000000    1.485000
   174  Na    c     4.500766    2.292056   -6.655333    0.000000    1.000000
   175  Na    c     0.007021    2.292056   -6.655333    0.000000    1.000000
   176  O     c    -2.259469    6.760012    6.786386    0.000000    0.183000
   177  O     c     6.767256    6.760012    6.786386    0.000000    0.183000
   178  O     c    11.236717    2.247883    2.260356    0.000000    0.183000
   179  O     c    -6.728930    2.247883    2.260356    0.000000    0.183000
   180  Na    c     9.015837    6.530868    2.248715    0.000000    1.000000
   181  Na    c    -4.508050    6.530868    2.248715    0.000000    1.000000
   182  Cl    c     4.528258    9.041589    4.524339    0.000000    1.485000
   183  Cl    c    -0.020471    9.041589    4.524339    0.000000    1.485000
   184  Cl    c     9.030784   -0.017345   -4.518255    0.000000    1.485000
   185  Cl    c    -4.522997   -0.017345   -4.518255    0.000000    1.485000
   186  Na    c     4.502422   -2.306222   -6.748860    0.000000    1.000000
   187  Na    c     0.005365   -2.306222   -6.748860    0.000000    1.000000
   188  Na    c    11.307980    2.243463    0.010375    0.000000    1.000000
   189  Na    c    -6.800193    2.243463    0.010375    0.000000    1.000000
   190  O     c     6.764371   -6.764588   -2.263447    0.000000    0.183000
   191  O     c    -2.256583   -6.764588   -2.263447    0.000000    0.183000
   192  O     c    11.221513   -2.247961    2.253404    0.000000    0.183000
   193  O     c    -6.713726   -2.247961    2.253404    0.000000    0.183000
   194  Na    c     2.253894   -0.013071   11.014807    0.000000    1.000000
   195  Na    c     2.253894   -9.050781    1.943167    0.000000    1.000000
   196  Na    c     2.253894    4.503361   -6.544055    0.000000    1.000000
   197  Na    c     2.253894    8.985516   -2.057444    0.000000    1.000000
   198  Na    c     2.253894    6.494222    9.002017    0.000000    1.000000
   199  Na    c     2.253894   -6.993295   -4.483363    0.000000    1.000000
   200  Na    c    11.153621   -2.234308    0.000410    0.000000    1.000000
   201  Na    c    -6.645834   -2.234308    0.000410    0.000000    1.000000
   202  Na    c    11.173421    2.148429    4.516298    0.000000    1.000000
   203  Na    c    -6.665634    2.148429    4.516298    0.000000    1.000000
   204  O     c     2.253894    2.253223   11.259450    0.000000    0.183000
   205  Na    c    -2.189195    0.010586   -6.893168    0.000000    1.000000
   206  Na    c     6.696982    0.010586   -6.893168    0.000000    1.000000
   207  Na    c    -2.420809    8.990388    2.263057    0.000000    1.000000
   208  Na    c     6.928596    8.990388    2.263057    0.000000    1.000000
   209  Na    c    11.316486   -2.141393    4.498720    0.000000    1.000000
   210  Na    c    -6.808699   -2.141393    4.498720    0.000000    1.000000
   211  O     c     2.253894   -2.276162   11.250752    0.000000    0.183000
   212  O     c     6.766206   -6.754674    6.777171    0.000000    0.183000
   213  O     c    -2.258419   -6.754674    6.777171    0.000000    0.183000
   214  O     c     6.755214    2.255829   -6.740579    0.000000    0.183000
   215  O     c    -2.247426    2.255829   -6.740579    0.000000    0.183000
   216  Cl    c     4.489597   -9.075116    0.008657    0.000000    1.485000
   217  Cl    c     0.018190   -9.075116    0.008657    0.000000    1.485000
   218  Na    c     4.505250    2.235560   11.260602    0.000000    1.000000
   219  Na    c     0.002537    2.235560   11.260602    0.000000    1.000000
   220  Cl    c     9.019078    0.025023    9.044393    0.000000    1.485000
   221  Cl    c    -4.511291    0.025023    9.044393    0.000000    1.485000
   222  Na    c    11.177947    0.001656   -2.292237    0.000000    1.000000
   223  Na    c    -6.670160    0.001656   -2.292237    0.000000    1.000000
   224  Na    c     9.001145   -6.491581    2.285852    0.000000    1.000000
   225  Na    c    -4.493358   -6.491581    2.285852    0.000000    1.000000
   226  Na    c    11.478576    4.491147    2.313106    0.000000    1.000000
   227  Na    c    -6.970789    4.491147    2.313106    0.000000    1.000000
   228  Na    c     2.253894    8.994176    7.021721    0.000000    1.000000
   229  Na    c     2.253894   -4.510124   -6.555801    0.000000    1.000000
   230  Na    c    -2.178594    6.862256   -4.503241    0.000000    1.000000
   231  Na    c     6.686381    6.862256   -4.503241    0.000000    1.000000
   232  O     c    11.267756    2.259611   -2.242489    0.000000    0.183000
   233  O     c    -6.759969    2.259611   -2.242489    0.000000    0.183000
   234  O     c    -2.249876   -2.239072   -6.758637    0.000000    0.183000
   235  O     c     6.757663   -2.239072   -6.758637    0.000000    0.183000
   236  Cl    c     4.533522   -9.039805    4.505554    0.000000    1.485000
   237  Cl    c    -0.025735   -9.039805    4.505554    0.000000    1.485000
   238  Na    c     4.513890   -2.227395   11.209054    0.000000    1.000000
   239  Na    c    -0.006103   -2.227395   11.209054    0.000000    1.000000
   240  Na    c     9.015173    6.684519   -2.323878    0.000000    1.000000
   241  Na    c    -4.507386    6.684519   -2.323878    0.000000    1.000000
   242  Cl    c     9.059829    4.516218   -4.510103    0.000000    1.485000
   243  Cl    c    -4.552041    4.516218   -4.510103    0.000000    1.485000
   244  Na    c     2.253894   -6.586799    9.001431    0.000000    1.000000
   245  O     c    11.264508   -2.257720   -2.254550    0.000000    0.183000
   246  O     c    -6.756721   -2.257720   -2.254550    0.000000    0.183000
   247  Na    c     2.253894    4.492599   11.508870    0.000000    1.000000
   248  Na    c     2.253894   -9.013177   -2.030386    0.000000    1.000000
   249  Na    c    11.471487   -4.487937    2.265704    0.000000    1.000000
   250  Na    c    -6.963700   -4.487937    2.265704    0.000000    1.000000
   251  Na    c    11.191752   -0.001271    6.866926    0.000000    1.000000
   252  Na    c    -6.683965   -0.001271    6.866926    0.000000    1.000000
   253  O     c    11.271418    2.253798    6.774720    0.000000    0.183000
   254  O     c    -6.763630    2.253798    6.774720    0.000000    0.183000
   255  Na    c     6.802307   -0.001920   11.380115    0.000000    1.000000
   256  Na    c    -2.294519   -0.001920   11.380115    0.000000    1.000000
   257  Na    c    -2.417218   -8.983566    2.262961    0.000000    1.000000
   258  Na    c     6.925005   -8.983566    2.262961    0.000000    1.000000
   259  Cl    c     9.064381   -4.517216   -4.506932    0.000000    1.485000
   260  Cl    c    -4.556594   -4.517216   -4.506932    0.000000    1.485000
   261  Na    c     9.014681    6.707565    6.820624    0.000000    1.000000
[...]
    244 y          4.507787      4.586577     0.078790    Cartesian    1.75
    244 z          4.507787      4.628817     0.121030    Cartesian    2.68
    245 x          2.253894      2.253894     0.000000    Cartesian    0.00
    245 y         -2.253894     -2.231746     0.022148    Cartesian   -0.98
    245 z          6.761681      6.775456     0.013775    Cartesian    0.20
    246 x          4.507787      4.582202     0.074415    Cartesian    1.65
    246 y         -4.507787     -4.586631    -0.078844    Cartesian    1.75
    246 z         -0.000000     -0.138820    -0.138820    Cartesian *******
    247 x          4.507787      4.598188     0.090401    Cartesian    2.01
    247 y         -4.507787     -4.615758    -0.107971    Cartesian    2.40
    247 z          4.507787      4.629250     0.121463    Cartesian    2.69
    248 x          2.253894      2.253894     0.000000    Cartesian    0.00
    248 y          6.761681      6.812135     0.050454    Cartesian    0.75
    248 z          2.253894      2.290953     0.037060    Cartesian    1.64
    249 x         -2.253894     -2.249384     0.004510    Cartesian   -0.20
    249 y          2.253894      2.252817    -0.001076    Cartesian   -0.05
    249 z         -2.253894     -2.223251     0.030643    Cartesian   -1.36
    250 x          6.761681      6.765281     0.003600    Cartesian    0.05
    250 y         -2.253894     -2.252007     0.001886    Cartesian   -0.08
    250 z         -2.253894     -2.255976    -0.002083    Cartesian    0.09
    251 x          4.507787      4.506881    -0.000906    Cartesian   -0.02
    251 y          0.000000     -0.007416    -0.007416    Cartesian    0.00
    251 z         -4.507787     -4.525833    -0.018046    Cartesian    0.40
    252 x         -2.253894     -2.271048    -0.017154    Cartesian    0.76
    252 y          2.253894      2.256916     0.003023    Cartesian    0.13
    252 z          6.761681      6.788529     0.026848    Cartesian    0.40
    253 x          9.015574      9.016523     0.000949    Cartesian    0.01
    253 y          0.000000      0.019356     0.019356    Cartesian    0.00
    253 z         -0.000000     -0.002777    -0.002777    Cartesian *******
    254 x          2.253894      2.253894     0.000000    Cartesian    0.00
    254 y         -6.761681     -6.816248    -0.054567    Cartesian    0.81
    254 z          2.253894      2.261301     0.007408    Cartesian    0.33
    255 x          6.761681      6.764462     0.002781    Cartesian    0.04
    255 y         -2.253894     -2.252458     0.001436    Cartesian   -0.06
    255 z          6.761681      6.760605    -0.001076    Cartesian   -0.02
    256 x          9.015574      9.063042     0.047468    Cartesian    0.53
    256 y          0.000000     -0.010167    -0.010167    Cartesian    0.00
    256 z          4.507787      4.541275     0.033488    Cartesian    0.74
    257 x          2.253894      2.253894     0.000000    Cartesian    0.00
    257 y          6.761681      6.712926    -0.048755    Cartesian   -0.72
    257 z         -2.253894     -2.185519     0.068374    Cartesian   -3.03
    258 x          4.507787      4.536375     0.028587    Cartesian    0.63
    258 y          0.000000     -0.027486    -0.027486    Cartesian    0.00
    258 z          9.015574      9.079672     0.064098    Cartesian    0.71
    259 x         -2.253894     -2.255382    -0.001489    Cartesian    0.07
    259 y          6.761681      6.735936    -0.025745    Cartesian   -0.38
    259 z          2.253894      2.262107     0.008213    Cartesian    0.36
    260 x          4.507787      4.523627     0.015840    Cartesian    0.35
    260 y          4.507787      4.525959     0.018171    Cartesian    0.40
    260 z         -4.507787     -4.541832    -0.034045    Cartesian    0.76
    261 x          2.253894      2.253894     0.000000    Cartesian    0.00
    261 y          6.761681      6.744918    -0.016763    Cartesian   -0.25
    261 z          6.761681      6.737165    -0.024516    Cartesian   -0.36
    262 x          9.015574      9.076950     0.061376    Cartesian    0.68
    262 y          4.507787      4.532301     0.024514    Cartesian    0.54
    262 z         -0.000000     -0.006411    -0.006411    Cartesian *******
    263 x          2.253894      2.253894     0.000000    Cartesian    0.00
    263 y         -6.761681     -6.762328    -0.000647    Cartesian    0.01
    263 z         -2.253894     -2.232527     0.021367    Cartesian   -0.95
    264 x          9.015574      9.071899     0.056325    Cartesian    0.62
    264 y          4.507787      4.513430     0.005643    Cartesian    0.13
    264 z          4.507787      4.531514     0.023727    Cartesian    0.53
    265 x          4.507787      4.526532     0.018745    Cartesian    0.42
    265 y         -4.507787     -4.526296    -0.018509    Cartesian    0.41
    265 z         -4.507787     -4.538054    -0.030267    Cartesian    0.67
    266 x          6.761681      6.743972    -0.017709    Cartesian   -0.26
    266 y         -6.761681     -6.711878     0.049802    Cartesian   -0.74
    266 z          2.253894      2.246760    -0.007133    Cartesian   -0.32
    267 x          4.507787      4.527253     0.019465    Cartesian    0.43
    267 y          4.507787      4.528178     0.020391    Cartesian    0.45
    267 z          9.015574      9.076604     0.061030    Cartesian    0.68
    268 x          9.015574      9.062391     0.046817    Cartesian    0.52
    268 y         -4.507787     -4.514409    -0.006622    Cartesian    0.15
    268 z         -0.000000     -0.011217    -0.011217    Cartesian *******
    269 x          2.253894      2.253894     0.000000    Cartesian    0.00
    269 y         -6.761681     -6.768453    -0.006772    Cartesian    0.10
    269 z          6.761681      6.734244    -0.027437    Cartesian   -0.41
    270 x          6.761681      6.767741     0.006060    Cartesian    0.09
    270 y          6.761681      6.767522     0.005841    Cartesian    0.09
    270 z         -2.253894     -2.261253    -0.007360    Cartesian    0.33
    271 x          2.253894      2.253894     0.000000    Cartesian    0.00
    271 y          2.253894      2.250554    -0.003340    Cartesian   -0.15
    271 z         -6.761681     -6.703206     0.058475    Cartesian   -0.86
    272 x          9.015574      9.072736     0.057162    Cartesian    0.63
    272 y         -4.507787     -4.540710    -0.032923    Cartesian    0.73
    272 z          4.507787      4.545250     0.037463    Cartesian    0.83
    273 x          2.253894      2.253894     0.000000    Cartesian    0.00
    273 y         -2.253894     -2.249684     0.004209    Cartesian   -0.19
    273 z         -6.761681     -6.737150     0.024531    Cartesian   -0.36
    274 x          4.507787      4.494282    -0.013505    Cartesian   -0.30
    274 y         -4.507787     -4.533624    -0.025837    Cartesian    0.57
    274 z          9.015574      9.075482     0.059907    Cartesian    0.66
    275 x          4.507787      4.490464    -0.017323    Cartesian   -0.38
    275 y          9.015574      9.064958     0.049383    Cartesian    0.55
    275 z         -0.000000      0.010542     0.010542    Cartesian *******
    276 x         -2.253894     -2.259469    -0.005576    Cartesian    0.25
    276 y          6.761681      6.760006    -0.001675    Cartesian   -0.02
    276 z          6.761681      6.786420     0.024740    Cartesian    0.37
    277 x         11.269468     11.236718    -0.032750    Cartesian   -0.29
    277 y          2.253894      2.247910    -0.005983    Cartesian   -0.27
    277 z          2.253894      2.260338     0.006444    Cartesian    0.29
    278 x          4.507787      4.521862     0.014075    Cartesian    0.31
    278 y          9.015574      9.038631     0.023057    Cartesian    0.26
    278 z          4.507787      4.524010     0.016223    Cartesian    0.36
    279 x          9.015574      9.032541     0.016967    Cartesian    0.19
    279 y          0.000000     -0.019830    -0.019830    Cartesian    0.00
    279 z         -4.507787     -4.519593    -0.011806    Cartesian    0.26
    280 x          6.761681      6.764370     0.002689    Cartesian    0.04
    280 y         -6.761681     -6.764591    -0.002910    Cartesian    0.04
    280 z         -2.253894     -2.263461    -0.009567    Cartesian    0.42
    281 x         11.269468     11.221532    -0.047936    Cartesian   -0.43
    281 y         -2.253894     -2.247984     0.005910    Cartesian   -0.26
    281 z          2.253894      2.253411    -0.000482    Cartesian   -0.02
    282 x          2.253894      2.253894     0.000000    Cartesian    0.00
    282 y          2.253894      2.253284    -0.000609    Cartesian   -0.03
    282 z         11.269468     11.259481    -0.009987    Cartesian   -0.09
    283 x          2.253894      2.253894     0.000000    Cartesian    0.00
    283 y         -2.253894     -2.276241    -0.022347    Cartesian    0.99
    283 z         11.269468     11.250741    -0.018727    Cartesian   -0.17
    284 x          6.761681      6.766204     0.004523    Cartesian    0.07
    284 y         -6.761681     -6.754667     0.007013    Cartesian   -0.10
    284 z          6.761681      6.777203     0.015522    Cartesian    0.23
    285 x          6.761681      6.755209    -0.006472    Cartesian   -0.10
    285 y          2.253894      2.255814     0.001920    Cartesian    0.09
    285 z         -6.761681     -6.740583     0.021098    Cartesian   -0.31
    286 x          4.507787      4.478725    -0.029062    Cartesian   -0.64
    286 y         -9.015574     -9.078142    -0.062568    Cartesian    0.69
    286 z         -0.000000      0.012855     0.012855    Cartesian *******
    287 x          9.015574      9.016197     0.000623    Cartesian    0.01
    287 y          0.000000      0.027153     0.027153    Cartesian    0.00
    287 z          9.015574      9.045830     0.030255    Cartesian    0.34
    288 x         11.269468     11.267763    -0.001705    Cartesian   -0.02
    288 y          2.253894      2.259639     0.005745    Cartesian    0.25
    288 z         -2.253894     -2.242479     0.011415    Cartesian   -0.51
    289 x         -2.253894     -2.249868     0.004026    Cartesian   -0.18
    289 y         -2.253894     -2.239048     0.014845    Cartesian   -0.66
    289 z         -6.761681     -6.758644     0.003037    Cartesian   -0.04
    290 x          4.507787      4.530314     0.022527    Cartesian    0.50
    290 y         -9.015574     -9.035683    -0.020109    Cartesian    0.22
    290 z          4.507787      4.504199    -0.003588    Cartesian   -0.08
    291 x          9.015574      9.064501     0.048926    Cartesian    0.54
    291 y          4.507787      4.518159     0.010372    Cartesian    0.23
    291 z         -4.507787     -4.510807    -0.003020    Cartesian    0.07
    292 x         11.269468     11.264490    -0.004978    Cartesian   -0.04
    292 y         -2.253894     -2.257748    -0.003855    Cartesian    0.17
    292 z         -2.253894     -2.254568    -0.000674    Cartesian    0.03
    293 x         11.269468     11.271403     0.001935    Cartesian    0.02
    293 y          2.253894      2.253810    -0.000084    Cartesian   -0.00
    293 z          6.761681      6.774755     0.013074    Cartesian    0.19
    294 x          9.015574      9.069357     0.053783    Cartesian    0.60
    294 y         -4.507787     -4.517920    -0.010133    Cartesian    0.22
    294 z         -4.507787     -4.503589     0.004198    Cartesian   -0.09
    295 x          6.761681      6.759356    -0.002325    Cartesian   -0.03
    295 y          2.253894      2.236583    -0.017311    Cartesian   -0.77
    295 z         11.269468     11.273258     0.003789    Cartesian    0.03
    296 x         11.269468     11.269118    -0.000350    Cartesian   -0.00
    296 y         -2.253894     -2.253388     0.000505    Cartesian   -0.02
    296 z          6.761681      6.753149    -0.008532    Cartesian   -0.13
    297 x          2.253894      2.253894     0.000000    Cartesian    0.00
    297 y          6.761681      6.758486    -0.003195    Cartesian   -0.05
    297 z         -6.761681     -6.738705     0.022976    Cartesian   -0.34
    298 x          9.015574      9.060992     0.045417    Cartesian    0.50
    298 y          4.507787      4.509810     0.002022    Cartesian    0.04
    298 z          9.015574      9.030458     0.014883    Cartesian    0.17
    299 x          2.253894      2.253894     0.000000    Cartesian    0.00
    299 y         11.269468     11.265431    -0.004037    Cartesian   -0.04
    299 z          2.253894      2.235282    -0.018612    Cartesian   -0.83
    300 x         -2.253894     -2.264885    -0.010991    Cartesian    0.49
    300 y         -2.253894     -2.239451     0.014442    Cartesian   -0.64
    300 z         11.269468     11.268477    -0.000991    Cartesian   -0.01
    301 x          4.507787      4.533354     0.025567    Cartesian    0.57
    301 y          9.015574      9.033247     0.017673    Cartesian    0.20
    301 z         -4.507787     -4.527721    -0.019934    Cartesian    0.44
    302 x         11.269468     11.274534     0.005066    Cartesian    0.04
    302 y          6.761681      6.746597    -0.015084    Cartesian   -0.22
    302 z          2.253894      2.261371     0.007477    Cartesian    0.33
    303 x          9.015574      9.046895     0.031321    Cartesian    0.35
    303 y         -4.507787     -4.505978     0.001809    Cartesian   -0.04
    303 z          9.015574      9.044897     0.029322    Cartesian    0.33
    304 x          4.507787      4.529941     0.022154    Cartesian    0.49
    304 y          0.000000     -0.016379    -0.016379    Cartesian    0.00
    304 z         -9.015574     -9.016681    -0.001106    Cartesian    0.01
    305 x          9.015574      9.018816     0.003242    Cartesian    0.04
    305 y          9.015574      9.056598     0.041024    Cartesian    0.46
    305 z         -0.000000     -0.004144    -0.004144    Cartesian *******
    306 x          2.253894      2.253894     0.000000    Cartesian    0.00
    306 y         -6.761681     -6.768175    -0.006494    Cartesian    0.10
    306 z         -6.761681     -6.744842     0.016839    Cartesian   -0.25
    307 x          9.015574      9.043468     0.027893    Cartesian    0.31
    307 y          9.015574      9.061096     0.045521    Cartesian    0.50
    307 z          4.507787      4.524743     0.016956    Cartesian    0.38
    308 x          2.253894      2.253894     0.000000    Cartesian    0.00
    308 y          6.761681      6.736003    -0.025678    Cartesian   -0.38
    308 z         11.269468     11.276251     0.006783    Cartesian    0.06
    309 x         13.523362     13.598905     0.075544    Cartesian    0.56
    309 y          0.000000      0.013280     0.013280    Cartesian    0.00
    309 z         -0.000000      0.036925     0.036925    Cartesian *******
    310 x          4.507787      4.513676     0.005888    Cartesian    0.13
    310 y          9.015574      9.053510     0.037936    Cartesian    0.42
    310 z          9.015574      9.047030     0.031456    Cartesian    0.35
    311 x          2.253894      2.253894     0.000000    Cartesian    0.00
    311 y         11.269468     11.263085    -0.006383    Cartesian   -0.06
    311 z         -2.253894     -2.249428     0.004465    Cartesian   -0.20
    312 x         11.269468     11.266392    -0.003076    Cartesian   -0.03
    312 y         -6.761681     -6.744030     0.017651    Cartesian   -0.26
    312 z          2.253894      2.257367     0.003473    Cartesian    0.15
    313 x          6.761681      6.762026     0.000345    Cartesian    0.01
    313 y          6.761681      6.766851     0.005170    Cartesian    0.08
    313 z         -6.761681     -6.759141     0.002540    Cartesian   -0.04
    314 x          4.507787      4.521240     0.013452    Cartesian    0.30
    314 y         -9.015574     -9.027048    -0.011474    Cartesian    0.13
    314 z         -4.507787     -4.553563    -0.045776    Cartesian    1.02
    315 x         13.523362     13.593420     0.070059    Cartesian    0.52
    315 y          0.000000     -0.016611    -0.016611    Cartesian    0.00
    315 z          4.507787      4.484546    -0.023241    Cartesian   -0.52
    316 x          6.761681      6.771215     0.009535    Cartesian    0.14
    316 y         11.269468     11.261023    -0.008445    Cartesian   -0.07
    316 z          2.253894      2.261593     0.007699    Cartesian    0.34
    317 x          2.253894      2.253894     0.000000    Cartesian    0.00
    317 y        -11.269468    -11.280640    -0.011172    Cartesian    0.10
    317 z          2.253894      2.237444    -0.016450    Cartesian   -0.73
    318 x         11.269468     11.275115     0.005647    Cartesian    0.05
    318 y          6.761681      6.763345     0.001664    Cartesian    0.02
    318 z         -2.253894     -2.257957    -0.004064    Cartesian    0.18
    319 x          4.507787      4.509388     0.001601    Cartesian    0.04
    319 y          4.507787      4.499455    -0.008332    Cartesian   -0.18
    319 z         -9.015574     -9.082323    -0.066748    Cartesian    0.74
    320 x          9.015574      9.011270    -0.004304    Cartesian   -0.05
    320 y         -9.015574     -9.077973    -0.062398    Cartesian    0.69
    320 z         -0.000000     -0.006734    -0.006734    Cartesian *******
    321 x          2.253894      2.253894     0.000000    Cartesian    0.00
    321 y         11.269468     11.250500    -0.018968    Cartesian   -0.17
    321 z          6.761681      6.779754     0.018073    Cartesian    0.27
    322 x          2.253894      2.253894     0.000000    Cartesian    0.00
    322 y         -6.761681     -6.757873     0.003808    Cartesian   -0.06
    322 z         11.269468     11.282799     0.013331    Cartesian    0.12
    323 x          4.507787      4.537753     0.029965    Cartesian    0.66
    323 y          0.000000      0.012207     0.012207    Cartesian    0.00
    323 z         13.523362     13.588412     0.065050    Cartesian    0.48
    324 x          9.015574      9.025411     0.009836    Cartesian    0.11
    324 y         -9.015574     -9.076125    -0.060550    Cartesian    0.67
    324 z          4.507787      4.514275     0.006487    Cartesian    0.14
--------------------------------------------------------------------------------


  Time to end of optimisation  =       51.9192 seconds


  Peak dynamic memory used =      96.03 MB 


  Timing analysis for GULP :

--------------------------------------------------------------------------------
  Task / Subroutine                                          Time (Seconds)
--------------------------------------------------------------------------------
  Calculation of reciprocal space energy and derivatives          0.0006
  Calculation of reciprocal space energy using symmetry           0.0008
  Calculation of real space energy and derivatives                0.0033
  Calculation of real space energy using symmetry                 0.0075
  Calculation for region 1 energy and derivatives (2-b)          28.5920
  Calculation for region 2a energy                               20.5412
  Calculation for region 2b energy                                0.0080
  Calculation and manipulation of Hessian matrix                  0.1211
  Calculation of matrix inversion                                 2.4110
  Symmetry generation of equivalent positions                     0.0038
--------------------------------------------------------------------------------
  Total CPU time                                                 51.9193
--------------------------------------------------------------------------------


  Dump file written as Na3OCl.grs


  Job Finished at 10:49.44  4th December   2020                               

