********************************************************************************
*                       GENERAL UTILITY LATTICE PROGRAM                        *
*                                 Julian Gale                                  *
*                       Curtin Institute for Computation                       *
*                    School of Molecular and Life Sciences                     *
*                    Curtin University, Western Australia                      *
********************************************************************************
* Version = 5.2.0 * Last modified =  10th September 2020                       *
********************************************************************************
*  optimise     - perform optimisation run                                     *
*  conp         - constant pressure calculation                                *
*  property     - calculate properties for final geometry                      *
*  defect       - perform defect calculation after bulk run                    *
*  compare      - compare initial and final structures                         *
********************************************************************************

  Job Started  at 10:49.11  4th December   2020                               

  Number of CPUs =     1


  Total number of configurations input =      1

********************************************************************************
*  Input for Configuration =   1                                               *
********************************************************************************

  Formula = ClONa3                                                      

  Number of irreducible atoms/shells =       5


  Total number atoms/shells =       7

  Dimensionality = 3               :  Bulk   


  Symmetry :

  Crystal family                   :  Cubic       
  Crystal class  (Groth - 1921)    :  Cubic Hexakisoctahedral              

  Space group (centrosymmetric)    :  P M 3 M         

  Patterson group                  :  P m -3 m 

  Cartesian lattice vectors (Angstroms) :

        4.504000    0.000000    0.000000
        0.000000    4.504000    0.000000
        0.000000    0.000000    4.504000

  Cell parameters (Angstroms/Degrees):

  a =       4.5040    alpha =  90.0000
  b =       4.5040    beta  =  90.0000
  c =       4.5040    gamma =  90.0000

  Initial cell volume =          91.368216 Angs**3

  Temperature of configuration =   0.00     K 

  Pressure of configuration =         0.000 GPa 

  Fractional coordinates of asymmetric unit :

--------------------------------------------------------------------------------
   No.  Atomic       x           y          z         Charge      Occupancy
        Label      (Frac)      (Frac)     (Frac)        (e)         (Frac)  
--------------------------------------------------------------------------------
      1 Cl    c    0.000000    0.000000    0.000000     1.48500    1.000000    
      2 O     c    0.500000    0.500000    0.500000     0.18300    1.000000    
      3 Na    c    0.500000    0.500000    0.000000     1.00000    1.000000    
      4 Cl    s    0.000000    0.000000    0.000000    -2.48500    1.000000    
      5 O     s    0.500000    0.500000    0.500000    -2.18300    1.000000    
--------------------------------------------------------------------------------


  Constraints : 

--------------------------------------------------------------------------------
  Constraint no.      Unconstrained     Constrained    Coefficient    Offset
                         Variable         Variable
--------------------------------------------------------------------------------
           1              Strain 1        Strain 2       1.00000      0.0000
           2              Strain 1        Strain 3       1.00000      0.0000
--------------------------------------------------------------------------------


********************************************************************************
*  General input information                                                   *
********************************************************************************

  Species output for all configurations : 

--------------------------------------------------------------------------------
  Species    Type    Atomic    Atomic    Charge       Radii (Angs)     Library
                     Number     Mass       (e)     Cova   Ionic  VDW   Symbol
--------------------------------------------------------------------------------
    Na       Core       11      22.99   1.000000   0.970  0.000  2.300          
    O        Core        8      16.00   0.183000   0.730  0.000  1.360          
    O        Shell       8       0.00  -2.183000   0.730  0.000  1.360          
    Cl       Core       17      35.45   1.485000   0.990  0.000  1.650          
    Cl       Shell      17       0.00  -2.485000   0.990  0.000  1.650          
    Mg       Core       12      24.31   0.415000   1.100  0.000  0.000          
    Mg       Shell      12       0.00   1.585000   1.100  0.000  0.000          
    Ca       Core       20      40.08  -1.135000   0.990  0.000  0.000          
    Ca       Shell      20       0.00   3.135000   0.990  0.000  0.000          
    Sr       Core       38      87.62  -1.251000   1.120  0.000  0.000          
    Sr       Shell      38       0.00   3.251000   1.120  0.000  0.000          
    Ba       Core       56     137.33  -7.203000   1.340  0.000  0.000          
    Ba       Shell      56       0.00   9.203000   1.340  0.000  0.000          
--------------------------------------------------------------------------------


  Lattice summation method               =    Ewald          (3-D)
                                         =    Parry          (2-D)
                                         =    Saunders et al (1-D)
  Accuracy factor for lattice sums       =   12.000


  Analytic derivatives to be used

  Time limit = Infinity

  Maximum range for interatomic potentials =    100000.000000 Angstroms

  General interatomic potentials :

--------------------------------------------------------------------------------
Atom  Types   Potential      Parameter       Value         Units   Cutoffs(Ang)
  1     2                                                            Min /  Max 
--------------------------------------------------------------------------------
O    c O    s Spring (c-s)  Spring k 2       593.71600    eV*Ang^-2 0.000  0.800
                            Spring k 4       0.0000000    eV*Ang^-4 
--------------------------------------------------------------------------------
Cl   c Cl   s Spring (c-s)  Spring k 2       29.380000    eV*Ang^-2 0.000  0.800
                            Spring k 4       0.0000000    eV*Ang^-4 
--------------------------------------------------------------------------------
Mg   c Mg   s Spring (c-s)  Spring k 2       361.60000    eV*Ang^-2 0.000  0.800
                            Spring k 4       0.0000000    eV*Ang^-4 
--------------------------------------------------------------------------------
Ca   c Ca   s Spring (c-s)  Spring k 2       110.20000    eV*Ang^-2 0.000  0.800
                            Spring k 4       0.0000000    eV*Ang^-4 
--------------------------------------------------------------------------------
Sr   c Sr   s Spring (c-s)  Spring k 2       71.700000    eV*Ang^-2 0.000  0.800
                            Spring k 4       0.0000000    eV*Ang^-4 
--------------------------------------------------------------------------------
Ba   c Ba   s Spring (c-s)  Spring k 2       495.20000    eV*Ang^-2 0.000  0.800
                            Spring k 4       0.0000000    eV*Ang^-4 
--------------------------------------------------------------------------------
Na   c Na   c Buckingham    Buckingham A     1788.1900    eV        0.000 12.000
                            Buckingham rho  0.15900000    Ang       
                            Buckingham C     0.0000000    eV*Ang^6  
--------------------------------------------------------------------------------
Na   c O    s Buckingham    Buckingham A     1226.8400    eV        0.000 12.000
                            Buckingham rho  0.30700000    Ang       
                            Buckingham C     0.0000000    eV*Ang^6  
--------------------------------------------------------------------------------
Na   c Cl   s Buckingham    Buckingham A     2314.7000    eV        0.000 12.000
                            Buckingham rho  0.29000000    Ang       
                            Buckingham C     0.0000000    eV*Ang^6  
--------------------------------------------------------------------------------
O    s O    s Buckingham    Buckingham A     22764.300    eV        0.000 12.000
                            Buckingham rho  0.14900000    Ang       
                            Buckingham C     13.190000    eV*Ang^6  
--------------------------------------------------------------------------------
O    s Cl   s Buckingham    Buckingham A     8286.9100    eV        0.000 12.000
                            Buckingham rho  0.25900000    Ang       
                            Buckingham C     62.200000    eV*Ang^6  
--------------------------------------------------------------------------------
Cl   s Cl   s Buckingham    Buckingham A     1227.2000    eV        0.000 12.000
                            Buckingham rho  0.32100000    Ang       
                            Buckingham C     14.530000    eV*Ang^6  
--------------------------------------------------------------------------------
O    s Mg   s Buckingham    Buckingham A     1428.5000    eV        0.000 12.000
                            Buckingham rho  0.29450000    Ang       
                            Buckingham C     0.0000000    eV*Ang^6  
--------------------------------------------------------------------------------
Mg   s Cl   s Buckingham    Buckingham A     4914.5400    eV        0.000 12.000
                            Buckingham rho  0.25700000    Ang       
                            Buckingham C     0.0000000    eV*Ang^6  
--------------------------------------------------------------------------------
O    s Ca   s Buckingham    Buckingham A     1090.4000    eV        0.000 12.000
                            Buckingham rho  0.34370000    Ang       
                            Buckingham C     0.0000000    eV*Ang^6  
--------------------------------------------------------------------------------
Cl   s Ca   s Buckingham    Buckingham A     2302.0000    eV        0.000 12.000
                            Buckingham rho  0.34020000    Ang       
                            Buckingham C     0.0000000    eV*Ang^6  
--------------------------------------------------------------------------------
O    s Sr   s Buckingham    Buckingham A     959.10000    eV        0.000 12.000
                            Buckingham rho  0.37210000    Ang       
                            Buckingham C     0.0000000    eV*Ang^6  
--------------------------------------------------------------------------------
Cl   s Sr   s Buckingham    Buckingham A     2191.0900    eV        0.000 12.000
                            Buckingham rho  0.34570000    Ang       
                            Buckingham C     0.0000000    eV*Ang^6  
--------------------------------------------------------------------------------
O    s Ba   s Buckingham    Buckingham A     905.70000    eV        0.000 12.000
                            Buckingham rho  0.39760000    Ang       
                            Buckingham C     0.0000000    eV*Ang^6  
--------------------------------------------------------------------------------
Cl   s Ba   s Buckingham    Buckingham A     2704.5500    eV        0.000 12.000
                            Buckingham rho  0.35280000    Ang       
                            Buckingham C     0.0000000    eV*Ang^6  
--------------------------------------------------------------------------------

********************************************************************************
*  Output for configuration   1                                                *
********************************************************************************


  Components of energy : 

--------------------------------------------------------------------------------
  Interatomic potentials     =           5.13022605 eV    
  Monopole - monopole (real) =         -10.03624526 eV    
  Monopole - monopole (recip)=         -29.53581274 eV    
  Monopole - monopole (total)=         -39.57205800 eV    
--------------------------------------------------------------------------------
  Total lattice energy       =         -34.44183194 eV    
--------------------------------------------------------------------------------
  Total lattice energy       =           -3323.1103 kJ/(mole unit cells)
--------------------------------------------------------------------------------


  Number of variables =        1

  Maximum number of calculations  =          1000
  Maximum Hessian update interval =            10
  Maximum step size               =   1.000000000
  Maximum parameter tolerance     =   0.000010000
  Maximum function  tolerance     =   0.000010000
  Maximum gradient  tolerance     =   0.001000000
  Maximum gradient  component     =   0.010000000

  Symmetry constrained optimisation

  Symmetry used for second derivatives

  Cell parameters to be optimised using strains

  Newton-Raphson optimiser to be used

  BFGS hessian update to be used

  Lower half triangular hessian to be used

  Start of bulk optimisation :

  Cycle:      0 Energy:       -34.441832  Gnorm:      0.196570  CPU:    0.013
  ** Hessian calculated **
  Cycle:      1 Energy:       -34.441914  Gnorm:      0.000103  CPU:    0.016


  **** Optimisation achieved ****


  Final energy =     -34.44191447 eV
  Final Gnorm  =       0.00000000

  Components of energy : 

--------------------------------------------------------------------------------
  Interatomic potentials     =           5.09689708 eV    
  Monopole - monopole (real) =         -10.02781331 eV    
  Monopole - monopole (recip)=         -29.51099824 eV    
  Monopole - monopole (total)=         -39.53881155 eV    
--------------------------------------------------------------------------------
  Total lattice energy       =         -34.44191447 eV    
--------------------------------------------------------------------------------
  Total lattice energy       =           -3323.1183 kJ/(mole unit cells)
--------------------------------------------------------------------------------

  Final asymmetric unit coordinates :

--------------------------------------------------------------------------------
   No.  Atomic        x           y           z         Radius
        Label       (Frac)      (Frac)      (Frac)       (Angs) 
--------------------------------------------------------------------------------
     1  Cl    c     0.000000    0.000000    0.000000    0.000000
     2  O     c     0.500000    0.500000    0.500000    0.000000
     3  Na    c     0.500000    0.500000    0.000000    0.000000
     4  Cl    s     0.000000    0.000000    0.000000    0.000000
     5  O     s     0.500000    0.500000    0.500000    0.000000
--------------------------------------------------------------------------------

  Final Cartesian lattice vectors (Angstroms) :

        4.507787    0.000000    0.000000
        0.000000    4.507787    0.000000
        0.000000    0.000000    4.507787


  Final cell parameters and derivatives :

--------------------------------------------------------------------------------
       a            4.507787 Angstrom     dE/de1(xx)     0.000000 eV/strain
       b            4.507787 Angstrom     dE/de2(yy)     0.000000 eV/strain
       c            4.507787 Angstrom     dE/de3(zz)     0.000000 eV/strain
       alpha       90.000000 Degrees      dE/de4(yz)     0.000000 eV/strain
       beta        90.000000 Degrees      dE/de5(xz)     0.000000 eV/strain
       gamma       90.000000 Degrees      dE/de6(xy)     0.000000 eV/strain
--------------------------------------------------------------------------------

  Primitive cell volume =            91.598892 Angs**3

  Density of cell =      2.183054 g/cm**3

  Non-primitive cell volume =            91.598892 Angs**3


  Final internal derivatives :

--------------------------------------------------------------------------------
   No.  Atomic          a             b             c           Radius
        Label          (eV)          (eV)          (eV)        (eV/Angs)
--------------------------------------------------------------------------------
      1 Cl    c       0.000000      0.000000      0.000000      0.000000
      2 O     c       0.000000      0.000000      0.000000      0.000000
      3 Na    c       0.000000      0.000000      0.000000      0.000000
      4 Cl    s       0.000000      0.000000      0.000000      0.000000
      5 O     s       0.000000      0.000000      0.000000      0.000000
--------------------------------------------------------------------------------
  Maximum abs         0.000000      0.000000      0.000000      0.000000
--------------------------------------------------------------------------------

  Comparison of initial and final structures : 

--------------------------------------------------------------------------------
  Parameter   Initial value   Final value   Difference    Units      Percent
--------------------------------------------------------------------------------
    Volume        91.368216     91.598892     0.230676    Angs**3      0.25
    a              4.504000      4.507787     0.003787    Angstroms    0.08
    b              4.504000      4.507787     0.003787    Angstroms    0.08
    c              4.504000      4.507787     0.003787    Angstroms    0.08
    alpha         90.000000     90.000000     0.000000    Degrees      0.00
    beta          90.000000     90.000000     0.000000    Degrees      0.00
    gamma         90.000000     90.000000     0.000000    Degrees      0.00
      1 x          0.000000      0.000000     0.000000    Fractional   0.00
      1 y          0.000000      0.000000     0.000000    Fractional   0.00
      1 z          0.000000      0.000000     0.000000    Fractional   0.00
      2 x          0.500000      0.500000     0.000000    Fractional   0.00
      2 y          0.500000      0.500000     0.000000    Fractional   0.00
      2 z          0.500000      0.500000     0.000000    Fractional   0.00
      3 x          0.500000      0.500000     0.000000    Fractional   0.00
      3 y          0.500000      0.500000     0.000000    Fractional   0.00
      3 z          0.000000      0.000000     0.000000    Fractional   0.00
      4 x          0.000000      0.000000     0.000000    Fractional   0.00
      4 y          0.000000      0.000000     0.000000    Fractional   0.00
      4 z          0.000000      0.000000     0.000000    Fractional   0.00
      5 x          0.500000      0.500000     0.000000    Fractional   0.00
      5 y          0.500000      0.500000     0.000000    Fractional   0.00
      5 z          0.500000      0.500000     0.000000    Fractional   0.00
--------------------------------------------------------------------------------


  Born effective charge tensors : 

-------------------------------------------------------------------------------
  Atom             x           y             z
-------------------------------------------------------------------------------
    1 Cl    x      -1.0181     -0.0000      0.0000
            y      -0.0000     -1.0181      0.0000
            z       0.0000      0.0000     -1.0181
-------------------------------------------------------------------------------
    2 O     x      -2.2647      0.0000     -0.0000
            y       0.0000     -2.2647     -0.0000
            z      -0.0000     -0.0000     -2.2647
-------------------------------------------------------------------------------
    3 Na    x       1.2258     -0.0000      0.0000
            y      -0.0000      1.2258     -0.0000
            z       0.0000     -0.0000      0.8313
-------------------------------------------------------------------------------




  Elastic Constant Matrix: (Units=GPa)

-------------------------------------------------------------------------------
  Indices      1         2         3         4         5         6    
-------------------------------------------------------------------------------
       1     95.8177   20.0737   20.0737   -0.0000   -0.0000    0.0000
       2     20.0737   95.8177   20.0737   -0.0000   -0.0000    0.0000
       3     20.0737   20.0737   95.8177   -0.0000   -0.0000    0.0000
       4     -0.0000   -0.0000   -0.0000   20.0737   -0.0000    0.0000
       5     -0.0000   -0.0000   -0.0000   -0.0000   20.0737    0.0000
       6      0.0000    0.0000    0.0000    0.0000    0.0000   20.0737
-------------------------------------------------------------------------------


  Elastic Compliance Matrix: (Units=1/GPa)

-------------------------------------------------------------------------------
  Indices      1         2         3         4         5         6    
-------------------------------------------------------------------------------
       1    0.011253 -0.001949 -0.001949  0.000000  0.000000 -0.000000
       2   -0.001949  0.011253 -0.001949  0.000000  0.000000  0.000000
       3   -0.001949 -0.001949  0.011253  0.000000  0.000000 -0.000000
       4    0.000000  0.000000  0.000000  0.049816  0.000000 -0.000000
       5    0.000000  0.000000  0.000000  0.000000  0.049816 -0.000000
       6   -0.000000  0.000000 -0.000000 -0.000000 -0.000000  0.049816
-------------------------------------------------------------------------------

  Mechanical properties :

-------------------------------------------------------------------------------
  Convention :                    Reuss         Voigt         Hill
-------------------------------------------------------------------------------
  Bulk  Modulus (GPa)     =      45.32174      45.32174      45.32174
  Shear Modulus (GPa)     =      24.72085      27.19304      25.95695
-------------------------------------------------------------------------------
  Velocity S-wave (km/s)  =       3.36511       3.52937       3.44822
  Velocity P-wave (km/s)  =       5.98827       6.11304       6.05098
-------------------------------------------------------------------------------
  Compressibility (1/GPa) =    0.02206447
-------------------------------------------------------------------------------
  Stress axis :                     x             y             z
-------------------------------------------------------------------------------
  Youngs Moduli (GPa)     =      88.86373      88.86373      88.86373
-------------------------------------------------------------------------------
  Poissons Ratio (x)      =                     0.17321       0.17321
  Poissons Ratio (y)      =       0.17321                     0.17321
  Poissons Ratio (z)      =       0.17321       0.17321
-------------------------------------------------------------------------------


  Piezoelectric Strain Matrix: (Units=C/m**2)

-------------------------------------------------------------------------------
  Indices      1         2         3         4         5         6    
-------------------------------------------------------------------------------
       x    -0.00000  -0.00000  -0.00000   0.00000  -0.00000  -0.00000
       y    -0.00000  -0.00000   0.00000  -0.00000   0.00000   0.00000
       z    -0.00000  -0.00000  -0.00000  -0.00000   0.00000   0.00000
-------------------------------------------------------------------------------


  Piezoelectric Stress Matrix: (Units=10**-11 C/N)

-------------------------------------------------------------------------------
  Indices      1         2         3         4         5         6    
-------------------------------------------------------------------------------
       x    -0.00000   0.00000   0.00000   0.00000  -0.00000  -0.00000
       y    -0.00000  -0.00000   0.00000  -0.00000   0.00000   0.00000
       z     0.00000   0.00000  -0.00000  -0.00000   0.00000   0.00000
-------------------------------------------------------------------------------


  Static dielectric constant tensor : 

-------------------------------------------------------------------------------
              x         y         z
-------------------------------------------------------------------------------
       x    22.84729   0.00000   0.00000
       y     0.00000  22.84729  -0.00000
       z     0.00000  -0.00000  22.84729
--------------------------------------------------------------------------------

  High frequency dielectric constant tensor : 

-------------------------------------------------------------------------------
              x         y         z
-------------------------------------------------------------------------------
       x     1.47557   0.00000  -0.00000
       y     0.00000   1.47557  -0.00000
       z    -0.00000  -0.00000   1.47557
-------------------------------------------------------------------------------

  Static refractive indices : 

-------------------------------------------------------------------------------
    1 =    4.77988      2 =    4.77988      3 =    4.77988
-------------------------------------------------------------------------------

  High frequency refractive indices : 

-------------------------------------------------------------------------------
    1 =    1.21473      2 =    1.21473      3 =    1.21473
-------------------------------------------------------------------------------


  Time to end of optimisation =       0.0242 seconds

********************************************************************************
*  Defect calculation for configuration   1 :                                  *
********************************************************************************

  Total number of defects =      3

  Total charge on defect  =  -1.00

  Defect centre is at   0.5000   0.0600   0.4400  Frac

  Region 1 radius =  12.0000      Number of ions =    556

  Number of symmetry inequivalent region 1 ions  =    324

  Region 2 radius =  16.0000      Number of ions =    749

  Number of symmetry inequivalent region 2a ions =    406

  Region 2a mode = 4 : screened electrostatics due to region 1 
                       neglect correction to region 1 forces from 2a
                       region 2a displacements based on defects only

  Region 2a ions will only interact with defects in region 1

  Vacancies:

--------------------------------------------------------------------------------
    Specification type     Symbol/Number         x          y          z
--------------------------------------------------------------------------------
    Fractional                               0.500000   0.500000   0.000000
    Fractional                               0.500000   0.000000   0.500000
--------------------------------------------------------------------------------

  Interstitials:

--------------------------------------------------------------------------------
    Specification type     Symbol/Number         x          y          z
--------------------------------------------------------------------------------
    Atom/Fractional         Na               0.500000   0.440000   0.060000
--------------------------------------------------------------------------------


  Symmetry reduced region 1 (Relative to defect centre) :

--------------------------------------------------------------------------------
   No.   Atomic       x            y             z       Radius  Multiplicity   
         Label      (Angs)       (Angs)        (Angs)    (Angs)     
--------------------------------------------------------------------------------
     1  O     c      0.0000       1.9834 *     0.2705 *  0.0000     1          
     2  Na    c      0.0000       1.7130      -1.7130    0.0000     1    Defect
     3  O     c      0.0000      -2.5244 *     0.2705 *  0.0000     1          
     4  Na    c      2.2539 *     1.9834 *     0.2705 *  0.0000     2          
     5  Cl    c      2.2539 *    -0.2705 *    -1.9834 *  0.0000     2          
     6  Na    c      0.0000       1.9834 *     2.5244 *  0.0000     1          
     7  Na    c      0.0000      -2.5244 *    -1.9834 *  0.0000     1          
     8  Cl    c      2.2539 *    -0.2705 *     2.5244 *  0.0000     2          
     9  Na    c      2.2539 *    -2.5244 *     0.2705 *  0.0000     2          
    10  Na    c      0.0000      -2.5244 *     2.5244 *  0.0000     1          
    11  Na    c      0.0000      -0.2705 *    -4.2373 *  0.0000     1          
    12  Na    c      0.0000       4.2373 *     0.2705 *  0.0000     1          
    13  Na    c     -4.5078 *    -0.2705 *     0.2705 *  0.0000     2          
    14  O     c      0.0000       1.9834 *    -4.2373 *  0.0000     1          
    15  Na    c      0.0000      -0.2705 *     4.7783 *  0.0000     1          
    16  Na    c      0.0000      -4.7783 *     0.2705 *  0.0000     1          
    17  O     c     -4.5078 *     1.9834 *     0.2705 *  0.0000     2          
    18  O     c      0.0000      -2.5244 *    -4.2373 *  0.0000     1          
    19  O     c      0.0000       1.9834 *     4.7783 *  0.0000     1          
    20  O     c     -4.5078 *    -2.5244 *     0.2705 *  0.0000     2          
    21  Na    c      2.2539 *     1.9834 *    -4.2373 *  0.0000     2          
    22  Cl    c      2.2539 *     4.2373 *    -1.9834 *  0.0000     2          
    23  Na    c     -4.5078 *     1.9834 *    -1.9834 *  0.0000     2          
    24  O     c      0.0000      -2.5244 *     4.7783 *  0.0000     1          
    25  Cl    c      2.2539 *     4.2373 *     2.5244 *  0.0000     2          
    26  Na    c      2.2539 *    -2.5244 *    -4.2373 *  0.0000     2          
    27  Na    c     -4.5078 *     1.9834 *     2.5244 *  0.0000     2          
    28  Na    c     -4.5078 *    -2.5244 *    -1.9834 *  0.0000     2          
    29  Na    c      2.2539 *     1.9834 *     4.7783 *  0.0000     2          
    30  Cl    c      2.2539 *    -4.7783 *    -1.9834 *  0.0000     2          
    31  Na    c     -4.5078 *    -2.5244 *     2.5244 *  0.0000     2          
    32  Cl    c      2.2539 *    -4.7783 *     2.5244 *  0.0000     2          
    33  Na    c      2.2539 *    -2.5244 *     4.7783 *  0.0000     2          
    34  Na    c      0.0000       4.2373 *    -4.2373 *  0.0000     1          
    35  Na    c     -4.5078 *    -0.2705 *    -4.2373 *  0.0000     2          
    36  Na    c     -4.5078 *     4.2373 *     0.2705 *  0.0000     2          
    37  Na    c      0.0000       4.2373 *     4.7783 *  0.0000     1          
    38  Na    c      0.0000      -4.7783 *    -4.2373 *  0.0000     1          
    39  O     c      0.0000       6.4912 *     0.2705 *  0.0000     1          
    40  O     c      4.5078 *     1.9834 *    -4.2373 *  0.0000     2          
    41  Na    c     -4.5078 *    -0.2705 *     4.7783 *  0.0000     2          
    42  Na    c     -4.5078 *    -4.7783 *     0.2705 *  0.0000     2          
    43  O     c     -4.5078 *    -2.5244 *    -4.2373 *  0.0000     2          
    44  Na    c      0.0000      -4.7783 *     4.7783 *  0.0000     1          
    45  Na    c      0.0000       1.9834 *    -6.4912 *  0.0000     1          
    46  Na    c      0.0000       6.4912 *    -1.9834 *  0.0000     1          
    47  O     c      4.5078 *     1.9834 *     4.7783 *  0.0000     2          
    48  Cl    c      2.2539 *    -0.2705 *    -6.4912 *  0.0000     2          
    49  Na    c      2.2539 *     6.4912 *     0.2705 *  0.0000     2          
    50  Na    c      0.0000      -2.5244 *    -6.4912 *  0.0000     1          
    51  Na    c      0.0000       6.4912 *     2.5244 *  0.0000     1          
    52  O     c      0.0000      -7.0321 *     0.2705 *  0.0000     1          
    53  O     c     -4.5078 *    -2.5244 *     4.7783 *  0.0000     2          
    54  Cl    c      6.7617 *    -0.2705 *    -1.9834 *  0.0000     2          
    55  Na    c      6.7617 *     1.9834 *     0.2705 *  0.0000     2          
    56  Cl    c      6.7617 *    -0.2705 *     2.5244 *  0.0000     2          
    57  Na    c      6.7617 *    -2.5244 *     0.2705 *  0.0000     2          
    58  Na    c      0.0000       1.9834 *     7.0321 *  0.0000     1          
    59  Na    c      0.0000      -7.0321 *    -1.9834 *  0.0000     1          
    60  Cl    c      2.2539 *    -0.2705 *     7.0321 *  0.0000     2          
    61  Na    c      2.2539 *    -7.0321 *     0.2705 *  0.0000     2          
    62  Na    c      0.0000      -2.5244 *     7.0321 *  0.0000     1          
    63  Na    c      0.0000      -7.0321 *     2.5244 *  0.0000     1          
    64  Na    c      4.5078 *     4.2373 *    -4.2373 *  0.0000     2          
    65  O     c      0.0000       6.4912 *    -4.2373 *  0.0000     1          
    66  Na    c      4.5078 *     4.2373 *     4.7783 *  0.0000     2          
    67  Na    c      4.5078 *    -4.7783 *    -4.2373 *  0.0000     2          
    68  O     c     -4.5078 *     6.4912 *     0.2705 *  0.0000     2          
    69  O     c      0.0000       6.4912 *     4.7783 *  0.0000     1          
    70  Cl    c      2.2539 *     4.2373 *    -6.4912 *  0.0000     2          
    71  Na    c      2.2539 *     6.4912 *    -4.2373 *  0.0000     2          
    72  Na    c      4.5078 *    -4.7783 *     4.7783 *  0.0000     2          
    73  Na    c     -4.5078 *     1.9834 *    -6.4912 *  0.0000     2          
    74  Na    c     -4.5078 *     6.4912 *    -1.9834 *  0.0000     2          
    75  O     c      0.0000      -7.0321 *    -4.2373 *  0.0000     1          
    76  Cl    c      6.7617 *     4.2373 *    -1.9834 *  0.0000     2          
    77  Na    c      6.7617 *     1.9834 *    -4.2373 *  0.0000     2          
    78  Na    c     -4.5078 *    -2.5244 *    -6.4912 *  0.0000     2          
    79  Na    c     -4.5078 *     6.4912 *     2.5244 *  0.0000     2          
    80  O     c     -4.5078 *    -7.0321 *     0.2705 *  0.0000     2          
    81  Cl    c      2.2539 *    -4.7783 *    -6.4912 *  0.0000     2          
    82  Na    c      2.2539 *     6.4912 *     4.7783 *  0.0000     2          
    83  Cl    c      6.7617 *     4.2373 *     2.5244 *  0.0000     2          
    84  Na    c      6.7617 *    -2.5244 *    -4.2373 *  0.0000     2          
    85  O     c      0.0000      -7.0321 *     4.7783 *  0.0000     1          
    86  Cl    c      2.2539 *     4.2373 *     7.0321 *  0.0000     2          
    87  Cl    c      6.7617 *    -4.7783 *    -1.9834 *  0.0000     2          
    88  Na    c      2.2539 *    -7.0321 *    -4.2373 *  0.0000     2          
    89  Na    c      6.7617 *     1.9834 *     4.7783 *  0.0000     2          
    90  Na    c      4.5078 *     1.9834 *     7.0321 *  0.0000     2          
    91  Na    c     -4.5078 *    -7.0321 *    -1.9834 *  0.0000     2          
    92  Cl    c      6.7617 *    -4.7783 *     2.5244 *  0.0000     2          
    93  Na    c      6.7617 *    -2.5244 *     4.7783 *  0.0000     2          
    94  Na    c      4.5078 *    -2.5244 *     7.0321 *  0.0000     2          
    95  Na    c     -4.5078 *    -7.0321 *     2.5244 *  0.0000     2          
    96  Na    c      0.0000      -0.2705 *    -8.7451 *  0.0000     1          
    97  Na    c      0.0000       8.7451 *     0.2705 *  0.0000     1          
    98  Cl    c      2.2539 *    -4.7783 *     7.0321 *  0.0000     2          
    99  Na    c      2.2539 *    -7.0321 *     4.7783 *  0.0000     2          
   100  O     c     -4.5078 *     6.4912 *    -4.2373 *  0.0000     2          
   101  O     c      0.0000       1.9834 *    -8.7451 *  0.0000     1          
   102  Na    c      9.0156 *    -0.2705 *     0.2705 *  0.0000     2          
   103  O     c      0.0000      -2.5244 *    -8.7451 *  0.0000     1          
   104  Na    c      0.0000       6.4912 *    -6.4912 *  0.0000     1          
   105  O     c     -4.5078 *     6.4912 *     4.7783 *  0.0000     2          
   106  O     c      9.0156 *     1.9834 *     0.2705 *  0.0000     2          
   107  Cl    c      2.2539 *     8.7451 *    -1.9834 *  0.0000     2          
   108  Na    c      2.2539 *     1.9834 *    -8.7451 *  0.0000     2          
   109  Na    c      0.0000      -0.2705 *     9.2860 *  0.0000     1          
   110  Na    c      0.0000      -9.2860 *     0.2705 *  0.0000     1          
   111  O     c     -4.5078 *    -7.0321 *    -4.2373 *  0.0000     2          
   112  O     c      9.0156 *    -2.5244 *     0.2705 *  0.0000     2          
   113  Cl    c      6.7617 *    -0.2705 *    -6.4912 *  0.0000     2          
   114  Na    c      6.7617 *     6.4912 *     0.2705 *  0.0000     2          
   115  Cl    c      2.2539 *     8.7451 *     2.5244 *  0.0000     2          
   116  Na    c      2.2539 *    -2.5244 *    -8.7451 *  0.0000     2          
   117  Na    c      9.0156 *     1.9834 *    -1.9834 *  0.0000     2          
   118  O     c      0.0000       1.9834 *     9.2860 *  0.0000     1          
   119  Na    c      0.0000       6.4912 *     7.0321 *  0.0000     1          
   120  Na    c      0.0000      -7.0321 *    -6.4912 *  0.0000     1          
   121  Na    c      9.0156 *    -2.5244 *    -1.9834 *  0.0000     2          
   122  Na    c      9.0156 *     1.9834 *     2.5244 *  0.0000     2          
   123  O     c      0.0000      -2.5244 *     9.2860 *  0.0000     1          
   124  O     c     -4.5078 *    -7.0321 *     4.7783 *  0.0000     2          
   125  Na    c      9.0156 *    -2.5244 *     2.5244 *  0.0000     2          
   126  Na    c      0.0000       4.2373 *    -8.7451 *  0.0000     1          
   127  Na    c      0.0000       8.7451 *    -4.2373 *  0.0000     1          
   128  Cl    c      2.2539 *    -9.2860 *    -1.9834 *  0.0000     2          
   129  Na    c      2.2539 *     1.9834 *     9.2860 *  0.0000     2          
   130  Cl    c      6.7617 *    -0.2705 *     7.0321 *  0.0000     2          
   131  Na    c      6.7617 *    -7.0321 *     0.2705 *  0.0000     2          
   132  Na    c      4.5078 *    -0.2705 *    -8.7451 *  0.0000     2          
   133  Na    c     -4.5078 *     8.7451 *     0.2705 *  0.0000     2          
   134  Cl    c      2.2539 *    -9.2860 *     2.5244 *  0.0000     2          
   135  Na    c      2.2539 *    -2.5244 *     9.2860 *  0.0000     2          
   136  Na    c      0.0000      -7.0321 *     7.0321 *  0.0000     1          
   137  Na    c      9.0156 *    -0.2705 *    -4.2373 *  0.0000     2          
   138  Na    c      9.0156 *     4.2373 *     0.2705 *  0.0000     2          
   139  Na    c      0.0000       8.7451 *     4.7783 *  0.0000     1          
   140  Na    c      0.0000      -4.7783 *    -8.7451 *  0.0000     1          
   141  O     c     -4.5078 *     1.9834 *    -8.7451 *  0.0000     2          
   142  O     c      9.0156 *     1.9834 *    -4.2373 *  0.0000     2          
   143  O     c     -4.5078 *    -2.5244 *    -8.7451 *  0.0000     2          
   144  Na    c      0.0000       4.2373 *     9.2860 *  0.0000     1          
   145  Na    c      0.0000      -9.2860 *    -4.2373 *  0.0000     1          
   146  Na    c      9.0156 *    -0.2705 *     4.7783 *  0.0000     2          
   147  Na    c      9.0156 *    -4.7783 *     0.2705 *  0.0000     2          
   148  Na    c     -4.5078 *     6.4912 *    -6.4912 *  0.0000     2          
   149  O     c      9.0156 *    -2.5244 *    -4.2373 *  0.0000     2          
   150  Cl    c      6.7617 *     4.2373 *    -6.4912 *  0.0000     2          
   151  Na    c      6.7617 *     6.4912 *    -4.2373 *  0.0000     2          
   152  Na    c      4.5078 *    -0.2705 *     9.2860 *  0.0000     2          
   153  Na    c     -4.5078 *    -9.2860 *     0.2705 *  0.0000     2          
   154  O     c      9.0156 *     1.9834 *     4.7783 *  0.0000     2          
   155  Na    c      0.0000      -4.7783 *     9.2860 *  0.0000     1          
   156  Na    c      0.0000      -9.2860 *     4.7783 *  0.0000     1          
   157  O     c      4.5078 *     1.9834 *     9.2860 *  0.0000     2          
   158  O     c      9.0156 *    -2.5244 *     4.7783 *  0.0000     2          
   159  Cl    c      6.7617 *    -4.7783 *    -6.4912 *  0.0000     2          
   160  Na    c      6.7617 *     6.4912 *     4.7783 *  0.0000     2          
   161  Na    c      4.5078 *     6.4912 *     7.0321 *  0.0000     2          
   162  Na    c     -4.5078 *    -7.0321 *    -6.4912 *  0.0000     2          
   163  O     c     -4.5078 *    -2.5244 *     9.2860 *  0.0000     2          
   164  Cl    c      6.7617 *     4.2373 *     7.0321 *  0.0000     2          
   165  Na    c      6.7617 *    -7.0321 *    -4.2373 *  0.0000     2          
   166  Na    c     -4.5078 *     4.2373 *    -8.7451 *  0.0000     2          
   167  Na    c     -4.5078 *     8.7451 *    -4.2373 *  0.0000     2          
   168  Na    c      9.0156 *     4.2373 *    -4.2373 *  0.0000     2          
   169  Cl    c      6.7617 *    -4.7783 *     7.0321 *  0.0000     2          
   170  Na    c      6.7617 *    -7.0321 *     4.7783 *  0.0000     2          
   171  O     c      0.0000       6.4912 *    -8.7451 *  0.0000     1          
   172  Na    c      4.5078 *    -7.0321 *     7.0321 *  0.0000     2          
   173  Na    c     -4.5078 *     8.7451 *     4.7783 *  0.0000     2          
   174  Na    c      4.5078 *    -4.7783 *    -8.7451 *  0.0000     2          
   175  O     c      0.0000      10.9990 *     0.2705 *  0.0000     1          
   176  Na    c      9.0156 *     4.2373 *     4.7783 *  0.0000     2          
   177  Na    c      9.0156 *    -4.7783 *    -4.2373 *  0.0000     2          
   178  O     c      9.0156 *     6.4912 *     0.2705 *  0.0000     2          
   179  Cl    c      2.2539 *     8.7451 *    -6.4912 *  0.0000     2          
   180  Na    c      2.2539 *     6.4912 *    -8.7451 *  0.0000     2          
   181  Na    c     -4.5078 *    -9.2860 *    -4.2373 *  0.0000     2          
   182  Na    c      4.5078 *     4.2373 *     9.2860 *  0.0000     2          
   183  Na    c      0.0000       1.9834 *   -10.9990 *  0.0000     1          
   184  Na    c      0.0000      10.9990 *    -1.9834 *  0.0000     1          
   185  O     c      0.0000      -7.0321 *    -8.7451 *  0.0000     1          
   186  Cl    c      2.2539 *    -0.2705 *   -10.9990 *  0.0000     2          
   187  Na    c      2.2539 *    10.9990 *     0.2705 *  0.0000     2          
   188  Cl    c      6.7617 *     8.7451 *    -1.9834 *  0.0000     2          
   189  Na    c      6.7617 *     1.9834 *    -8.7451 *  0.0000     2          
   190  Na    c      9.0156 *    -4.7783 *     4.7783 *  0.0000     2          
   191  Na    c      0.0000      -2.5244 *   -10.9990 *  0.0000     1          
   192  Na    c      0.0000      10.9990 *     2.5244 *  0.0000     1          
   193  Na    c      9.0156 *     1.9834 *    -6.4912 *  0.0000     2          
   194  Na    c      9.0156 *     6.4912 *    -1.9834 *  0.0000     2          
   195  O     c      0.0000       6.4912 *     9.2860 *  0.0000     1          
   196  Cl    c      6.7617 *     8.7451 *     2.5244 *  0.0000     2          
   197  Na    c      6.7617 *    -2.5244 *    -8.7451 *  0.0000     2          
   198  Na    c      4.5078 *    -4.7783 *     9.2860 *  0.0000     2          
   199  Na    c     -4.5078 *    -9.2860 *     4.7783 *  0.0000     2          
   200  Na    c      9.0156 *    -2.5244 *    -6.4912 *  0.0000     2          
   201  Na    c      9.0156 *     6.4912 *     2.5244 *  0.0000     2          
   202  O     c      9.0156 *    -7.0321 *     0.2705 *  0.0000     2          
   203  Cl    c     11.2695 *    -0.2705 *    -1.9834 *  0.0000     2          
   204  Na    c     11.2695 *     1.9834 *     0.2705 *  0.0000     2          
   205  Cl    c      2.2539 *     8.7451 *     7.0321 *  0.0000     2          
   206  Na    c      2.2539 *    -7.0321 *    -8.7451 *  0.0000     2          
   207  O     c      0.0000     -11.5399 *     0.2705 *  0.0000     1          
   208  Cl    c      2.2539 *    -9.2860 *    -6.4912 *  0.0000     2          
   209  Cl    c     11.2695 *    -0.2705 *     2.5244 *  0.0000     2          
   210  Na    c      2.2539 *     6.4912 *     9.2860 *  0.0000     2          
   211  Na    c     11.2695 *    -2.5244 *     0.2705 *  0.0000     2          
   212  Na    c      9.0156 *     1.9834 *     7.0321 *  0.0000     2          
   213  Na    c      9.0156 *    -7.0321 *    -1.9834 *  0.0000     2          
   214  O     c      0.0000      -7.0321 *     9.2860 *  0.0000     1          
   215  Na    c      6.7617 *     1.9834 *     9.2860 *  0.0000     2          
   216  Cl    c      6.7617 *    -9.2860 *    -1.9834 *  0.0000     2          
   217  Na    c      0.0000       1.9834 *    11.5399 *  0.0000     1          
   218  Na    c      0.0000     -11.5399 *    -1.9834 *  0.0000     1          
   219  Na    c      9.0156 *    -2.5244 *     7.0321 *  0.0000     2          
   220  Na    c      9.0156 *    -7.0321 *     2.5244 *  0.0000     2          
   221  Na    c      6.7617 *    -2.5244 *     9.2860 *  0.0000     2          
   222  Cl    c      2.2539 *    -0.2705 *    11.5399 *  0.0000     2          
   223  Cl    c      6.7617 *    -9.2860 *     2.5244 *  0.0000     2          
   224  Na    c      2.2539 *   -11.5399 *     0.2705 *  0.0000     2          
   225  O     c      0.0000      10.9990 *    -4.2373 *  0.0000     1          
   226  O     c     -4.5078 *     6.4912 *    -8.7451 *  0.0000     2          
   227  Na    c      0.0000      -2.5244 *    11.5399 *  0.0000     1          
   228  Na    c      0.0000     -11.5399 *     2.5244 *  0.0000     1          
   229  Cl    c      2.2539 *    -9.2860 *     7.0321 *  0.0000     2          
   230  Na    c      2.2539 *    -7.0321 *     9.2860 *  0.0000     2          
   231  O     c      4.5078 *    10.9990 *     0.2705 *  0.0000     2          
   232  O     c      9.0156 *     6.4912 *    -4.2373 *  0.0000     2          
   233  O     c      0.0000      10.9990 *     4.7783 *  0.0000     1          
   234  O     s      0.0000       1.9834 *     0.2705 *  0.0000     1          
   235  O     s      0.0000      -2.5244 *     0.2705 *  0.0000     1          
   236  Cl    s      2.2539 *    -0.2705 *    -1.9834 *  0.0000     2          
   237  Cl    s      2.2539 *    -0.2705 *     2.5244 *  0.0000     2          
   238  O     s      0.0000       1.9834 *    -4.2373 *  0.0000     1          
   239  O     s     -4.5078 *     1.9834 *     0.2705 *  0.0000     2          
   240  O     s      0.0000      -2.5244 *    -4.2373 *  0.0000     1          
   241  O     s      0.0000       1.9834 *     4.7783 *  0.0000     1          
   242  O     s     -4.5078 *    -2.5244 *     0.2705 *  0.0000     2          
   243  Cl    s      2.2539 *     4.2373 *    -1.9834 *  0.0000     2          
   244  O     s      0.0000      -2.5244 *     4.7783 *  0.0000     1          
   245  Cl    s      2.2539 *     4.2373 *     2.5244 *  0.0000     2          
   246  Cl    s      2.2539 *    -4.7783 *    -1.9834 *  0.0000     2          
   247  Cl    s      2.2539 *    -4.7783 *     2.5244 *  0.0000     2          
   248  O     s      0.0000       6.4912 *     0.2705 *  0.0000     1          
   249  O     s      4.5078 *     1.9834 *    -4.2373 *  0.0000     2          
   250  O     s     -4.5078 *    -2.5244 *    -4.2373 *  0.0000     2          
   251  O     s      4.5078 *     1.9834 *     4.7783 *  0.0000     2          
   252  Cl    s      2.2539 *    -0.2705 *    -6.4912 *  0.0000     2          
   253  O     s      0.0000      -7.0321 *     0.2705 *  0.0000     1          
   254  O     s     -4.5078 *    -2.5244 *     4.7783 *  0.0000     2          
   255  Cl    s      6.7617 *    -0.2705 *    -1.9834 *  0.0000     2          
   256  Cl    s      6.7617 *    -0.2705 *     2.5244 *  0.0000     2          
   257  Cl    s      2.2539 *    -0.2705 *     7.0321 *  0.0000     2          
   258  O     s      0.0000       6.4912 *    -4.2373 *  0.0000     1          
   259  O     s     -4.5078 *     6.4912 *     0.2705 *  0.0000     2          
   260  O     s      0.0000       6.4912 *     4.7783 *  0.0000     1          
   261  Cl    s      2.2539 *     4.2373 *    -6.4912 *  0.0000     2          
   262  O     s      0.0000      -7.0321 *    -4.2373 *  0.0000     1          
   263  Cl    s      6.7617 *     4.2373 *    -1.9834 *  0.0000     2          
   264  O     s     -4.5078 *    -7.0321 *     0.2705 *  0.0000     2          
   265  Cl    s      2.2539 *    -4.7783 *    -6.4912 *  0.0000     2          
   266  Cl    s      6.7617 *     4.2373 *     2.5244 *  0.0000     2          
   267  O     s      0.0000      -7.0321 *     4.7783 *  0.0000     1          
   268  Cl    s      2.2539 *     4.2373 *     7.0321 *  0.0000     2          
   269  Cl    s      6.7617 *    -4.7783 *    -1.9834 *  0.0000     2          
   270  Cl    s      6.7617 *    -4.7783 *     2.5244 *  0.0000     2          
   271  Cl    s      2.2539 *    -4.7783 *     7.0321 *  0.0000     2          
   272  O     s     -4.5078 *     6.4912 *    -4.2373 *  0.0000     2          
   273  O     s      0.0000       1.9834 *    -8.7451 *  0.0000     1          
   274  O     s      0.0000      -2.5244 *    -8.7451 *  0.0000     1          
   275  O     s     -4.5078 *     6.4912 *     4.7783 *  0.0000     2          
   276  O     s      9.0156 *     1.9834 *     0.2705 *  0.0000     2          
   277  Cl    s      2.2539 *     8.7451 *    -1.9834 *  0.0000     2          
   278  O     s     -4.5078 *    -7.0321 *    -4.2373 *  0.0000     2          
   279  O     s      9.0156 *    -2.5244 *     0.2705 *  0.0000     2          
   280  Cl    s      6.7617 *    -0.2705 *    -6.4912 *  0.0000     2          
   281  Cl    s      2.2539 *     8.7451 *     2.5244 *  0.0000     2          
   282  O     s      0.0000       1.9834 *     9.2860 *  0.0000     1          
   283  O     s      0.0000      -2.5244 *     9.2860 *  0.0000     1          
   284  O     s     -4.5078 *    -7.0321 *     4.7783 *  0.0000     2          
   285  Cl    s      2.2539 *    -9.2860 *    -1.9834 *  0.0000     2          
   286  Cl    s      6.7617 *    -0.2705 *     7.0321 *  0.0000     2          
   287  Cl    s      2.2539 *    -9.2860 *     2.5244 *  0.0000     2          
   288  O     s     -4.5078 *     1.9834 *    -8.7451 *  0.0000     2          
   289  O     s      9.0156 *     1.9834 *    -4.2373 *  0.0000     2          
   290  O     s     -4.5078 *    -2.5244 *    -8.7451 *  0.0000     2          
   291  O     s      9.0156 *    -2.5244 *    -4.2373 *  0.0000     2          
   292  Cl    s      6.7617 *     4.2373 *    -6.4912 *  0.0000     2          
   293  O     s      9.0156 *     1.9834 *     4.7783 *  0.0000     2          
   294  O     s      4.5078 *     1.9834 *     9.2860 *  0.0000     2          
   295  O     s      9.0156 *    -2.5244 *     4.7783 *  0.0000     2          
   296  Cl    s      6.7617 *    -4.7783 *    -6.4912 *  0.0000     2          
   297  O     s     -4.5078 *    -2.5244 *     9.2860 *  0.0000     2          
   298  Cl    s      6.7617 *     4.2373 *     7.0321 *  0.0000     2          
   299  Cl    s      6.7617 *    -4.7783 *     7.0321 *  0.0000     2          
   300  O     s      0.0000       6.4912 *    -8.7451 *  0.0000     1          
   301  O     s      0.0000      10.9990 *     0.2705 *  0.0000     1          
   302  O     s      9.0156 *     6.4912 *     0.2705 *  0.0000     2          
   303  Cl    s      2.2539 *     8.7451 *    -6.4912 *  0.0000     2          
   304  O     s      0.0000      -7.0321 *    -8.7451 *  0.0000     1          
   305  Cl    s      2.2539 *    -0.2705 *   -10.9990 *  0.0000     2          
   306  Cl    s      6.7617 *     8.7451 *    -1.9834 *  0.0000     2          
   307  O     s      0.0000       6.4912 *     9.2860 *  0.0000     1          
   308  Cl    s      6.7617 *     8.7451 *     2.5244 *  0.0000     2          
   309  O     s      9.0156 *    -7.0321 *     0.2705 *  0.0000     2          
   310  Cl    s     11.2695 *    -0.2705 *    -1.9834 *  0.0000     2          
   311  Cl    s      2.2539 *     8.7451 *     7.0321 *  0.0000     2          
   312  O     s      0.0000     -11.5399 *     0.2705 *  0.0000     1          
   313  Cl    s      2.2539 *    -9.2860 *    -6.4912 *  0.0000     2          
   314  Cl    s     11.2695 *    -0.2705 *     2.5244 *  0.0000     2          
   315  O     s      0.0000      -7.0321 *     9.2860 *  0.0000     1          
   316  Cl    s      6.7617 *    -9.2860 *    -1.9834 *  0.0000     2          
   317  Cl    s      2.2539 *    -0.2705 *    11.5399 *  0.0000     2          
   318  Cl    s      6.7617 *    -9.2860 *     2.5244 *  0.0000     2          
   319  O     s      0.0000      10.9990 *    -4.2373 *  0.0000     1          
   320  O     s     -4.5078 *     6.4912 *    -8.7451 *  0.0000     2          
   321  Cl    s      2.2539 *    -9.2860 *     7.0321 *  0.0000     2          
   322  O     s      4.5078 *    10.9990 *     0.2705 *  0.0000     2          
   323  O     s      9.0156 *     6.4912 *    -4.2373 *  0.0000     2          
   324  O     s      0.0000      10.9990 *     4.7783 *  0.0000     1          
--------------------------------------------------------------------------------

  Components of defect energy : 

--------------------------------------------------------------------------------
  Region 1 - region 1                   =      1.90468683 eV
  Region 1 - region 2a (unrelaxed)      =      6.48724366 eV
  Region 1 - 2a (relaxed - correction)  =     -0.27890954 eV
  Region 1 (Total)                      =      8.11302095 eV
  Region 2a                             =      0.13937992 eV
  Region 2b                             =     -0.43088545 eV
--------------------------------------------------------------------------------
  Total defect energy                   =      7.82151542 eV
--------------------------------------------------------------------------------

  Largest displacement in region 2 =   0.0219 Angstroms


  Number of variables =      878

  Maximum number of calculations  =        1000
  Maximum Hessian update interval =          10
  Maximum step size               =   1.0000000
  Maximum parameter tolerance     =   0.0000100
  Maximum function  tolerance     =   0.0000100
  Maximum gradient  tolerance     =   0.0010000

  Symmetry adapted optimisation

  Symmetry to be used for second derivatives

  Newton-Raphson optimiser to be used

  BFGS hessian update to be used

  Lower half triangular hessian to be used

  Start of defect optimisation :

  Cycle:      0 Defect Energy:   7.821515  Gnorm:     0.018743  CPU:    2.411
  ** Hessian calculated **
  Cycle:      1 Defect Energy:   6.123624  Gnorm:     0.007069  CPU:    6.543
  Cycle:      2 Defect Energy:   5.585485  Gnorm:     0.005989  CPU:   10.212
  Cycle:      3 Defect Energy:   5.463929  Gnorm:     0.003413  CPU:   13.179
  Cycle:      4 Defect Energy:   5.416280  Gnorm:     0.003347  CPU:   14.015
  Cycle:      5 Defect Energy:   5.350649  Gnorm:     0.002935  CPU:   14.851
  Cycle:      6 Defect Energy:   5.262584  Gnorm:     0.002507  CPU:   15.710
  Cycle:      7 Defect Energy:   5.154460  Gnorm:     0.002453  CPU:   16.527
  Cycle:      8 Defect Energy:   5.068842  Gnorm:     0.002076  CPU:   17.350
  Cycle:      9 Defect Energy:   5.008249  Gnorm:     0.002199  CPU:   18.187
  Cycle:     10 Defect Energy:   4.952940  Gnorm:     0.002240  CPU:   19.019
  ** Hessian calculated **
  Cycle:     11 Defect Energy:   4.870322  Gnorm:     0.002066  CPU:   21.158
  Cycle:     12 Defect Energy:   4.831440  Gnorm:     0.001975  CPU:   22.011
  ** Hessian calculated **
  Cycle:     13 Defect Energy:   4.813442  Gnorm:     0.001735  CPU:   24.189
  Cycle:     14 Defect Energy:   4.791936  Gnorm:     0.001642  CPU:   25.049
  Cycle:     15 Defect Energy:   4.769017  Gnorm:     0.001616  CPU:   25.915
  Cycle:     16 Defect Energy:   4.749173  Gnorm:     0.001554  CPU:   26.739
  Cycle:     17 Defect Energy:   4.732447  Gnorm:     0.001521  CPU:   27.570
  Cycle:     18 Defect Energy:   4.716717  Gnorm:     0.001483  CPU:   28.393
  Cycle:     19 Defect Energy:   4.700927  Gnorm:     0.001462  CPU:   29.215
  Cycle:     20 Defect Energy:   4.682534  Gnorm:     0.001421  CPU:   30.047
  Cycle:     21 Defect Energy:   4.662581  Gnorm:     0.001363  CPU:   30.875
  Cycle:     22 Defect Energy:   4.641262  Gnorm:     0.001333  CPU:   31.715
  ** Hessian calculated **
  Cycle:     23 Defect Energy:   4.614036  Gnorm:     0.001225  CPU:   33.893
  Cycle:     24 Defect Energy:   4.587716  Gnorm:     0.001103  CPU:   34.756
  ** Hessian calculated **
  Cycle:     25 Defect Energy:   4.564562  Gnorm:     0.001008  CPU:   37.014
  ** Hessian calculated **
  Cycle:     26 Defect Energy:   4.503782  Gnorm:     0.000732  CPU:   39.178
  Cycle:     27 Defect Energy:   4.472677  Gnorm:     0.000461  CPU:   39.999
  Cycle:     28 Defect Energy:   4.461006  Gnorm:     0.000399  CPU:   40.822
  Cycle:     29 Defect Energy:   4.451252  Gnorm:     0.000220  CPU:   41.652
  Cycle:     30 Defect Energy:   4.450915  Gnorm:     0.000253  CPU:   42.482
  ** Hessian calculated **
  Cycle:     31 Defect Energy:   4.448276  Gnorm:     0.000179  CPU:   44.690
  Cycle:     32 Defect Energy:   4.446923  Gnorm:     0.000129  CPU:   45.550
  Cycle:     33 Defect Energy:   4.446226  Gnorm:     0.000090  CPU:   46.360
  Cycle:     34 Defect Energy:   4.445887  Gnorm:     0.000063  CPU:   47.193
  Cycle:     35 Defect Energy:   4.445728  Gnorm:     0.000044  CPU:   48.026
  Cycle:     36 Defect Energy:   4.445656  Gnorm:     0.000031  CPU:   48.867
  Cycle:     37 Defect Energy:   4.445626  Gnorm:     0.000021  CPU:   49.688
  Cycle:     38 Defect Energy:   4.445615  Gnorm:     0.000015  CPU:   50.519


  **** Optimisation achieved ****


  Final defect energy  =        4.44561321
  Final defect Gnorm   =        0.00000964

  Components of defect energy : 

--------------------------------------------------------------------------------
  Region 1 - region 1                   =      0.15851656 eV
  Region 1 - region 2a (unrelaxed)      =      4.82064889 eV
  Region 1 - 2a (relaxed - correction)  =     -0.20492112 eV
  Region 1 (Total)                      =      4.77424433 eV
  Region 2a                             =      0.10238803 eV
  Region 2b                             =     -0.43101915 eV
--------------------------------------------------------------------------------
  Total defect energy                   =      4.44561321 eV
--------------------------------------------------------------------------------

  Largest displacement in region 2 =   0.0219 Angstroms

  Final coordinates of region 1 :

--------------------------------------------------------------------------------
   No.  Atomic        x           y           z          Radius      Charge
        Label       (Angs)      (Angs)      (Angs)       (Angs)       (e) 
--------------------------------------------------------------------------------
     1  O     c     2.253894    2.352659    2.409954    0.000000    0.183000
     2  Na    c     2.253894    1.983426    0.270467    0.000000    1.000000
     3  O     c     2.253894   -2.312279    2.273850    0.000000    0.183000
     4  Na    c     4.440414    1.854266    2.341206    0.000000    1.000000
     5  Na    c     0.067374    1.854266    2.341206    0.000000    1.000000
     6  Cl    c     4.627019    0.015463   -0.072284    0.000000    1.485000
     7  Cl    c    -0.119231    0.015463   -0.072284    0.000000    1.485000
     8  Na    c     2.253894    1.732388    4.524647    0.000000    1.000000
     9  Na    c     2.253894   -1.797714    0.104445    0.000000    1.000000
    10  Cl    c     4.637090   -0.008444    4.656937    0.000000    1.485000
    11  Cl    c    -0.129303   -0.008444    4.656937    0.000000    1.485000
    12  Na    c     4.435356   -1.837998    2.284386    0.000000    1.000000
    13  Na    c     0.072431   -1.837998    2.284386    0.000000    1.000000
    14  Na    c     2.253894   -1.828429    4.446364    0.000000    1.000000
    15  Na    c     2.253894    0.006814   -2.485396    0.000000    1.000000
    16  Na    c     2.253894    4.541979    2.542858    0.000000    1.000000
    17  Na    c    -2.626746    0.002894    2.262560    0.000000    1.000000
    18  Na    c     7.134533    0.002894    2.262560    0.000000    1.000000
    19  O     c     2.253894    2.239361   -2.130403    0.000000    0.183000
    20  Na    c     2.253894    0.000862    7.187994    0.000000    1.000000
    21  Na    c     2.253894   -4.508267    2.243260    0.000000    1.000000
    22  O     c    -2.229166    2.233525    2.273133    0.000000    0.183000
    23  O     c     6.736953    2.233525    2.273133    0.000000    0.183000
    24  O     c     2.253894   -2.243538   -2.189973    0.000000    0.183000
    25  O     c     2.253894    2.247928    6.770954    0.000000    0.183000
    26  O     c    -2.225978   -2.226668    2.262546    0.000000    0.183000
    27  O     c     6.733766   -2.226668    2.262546    0.000000    0.183000
    28  Na    c     4.495561    2.231079   -2.057778    0.000000    1.000000
    29  Na    c     0.012227    2.231079   -2.057778    0.000000    1.000000
    30  Cl    c     4.576730    4.628883   -0.085588    0.000000    1.485000
    31  Cl    c    -0.068943    4.628883   -0.085588    0.000000    1.485000
    32  Na    c    -2.295427    2.137179    0.018397    0.000000    1.000000
    33  Na    c     6.803214    2.137179    0.018397    0.000000    1.000000
    34  O     c     2.253894   -2.236280    6.735807    0.000000    0.183000
    35  Cl    c     4.628449    4.603446    4.614344    0.000000    1.485000
    36  Cl    c    -0.120661    4.603446    4.614344    0.000000    1.485000
    37  Na    c     4.502887   -2.271644   -2.217973    0.000000    1.000000
    38  Na    c     0.004900   -2.271644   -2.217973    0.000000    1.000000
    39  Na    c    -2.192458    2.179931    4.524654    0.000000    1.000000
    40  Na    c     6.700245    2.179931    4.524654    0.000000    1.000000
    41  Na    c    -2.166967   -2.156862    0.010421    0.000000    1.000000
    42  Na    c     6.674754   -2.156862    0.010421    0.000000    1.000000
    43  Na    c     4.507662    2.289598    6.769443    0.000000    1.000000
    44  Na    c     0.000126    2.289598    6.769443    0.000000    1.000000
    45  Cl    c     4.615195   -4.609150   -0.086694    0.000000    1.485000
    46  Cl    c    -0.107407   -4.609150   -0.086694    0.000000    1.485000
    47  Na    c    -2.265217   -2.144308    4.513835    0.000000    1.000000
    48  Na    c     6.773005   -2.144308    4.513835    0.000000    1.000000
    49  Cl    c     4.596284   -4.620175    4.608988    0.000000    1.485000
    50  Cl    c    -0.088497   -4.620175    4.608988    0.000000    1.485000
    51  Na    c     4.503912   -2.255705    6.690007    0.000000    1.000000
    52  Na    c     0.003875   -2.255705    6.690007    0.000000    1.000000
    53  Na    c     2.253894    4.478719   -1.937619    0.000000    1.000000
    54  Na    c    -2.208069    0.002684   -2.377057    0.000000    1.000000
    55  Na    c     6.715856    0.002684   -2.377057    0.000000    1.000000
    56  Na    c    -1.857647    4.476257    2.229664    0.000000    1.000000
    57  Na    c     6.365434    4.476257    2.229664    0.000000    1.000000
    58  Na    c     2.253894    4.482635    6.286177    0.000000    1.000000
    59  Na    c     2.253894   -4.477572   -1.791754    0.000000    1.000000
    60  O     c     2.253894    6.818345    2.295665    0.000000    0.183000
    61  O     c     6.752202    2.260874   -2.245360    0.000000    0.183000
    62  O     c    -2.244415    2.260874   -2.245360    0.000000    0.183000
    63  Na    c    -2.183912   -0.000948    6.899736    0.000000    1.000000
    64  Na    c     6.691700   -0.000948    6.899736    0.000000    1.000000
    65  Na    c    -1.870624   -4.472624    2.276246    0.000000    1.000000
    66  Na    c     6.378411   -4.472624    2.276246    0.000000    1.000000
    67  O     c    -2.254895   -2.255484   -2.250464    0.000000    0.183000
    68  O     c     6.762682   -2.255484   -2.250464    0.000000    0.183000
    69  Na    c     2.253894   -4.476887    6.353550    0.000000    1.000000
    70  Na    c     2.253894    2.522072   -4.423374    0.000000    1.000000
    71  Na    c     2.253894    6.690117    0.041469    0.000000    1.000000
    72  O     c     6.770174    2.258596    6.779938    0.000000    0.183000
    73  O     c    -2.262386    2.258596    6.779938    0.000000    0.183000
    74  Cl    c     4.521434    0.010809   -4.506894    0.000000    1.485000
    75  Cl    c    -0.013647    0.010809   -4.506894    0.000000    1.485000
    76  Na    c     4.501553    6.920057    2.269076    0.000000    1.000000
    77  Na    c     0.006234    6.920057    2.269076    0.000000    1.000000
    78  Na    c     2.253894   -2.587194   -4.451047    0.000000    1.000000
    79  Na    c     2.253894    7.124615    4.531958    0.000000    1.000000
    80  O     c     2.253894   -6.801870    2.253041    0.000000    0.183000
    81  O     c    -2.255952   -2.261267    6.773150    0.000000    0.183000
    82  O     c     6.763739   -2.261267    6.773150    0.000000    0.183000
    83  Cl    c     9.024966   -0.003407   -0.020867    0.000000    1.485000
    84  Cl    c    -4.517179   -0.003407   -0.020867    0.000000    1.485000
    85  Na    c     8.980525    2.637880    2.320400    0.000000    1.000000
    86  Na    c    -4.472738    2.637880    2.320400    0.000000    1.000000
    87  Cl    c     9.033956    0.005721    4.541692    0.000000    1.485000
    88  Cl    c    -4.526169    0.005721    4.541692    0.000000    1.485000
    89  Na    c     8.977960   -2.626230    2.211825    0.000000    1.000000
    90  Na    c    -4.470173   -2.626230    2.211825    0.000000    1.000000
    91  Na    c     2.253894    2.664216    8.999536    0.000000    1.000000
    92  Na    c     2.253894   -6.960792    0.004230    0.000000    1.000000
    93  Cl    c     4.545570   -0.008084    9.055131    0.000000    1.485000
    94  Cl    c    -0.037783   -0.008084    9.055131    0.000000    1.485000
    95  Na    c     4.498454   -6.892814    2.258262    0.000000    1.000000
    96  Na    c     0.009333   -6.892814    2.258262    0.000000    1.000000
    97  Na    c     2.253894   -2.630777    8.982564    0.000000    1.000000
    98  Na    c     2.253894   -6.898718    4.504732    0.000000    1.000000
    99  Na    c     6.731492    4.509802   -2.129318    0.000000    1.000000
   100  Na    c    -2.223705    4.509802   -2.129318    0.000000    1.000000
   101  O     c     2.253894    6.734277   -2.224634    0.000000    0.183000
   102  Na    c     6.833703    4.507585    6.659177    0.000000    1.000000
   103  Na    c    -2.325916    4.507585    6.659177    0.000000    1.000000
   104  Na    c     6.804544   -4.505678   -2.126062    0.000000    1.000000
   105  Na    c    -2.296756   -4.505678   -2.126062    0.000000    1.000000
   106  O     c    -2.243351    6.737440    2.255224    0.000000    0.183000
   107  O     c     6.751138    6.737440    2.255224    0.000000    0.183000
   108  O     c     2.253894    6.730674    6.759100    0.000000    0.183000
   109  Cl    c     4.520189    4.528164   -4.551365    0.000000    1.485000
   110  Cl    c    -0.012402    4.528164   -4.551365    0.000000    1.485000
   111  Na    c     4.509253    6.731020   -2.230216    0.000000    1.000000
   112  Na    c    -0.001466    6.731020   -2.230216    0.000000    1.000000
   113  Na    c     6.782118   -4.508856    6.622270    0.000000    1.000000
   114  Na    c    -2.274331   -4.508856    6.622270    0.000000    1.000000
   115  Na    c    -2.121693    2.376433   -4.493711    0.000000    1.000000
   116  Na    c     6.629480    2.376433   -4.493711    0.000000    1.000000
   117  Na    c    -2.253906    6.768141    0.003939    0.000000    1.000000
   118  Na    c     6.761693    6.768141    0.003939    0.000000    1.000000
   119  O     c     2.253894   -6.724599   -2.242118    0.000000    0.183000
   120  Cl    c     9.064400    4.515809   -0.014436    0.000000    1.485000
   121  Cl    c    -4.556612    4.515809   -0.014436    0.000000    1.485000
   122  Na    c     9.001272    2.255743   -2.337655    0.000000    1.000000
   123  Na    c    -4.493485    2.255743   -2.337655    0.000000    1.000000
   124  Na    c    -2.273047   -2.383395   -4.498094    0.000000    1.000000
   125  Na    c     6.780834   -2.383395   -4.498094    0.000000    1.000000
   126  Na    c    -2.222214    6.734729    4.508296    0.000000    1.000000
   127  Na    c     6.730002    6.734729    4.508296    0.000000    1.000000
   128  O     c    -2.241280   -6.737615    2.255952    0.000000    0.183000
   129  O     c     6.749068   -6.737615    2.255952    0.000000    0.183000
   130  Cl    c     4.539779   -4.513159   -4.556477    0.000000    1.485000
   131  Cl    c    -0.031992   -4.513159   -4.556477    0.000000    1.485000
   132  Na    c     4.514378    6.650107    6.771354    0.000000    1.000000
   133  Na    c    -0.006591    6.650107    6.771354    0.000000    1.000000
   134  Cl    c     9.060448    4.525485    4.553076    0.000000    1.485000
   135  Cl    c    -4.552660    4.525485    4.553076    0.000000    1.485000
   136  Na    c     9.011601   -2.199163   -2.191010    0.000000    1.000000
   137  Na    c    -4.503813   -2.199163   -2.191010    0.000000    1.000000
   138  O     c     2.253894   -6.727095    6.755538    0.000000    0.183000
   139  Cl    c     4.544779    4.523013    9.072445    0.000000    1.485000
   140  Cl    c    -0.036991    4.523013    9.072445    0.000000    1.485000
   141  Cl    c     9.065618   -4.521167   -0.037313    0.000000    1.485000
   142  Cl    c    -4.557831   -4.521167   -0.037313    0.000000    1.485000
   143  Na    c     4.512141   -6.669190   -2.265604    0.000000    1.000000
   144  Na    c    -0.004354   -6.669190   -2.265604    0.000000    1.000000
   145  Na    c     9.017854    2.169531    6.717001    0.000000    1.000000
   146  Na    c    -4.510066    2.169531    6.717001    0.000000    1.000000
   147  Na    c     6.797742    2.382663    9.020430    0.000000    1.000000
   148  Na    c    -2.289955    2.382663    9.020430    0.000000    1.000000
   149  Na    c    -2.210133   -6.747951    0.003774    0.000000    1.000000
   150  Na    c     6.717921   -6.747951    0.003774    0.000000    1.000000
   151  Cl    c     9.065811   -4.515285    4.530158    0.000000    1.485000
   152  Cl    c    -4.558024   -4.515285    4.530158    0.000000    1.485000
   153  Na    c     9.010841   -2.208691    6.809202    0.000000    1.000000
   154  Na    c    -4.503054   -2.208691    6.809202    0.000000    1.000000
   155  Na    c     6.713564   -2.398453    9.016352    0.000000    1.000000
   156  Na    c    -2.205777   -2.398453    9.016352    0.000000    1.000000
   157  Na    c    -2.234640   -6.777237    4.506384    0.000000    1.000000
   158  Na    c     6.742427   -6.777237    4.506384    0.000000    1.000000
   159  Na    c     2.253894   -0.001257   -6.421840    0.000000    1.000000
   160  Na    c     2.253894    9.054014    2.053828    0.000000    1.000000
   161  Cl    c     4.536084   -4.526402    9.073628    0.000000    1.485000
   162  Cl    c    -0.028297   -4.526402    9.073628    0.000000    1.485000
   163  Na    c     4.512335   -6.689055    6.761151    0.000000    1.000000
   164  Na    c    -0.004547   -6.689055    6.761151    0.000000    1.000000
   165  O     c    -2.264068    6.765377   -2.256949    0.000000    0.183000
   166  O     c     6.771856    6.765377   -2.256949    0.000000    0.183000
   167  O     c     2.253894    2.246672   -6.707040    0.000000    0.183000
   168  Na    c    10.928282    0.000756    2.244378    0.000000    1.000000
   169  Na    c    -6.420494    0.000756    2.244378    0.000000    1.000000
   170  O     c     2.253894   -2.248189   -6.714853    0.000000    0.183000
   171  Na    c     2.253894    6.619999   -4.485365    0.000000    1.000000
   172  O     c    -2.267969    6.763162    6.769275    0.000000    0.183000
   173  O     c     6.775757    6.763162    6.769275    0.000000    0.183000
   174  O     c    11.230517    2.253676    2.251091    0.000000    0.183000
   175  O     c    -6.722730    2.253676    2.251091    0.000000    0.183000
   176  Cl    c     4.478002    9.035115    0.026721    0.000000    1.485000
   177  Cl    c     0.029786    9.035115    0.026721    0.000000    1.485000
   178  Na    c     4.497414    2.202028   -6.760213    0.000000    1.000000
   179  Na    c     0.010373    2.202028   -6.760213    0.000000    1.000000
   180  Na    c     2.253894    0.000832   10.935024    0.000000    1.000000
   181  Na    c     2.253894   -9.051383    2.286846    0.000000    1.000000
   182  O     c    -2.265590   -6.762147   -2.257183    0.000000    0.183000
   183  O     c     6.773377   -6.762147   -2.257183    0.000000    0.183000
   184  O     c    11.231471   -2.252076    2.258746    0.000000    0.183000
   185  O     c    -6.723684   -2.252076    2.258746    0.000000    0.183000
   186  Cl    c     9.043360   -0.003643   -4.506063    0.000000    1.485000
   187  Cl    c    -4.535573   -0.003643   -4.506063    0.000000    1.485000
   188  Na    c     9.006417    6.534182    2.271647    0.000000    1.000000
   189  Na    c    -4.498629    6.534182    2.271647    0.000000    1.000000
   190  Cl    c     4.528789    9.042622    4.488043    0.000000    1.485000
   191  Cl    c    -0.021002    9.042622    4.488043    0.000000    1.485000
   192  Na    c     4.506671   -2.196150   -6.712034    0.000000    1.000000
   193  Na    c     0.001117   -2.196150   -6.712034    0.000000    1.000000
   194  Na    c    11.164913    2.211333   -0.004520    0.000000    1.000000
   195  Na    c    -6.657125    2.211333   -0.004520    0.000000    1.000000
   196  O     c     2.253894    2.251038   11.239400    0.000000    0.183000
   197  Na    c     2.253894    6.479398    9.011438    0.000000    1.000000
   198  Na    c     2.253894   -6.509986   -4.495185    0.000000    1.000000
   199  Na    c    11.281843   -2.243246    0.007423    0.000000    1.000000
   200  Na    c    -6.774056   -2.243246    0.007423    0.000000    1.000000
   201  Na    c    11.288166    2.219385    4.503222    0.000000    1.000000
   202  Na    c    -6.780379    2.219385    4.503222    0.000000    1.000000
   203  O     c     2.253894   -2.249882   11.234474    0.000000    0.183000
   204  O     c    -2.267305   -6.764143    6.767012    0.000000    0.183000
   205  O     c     6.775093   -6.764143    6.767012    0.000000    0.183000
   206  Na    c    11.192453   -2.189728    4.512239    0.000000    1.000000
   207  Na    c    -6.684666   -2.189728    4.512239    0.000000    1.000000
   208  Na    c     2.253894    4.496436   -6.878644    0.000000    1.000000
   209  Na    c     2.253894    8.997785   -2.240959    0.000000    1.000000
   210  Cl    c     4.496512   -9.025356    0.033793    0.000000    1.485000
   211  Cl    c     0.011275   -9.025356    0.033793    0.000000    1.485000
   212  Na    c     4.508674    2.187315   11.229424    0.000000    1.000000
   213  Na    c    -0.000887    2.187315   11.229424    0.000000    1.000000
   214  Cl    c     9.043385    0.002944    9.016709    0.000000    1.485000
   215  Cl    c    -4.535597    0.002944    9.016709    0.000000    1.485000
   216  Na    c     9.003936   -6.548018    2.240508    0.000000    1.000000
   217  Na    c    -4.496149   -6.548018    2.240508    0.000000    1.000000
   218  Na    c     6.826282    0.001688   -6.671901    0.000000    1.000000
   219  Na    c    -2.318495    0.001688   -6.671901    0.000000    1.000000
   220  Na    c    -2.384106    8.998649    2.270240    0.000000    1.000000
   221  Na    c     6.891893    8.998649    2.270240    0.000000    1.000000
   222  Cl    c     4.485606   -9.021767    4.481910    0.000000    1.485000
   223  Cl    c     0.022181   -9.021767    4.481910    0.000000    1.485000
   224  Na    c     4.503534   -2.188992   11.249916    0.000000    1.000000
   225  Na    c     0.004253   -2.188992   11.249916    0.000000    1.000000
   226  Na    c     2.253894   -6.541729    9.007085    0.000000    1.000000
   227  Na    c    11.268359    0.003620   -2.312289    0.000000    1.000000
   228  Na    c    -6.760572    0.003620   -2.312289    0.000000    1.000000
   229  Na    c    11.487495    4.493191    2.215636    0.000000    1.000000
   230  Na    c    -6.979708    4.493191    2.215636    0.000000    1.000000
   231  Na    c     2.253894    8.985856    7.011955    0.000000    1.000000
   232  Na    c     2.253894   -4.488283   -6.964909    0.000000    1.000000
   233  O     c    -2.243477    2.257281   -6.753464    0.000000    0.183000
   234  O     c     6.751264    2.257281   -6.753464    0.000000    0.183000
   235  O     c    11.265740    2.251773   -2.260013    0.000000    0.183000
   236  O     c    -6.757952    2.251773   -2.260013    0.000000    0.183000
   237  O     c    -2.254888   -2.254878   -6.757346    0.000000    0.183000
   238  O     c     6.762675   -2.254878   -6.757346    0.000000    0.183000
   239  Na    c     2.253894    4.488116   11.524194    0.000000    1.000000
   240  Na    c     2.253894   -8.990500   -2.403361    0.000000    1.000000
   241  Na    c    11.296312   -0.001083    6.844387    0.000000    1.000000
   242  Na    c    -6.788525   -0.001083    6.844387    0.000000    1.000000
   243  Na    c    11.476081   -4.492933    2.302073    0.000000    1.000000
   244  Na    c    -6.968294   -4.492933    2.302073    0.000000    1.000000
   245  Na    c    -2.246685    6.710213   -4.508659    0.000000    1.000000
   246  Na    c     6.754472    6.710213   -4.508659    0.000000    1.000000
   247  O     c    11.270169   -2.244664   -2.248584    0.000000    0.183000
   248  O     c    -6.762382   -2.244664   -2.248584    0.000000    0.183000
   249  Cl    c     9.040661    4.511050   -4.528187    0.000000    1.485000
   250  Cl    c    -4.532874    4.511050   -4.528187    0.000000    1.485000
   251  Na    c     9.016492    6.748776   -2.292399    0.000000    1.000000
   252  Na    c    -4.508705    6.748776   -2.292399    0.000000    1.000000
   253  Na    c     6.830048   -0.002269   11.174861    0.000000    1.000000
   254  Na    c    -2.322261   -0.002269   11.174861    0.000000    1.000000
   255  Na    c    -2.356593   -9.001178    2.238867    0.000000    1.000000
   256  Na    c     6.864380   -9.001178    2.238867    0.000000    1.000000
   257  O     c    11.273418    2.243774    6.760418    0.000000    0.183000
   258  O     c    -6.765631    2.243774    6.760418    0.000000    0.183000
   259  Na    c     2.253894   -4.492589   11.480310    0.000000    1.000000
   260  Na    c     2.253894   -8.992811    6.873987    0.000000    1.000000
   261  O     c     6.765175    2.255045   11.272378    0.000000    0.183000
   262  O     c    -2.257388    2.255045   11.272378    0.000000    0.183000
[...]
    244 y         -2.253894     -2.236308     0.017586    Cartesian   -0.78
    244 z          6.761681      6.735847    -0.025833    Cartesian   -0.38
    245 x          4.507787      4.637553     0.129766    Cartesian    2.88
    245 y          4.507787      4.614620     0.106833    Cartesian    2.37
    245 z          4.507787      4.627413     0.119625    Cartesian    2.65
    246 x          4.507787      4.626918     0.119131    Cartesian    2.64
    246 y         -4.507787     -4.620794    -0.113007    Cartesian    2.51
    246 z          0.000000     -0.101302    -0.101302    Cartesian    0.00
    247 x          4.507787      4.606852     0.099065    Cartesian    2.20
    247 y         -4.507787     -4.632474    -0.124687    Cartesian    2.77
    247 z          4.507787      4.624298     0.116511    Cartesian    2.58
    248 x          2.253894      2.253894     0.000000    Cartesian    0.00
    248 y          6.761681      6.818463     0.056782    Cartesian    0.84
    248 z          2.253894      2.295648     0.041755    Cartesian    1.85
    249 x          6.761681      6.752197    -0.009484    Cartesian   -0.14
    249 y          2.253894      2.260881     0.006988    Cartesian    0.31
    249 z         -2.253894     -2.245363     0.008530    Cartesian   -0.38
    250 x         -2.253894     -2.254895    -0.001001    Cartesian    0.04
    250 y         -2.253894     -2.255494    -0.001600    Cartesian    0.07
    250 z         -2.253894     -2.250465     0.003429    Cartesian   -0.15
    251 x          6.761681      6.770180     0.008499    Cartesian    0.13
    251 y          2.253894      2.258608     0.004714    Cartesian    0.21
    251 z          6.761681      6.779942     0.018261    Cartesian    0.27
    252 x          4.507787      4.518372     0.010584    Cartesian    0.23
    252 y          0.000000      0.011598     0.011598    Cartesian    0.00
    252 z         -4.507787     -4.510713    -0.002926    Cartesian    0.06
    253 x          2.253894      2.253894     0.000000    Cartesian    0.00
    253 y         -6.761681     -6.802002    -0.040321    Cartesian    0.60
    253 z          2.253894      2.253049    -0.000845    Cartesian   -0.04
    254 x         -2.253894     -2.255953    -0.002060    Cartesian    0.09
    254 y         -2.253894     -2.261277    -0.007383    Cartesian    0.33
    254 z          6.761681      6.773155     0.011474    Cartesian    0.17
    255 x          9.015574      9.026236     0.010661    Cartesian    0.12
    255 y          0.000000     -0.002309    -0.002309    Cartesian    0.00
    255 z          0.000000     -0.012610    -0.012610    Cartesian    0.00
    256 x          9.015574      9.035785     0.020210    Cartesian    0.22
    256 y          0.000000      0.005167     0.005167    Cartesian    0.00
    256 z          4.507787      4.535264     0.027477    Cartesian    0.61
    257 x          4.507787      4.540287     0.032500    Cartesian    0.72
    257 y          0.000000     -0.008515    -0.008515    Cartesian    0.00
    257 z          9.015574      9.058419     0.042845    Cartesian    0.48
    258 x          2.253894      2.253894     0.000000    Cartesian    0.00
    258 y          6.761681      6.734264    -0.027416    Cartesian   -0.41
    258 z         -2.253894     -2.224595     0.029299    Cartesian   -1.30
    259 x         -2.253894     -2.243304     0.010589    Cartesian   -0.47
    259 y          6.761681      6.737480    -0.024201    Cartesian   -0.36
    259 z          2.253894      2.255226     0.001332    Cartesian    0.06
    260 x          2.253894      2.253894     0.000000    Cartesian    0.00
    260 y          6.761681      6.730710    -0.030971    Cartesian   -0.46
    260 z          6.761681      6.759073    -0.002608    Cartesian   -0.04
    261 x          4.507787      4.522124     0.014337    Cartesian    0.32
    261 y          4.507787      4.527538     0.019751    Cartesian    0.44
    261 z         -4.507787     -4.557722    -0.049935    Cartesian    1.11
    262 x          2.253894      2.253894     0.000000    Cartesian    0.00
    262 y         -6.761681     -6.724614     0.037067    Cartesian   -0.55
    262 z         -2.253894     -2.242078     0.011815    Cartesian   -0.52
    263 x          9.015574      9.070497     0.054923    Cartesian    0.61
    263 y          4.507787      4.515971     0.008184    Cartesian    0.18
    263 z          0.000000     -0.011562    -0.011562    Cartesian    0.00
    264 x         -2.253894     -2.241228     0.012666    Cartesian   -0.56
    264 y         -6.761681     -6.737656     0.024025    Cartesian   -0.36
    264 z          2.253894      2.255952     0.002058    Cartesian    0.09
    265 x          4.507787      4.537730     0.029942    Cartesian    0.66
    265 y         -4.507787     -4.513158    -0.005370    Cartesian    0.12
    265 z         -4.507787     -4.561900    -0.054113    Cartesian    1.20
    266 x          9.015574      9.063683     0.048108    Cartesian    0.53
    266 y          4.507787      4.525162     0.017374    Cartesian    0.39
    266 z          4.507787      4.551113     0.043326    Cartesian    0.96
    267 x          2.253894      2.253894     0.000000    Cartesian    0.00
    267 y         -6.761681     -6.727105     0.034576    Cartesian   -0.51
    267 z          6.761681      6.755495    -0.006186    Cartesian   -0.09
    268 x          4.507787      4.540295     0.032508    Cartesian    0.72
    268 y          4.507787      4.523122     0.015334    Cartesian    0.34
    268 z          9.015574      9.077218     0.061644    Cartesian    0.68
    269 x          9.015574      9.070025     0.054450    Cartesian    0.60
    269 y         -4.507787     -4.520586    -0.012798    Cartesian    0.28
    269 z          0.000000     -0.036188    -0.036188    Cartesian    0.00
    270 x          9.015574      9.071138     0.055564    Cartesian    0.62
    270 y         -4.507787     -4.515507    -0.007720    Cartesian    0.17
    270 z          4.507787      4.528871     0.021083    Cartesian    0.47
    271 x          4.507787      4.534776     0.026989    Cartesian    0.60
    271 y         -4.507787     -4.525850    -0.018062    Cartesian    0.40
    271 z          9.015574      9.079685     0.064111    Cartesian    0.71
    272 x         -2.253894     -2.264079    -0.010185    Cartesian    0.45
    272 y          6.761681      6.765375     0.003694    Cartesian    0.05
    272 z         -2.253894     -2.256946    -0.003052    Cartesian    0.14
    273 x          2.253894      2.253894     0.000000    Cartesian    0.00
    273 y          2.253894      2.246689    -0.007204    Cartesian   -0.32
    273 z         -6.761681     -6.707060     0.054621    Cartesian   -0.81
    274 x          2.253894      2.253894     0.000000    Cartesian    0.00
    274 y         -2.253894     -2.248213     0.005681    Cartesian   -0.25
    274 z         -6.761681     -6.714859     0.046822    Cartesian   -0.69
    275 x         -2.253894     -2.267993    -0.014099    Cartesian    0.63
    275 y          6.761681      6.763151     0.001471    Cartesian    0.02
    275 z          6.761681      6.769273     0.007592    Cartesian    0.11
    276 x         11.269468     11.230524    -0.038944    Cartesian   -0.35
    276 y          2.253894      2.253721    -0.000173    Cartesian   -0.01
    276 z          2.253894      2.251094    -0.002799    Cartesian   -0.12
    277 x          4.507787      4.471169    -0.036618    Cartesian   -0.81
    277 y          9.015574      9.035094     0.019519    Cartesian    0.22
    277 z          0.000000      0.033726     0.033726    Cartesian    0.00
    278 x         -2.253894     -2.265608    -0.011714    Cartesian    0.52
    278 y         -6.761681     -6.762139    -0.000458    Cartesian    0.01
    278 z         -2.253894     -2.257179    -0.003286    Cartesian    0.15
    279 x         11.269468     11.231481    -0.037987    Cartesian   -0.34
    279 y         -2.253894     -2.252120     0.001774    Cartesian   -0.08
    279 z          2.253894      2.258743     0.004850    Cartesian    0.22
    280 x          9.015574      9.046206     0.030631    Cartesian    0.34
    280 y          0.000000     -0.003712    -0.003712    Cartesian    0.00
    280 z         -4.507787     -4.505541     0.002246    Cartesian   -0.05
    281 x          4.507787      4.525633     0.017846    Cartesian    0.40
    281 y          9.015574      9.040364     0.024790    Cartesian    0.27
    281 z          4.507787      4.483299    -0.024488    Cartesian   -0.54
    282 x          2.253894      2.253894     0.000000    Cartesian    0.00
    282 y          2.253894      2.251072    -0.002821    Cartesian   -0.13
    282 z         11.269468     11.239406    -0.030062    Cartesian   -0.27
    283 x          2.253894      2.253894     0.000000    Cartesian    0.00
    283 y         -2.253894     -2.249912     0.003981    Cartesian   -0.18
    283 z         11.269468     11.234486    -0.034982    Cartesian   -0.31
    284 x         -2.253894     -2.267325    -0.013431    Cartesian    0.60
    284 y         -6.761681     -6.764137    -0.002457    Cartesian    0.04
    284 z          6.761681      6.767010     0.005329    Cartesian    0.08
    285 x          4.507787      4.492966    -0.014821    Cartesian   -0.33
    285 y         -9.015574     -9.022992    -0.007417    Cartesian    0.08
    285 z          0.000000      0.040059     0.040059    Cartesian    0.00
    286 x          9.015574      9.045429     0.029854    Cartesian    0.33
    286 y          0.000000      0.003171     0.003171    Cartesian    0.00
    286 z          9.015574      9.015526    -0.000048    Cartesian   -0.00
    287 x          4.507787      4.480913    -0.026874    Cartesian   -0.60
    287 y         -9.015574     -9.019193    -0.003619    Cartesian    0.04
    287 z          4.507787      4.475886    -0.031901    Cartesian   -0.71
    288 x         -2.253894     -2.243464     0.010429    Cartesian   -0.46
    288 y          2.253894      2.257301     0.003408    Cartesian    0.15
    288 z         -6.761681     -6.753459     0.008222    Cartesian   -0.12
    289 x         11.269468     11.265736    -0.003732    Cartesian   -0.03
    289 y          2.253894      2.251763    -0.002131    Cartesian   -0.09
    289 z         -2.253894     -2.260034    -0.006141    Cartesian    0.27
    290 x         -2.253894     -2.254899    -0.001005    Cartesian    0.04
    290 y         -2.253894     -2.254899    -0.001005    Cartesian    0.04
    290 z         -6.761681     -6.757338     0.004343    Cartesian   -0.06
    291 x         11.269468     11.270167     0.000699    Cartesian    0.01
    291 y         -2.253894     -2.244650     0.009243    Cartesian   -0.41
    291 z         -2.253894     -2.248584     0.005309    Cartesian   -0.24
    292 x          9.015574      9.044076     0.028502    Cartesian    0.32
    292 y          4.507787      4.510409     0.002621    Cartesian    0.06
    292 z         -4.507787     -4.530324    -0.022537    Cartesian    0.50
    293 x         11.269468     11.273420     0.003952    Cartesian    0.04
    293 y          2.253894      2.243750    -0.010144    Cartesian   -0.45
    293 z          6.761681      6.760424    -0.001257    Cartesian   -0.02
    294 x          6.761681      6.765189     0.003508    Cartesian    0.05
    294 y          2.253894      2.255066     0.001173    Cartesian    0.05
    294 z         11.269468     11.272369     0.002901    Cartesian    0.03
    295 x         11.269468     11.269975     0.000507    Cartesian    0.00
    295 y         -2.253894     -2.245881     0.008013    Cartesian   -0.36
    295 z          6.761681      6.768251     0.006570    Cartesian    0.10
    296 x          9.015574      9.031761     0.016186    Cartesian    0.18
    296 y         -4.507787     -4.509487    -0.001700    Cartesian    0.04
    296 z         -4.507787     -4.545315    -0.037527    Cartesian    0.83
    297 x         -2.253894     -2.251263     0.002631    Cartesian   -0.12
    297 y         -2.253894     -2.258278    -0.004385    Cartesian    0.19
    297 z         11.269468     11.270433     0.000965    Cartesian    0.01
    298 x          9.015574      9.031657     0.016083    Cartesian    0.18
    298 y          4.507787      4.507676    -0.000111    Cartesian   -0.00
    298 z          9.015574      9.061277     0.045703    Cartesian    0.51
    299 x          9.015574      9.035487     0.019913    Cartesian    0.22
    299 y         -4.507787     -4.505568     0.002219    Cartesian   -0.05
    299 z          9.015574      9.053495     0.037921    Cartesian    0.42
    300 x          2.253894      2.253894     0.000000    Cartesian    0.00
    300 y          6.761681      6.755439    -0.006242    Cartesian   -0.09
    300 z         -6.761681     -6.759401     0.002280    Cartesian   -0.03
    301 x          2.253894      2.253894     0.000000    Cartesian    0.00
    301 y         11.269468     11.277489     0.008021    Cartesian    0.07
    301 z          2.253894      2.246115    -0.007778    Cartesian   -0.35
    302 x         11.269468     11.274913     0.005445    Cartesian    0.05
    302 y          6.761681      6.742734    -0.018947    Cartesian   -0.28
    302 z          2.253894      2.251975    -0.001918    Cartesian   -0.09
    303 x          4.507787      4.538135     0.030347    Cartesian    0.67
    303 y          9.015574      9.049432     0.033858    Cartesian    0.38
    303 z         -4.507787     -4.520121    -0.012333    Cartesian    0.27
    304 x          2.253894      2.253894     0.000000    Cartesian    0.00
    304 y         -6.761681     -6.743767     0.017914    Cartesian   -0.26
    304 z         -6.761681     -6.761197     0.000484    Cartesian   -0.01
    305 x          4.507787      4.479134    -0.028653    Cartesian   -0.64
    305 y          0.000000      0.009023     0.009023    Cartesian    0.00
    305 z         -9.015574     -9.080269    -0.064694    Cartesian    0.72
    306 x          9.015574      9.035185     0.019611    Cartesian    0.22
    306 y          9.015574      9.052364     0.036789    Cartesian    0.41
    306 z          0.000000     -0.011324    -0.011324    Cartesian    0.00
    307 x          2.253894      2.253894     0.000000    Cartesian    0.00
    307 y          6.761681      6.738985    -0.022696    Cartesian   -0.34
    307 z         11.269468     11.273459     0.003991    Cartesian    0.04
    308 x          9.015574      9.035400     0.019825    Cartesian    0.22
    308 y          9.015574      9.046534     0.030959    Cartesian    0.34
    308 z          4.507787      4.526745     0.018958    Cartesian    0.42
    309 x         11.269468     11.274624     0.005156    Cartesian    0.05
    309 y         -6.761681     -6.743210     0.018471    Cartesian   -0.27
    309 z          2.253894      2.256912     0.003018    Cartesian    0.13
    310 x         13.523362     13.596959     0.073597    Cartesian    0.54
    310 y          0.000000     -0.007527    -0.007527    Cartesian    0.00
    310 z          0.000000      0.016631     0.016631    Cartesian    0.00
    311 x          4.507787      4.505524    -0.002264    Cartesian   -0.05
    311 y          9.015574      9.071078     0.055503    Cartesian    0.62
    311 z          9.015574      9.035264     0.019690    Cartesian    0.22
    312 x          2.253894      2.253894     0.000000    Cartesian    0.00
    312 y        -11.269468    -11.279746    -0.010278    Cartesian    0.09
    312 z          2.253894      2.256074     0.002180    Cartesian    0.10
    313 x          4.507787      4.513483     0.005696    Cartesian    0.13
    313 y         -9.015574     -9.070914    -0.055340    Cartesian    0.61
    313 z         -4.507787     -4.515280    -0.007493    Cartesian    0.17
    314 x         13.523362     13.590367     0.067006    Cartesian    0.50
    314 y          0.000000      0.005188     0.005188    Cartesian    0.00
    314 z          4.507787      4.500908    -0.006880    Cartesian   -0.15
    315 x          2.253894      2.253894     0.000000    Cartesian    0.00
    315 y         -6.761681     -6.746795     0.014886    Cartesian   -0.22
    315 z         11.269468     11.273080     0.003612    Cartesian    0.03
    316 x          9.015574      9.025947     0.010373    Cartesian    0.12
    316 y         -9.015574     -9.054867    -0.039292    Cartesian    0.44
    316 z          0.000000     -0.013533    -0.013533    Cartesian    0.00
    317 x          4.507787      4.471959    -0.035828    Cartesian   -0.79
    317 y          0.000000     -0.004232    -0.004232    Cartesian    0.00
    317 z         13.523362     13.596618     0.073256    Cartesian    0.54
    318 x          9.015574      9.040130     0.024556    Cartesian    0.27
    318 y         -9.015574     -9.051266    -0.035691    Cartesian    0.40
    318 z          4.507787      4.524579     0.016791    Cartesian    0.37
    319 x          2.253894      2.253894     0.000000    Cartesian    0.00
    319 y         11.269468     11.274499     0.005031    Cartesian    0.04
    319 z         -2.253894     -2.256075    -0.002181    Cartesian    0.10
    320 x         -2.253894     -2.255441    -0.001547    Cartesian    0.07
    320 y          6.761681      6.762600     0.000919    Cartesian    0.01
    320 z         -6.761681     -6.768686    -0.007005    Cartesian    0.10
    321 x          4.507787      4.519844     0.012056    Cartesian    0.27
    321 y         -9.015574     -9.067595    -0.052021    Cartesian    0.58
    321 z          9.015574      9.025863     0.010289    Cartesian    0.11
    322 x          6.761681      6.775477     0.013796    Cartesian    0.20
    322 y         11.269468     11.265761    -0.003707    Cartesian   -0.03
    322 z          2.253894      2.254901     0.001007    Cartesian    0.04
    323 x         11.269468     11.271709     0.002241    Cartesian    0.02
    323 y          6.761681      6.767726     0.006045    Cartesian    0.09
    323 z         -2.253894     -2.255924    -0.002031    Cartesian    0.09
    324 x          2.253894      2.253894     0.000000    Cartesian    0.00
    324 y         11.269468     11.252360    -0.017108    Cartesian   -0.15
    324 z          6.761681      6.776759     0.015078    Cartesian    0.22
--------------------------------------------------------------------------------


  Time to end of optimisation  =       51.3765 seconds


  Peak dynamic memory used =      95.45 MB 


  Timing analysis for GULP :

--------------------------------------------------------------------------------
  Task / Subroutine                                          Time (Seconds)
--------------------------------------------------------------------------------
  Calculation of reciprocal space energy and derivatives          0.0006
  Calculation of reciprocal space energy using symmetry           0.0008
  Calculation of real space energy and derivatives                0.0032
  Calculation of real space energy using symmetry                 0.0076
  Calculation for region 1 energy and derivatives (2-b)          28.2850
  Calculation for region 2a energy                               20.3360
  Calculation for region 2b energy                                0.0076
  Calculation and manipulation of Hessian matrix                  0.1167
  Calculation of matrix inversion                                 2.3865
  Symmetry generation of equivalent positions                     0.0039
--------------------------------------------------------------------------------
  Total CPU time                                                 51.3765
--------------------------------------------------------------------------------


  Dump file written as Na3OCl.grs


  Job Finished at 10:50.03  4th December   2020                               

