********************************************************************************
*                       GENERAL UTILITY LATTICE PROGRAM                        *
*                                 Julian Gale                                  *
*                       Curtin Institute for Computation                       *
*                    School of Molecular and Life Sciences                     *
*                    Curtin University, Western Australia                      *
********************************************************************************
* Version = 5.2.0 * Last modified =  10th September 2020                       *
********************************************************************************
*  optimise     - perform optimisation run                                     *
*  conp         - constant pressure calculation                                *
*  property     - calculate properties for final geometry                      *
*  defect       - perform defect calculation after bulk run                    *
*  compare      - compare initial and final structures                         *
********************************************************************************

  Job Started  at 10:49.35  4th December   2020                               

  Number of CPUs =     1


  Total number of configurations input =      1

********************************************************************************
*  Input for Configuration =   1                                               *
********************************************************************************

  Formula = ClONa3                                                      

  Number of irreducible atoms/shells =       5


  Total number atoms/shells =       7

  Dimensionality = 3               :  Bulk   


  Symmetry :

  Crystal family                   :  Cubic       
  Crystal class  (Groth - 1921)    :  Cubic Hexakisoctahedral              

  Space group (centrosymmetric)    :  P M 3 M         

  Patterson group                  :  P m -3 m 

  Cartesian lattice vectors (Angstroms) :

        4.504000    0.000000    0.000000
        0.000000    4.504000    0.000000
        0.000000    0.000000    4.504000

  Cell parameters (Angstroms/Degrees):

  a =       4.5040    alpha =  90.0000
  b =       4.5040    beta  =  90.0000
  c =       4.5040    gamma =  90.0000

  Initial cell volume =          91.368216 Angs**3

  Temperature of configuration =   0.00     K 

  Pressure of configuration =         0.000 GPa 

  Fractional coordinates of asymmetric unit :

--------------------------------------------------------------------------------
   No.  Atomic       x           y          z         Charge      Occupancy
        Label      (Frac)      (Frac)     (Frac)        (e)         (Frac)  
--------------------------------------------------------------------------------
      1 Cl    c    0.000000    0.000000    0.000000     1.48500    1.000000    
      2 O     c    0.500000    0.500000    0.500000     0.18300    1.000000    
      3 Na    c    0.500000    0.500000    0.000000     1.00000    1.000000    
      4 Cl    s    0.000000    0.000000    0.000000    -2.48500    1.000000    
      5 O     s    0.500000    0.500000    0.500000    -2.18300    1.000000    
--------------------------------------------------------------------------------


  Constraints : 

--------------------------------------------------------------------------------
  Constraint no.      Unconstrained     Constrained    Coefficient    Offset
                         Variable         Variable
--------------------------------------------------------------------------------
           1              Strain 1        Strain 2       1.00000      0.0000
           2              Strain 1        Strain 3       1.00000      0.0000
--------------------------------------------------------------------------------


********************************************************************************
*  General input information                                                   *
********************************************************************************

  Species output for all configurations : 

--------------------------------------------------------------------------------
  Species    Type    Atomic    Atomic    Charge       Radii (Angs)     Library
                     Number     Mass       (e)     Cova   Ionic  VDW   Symbol
--------------------------------------------------------------------------------
    Na       Core       11      22.99   1.000000   0.970  0.000  2.300          
    O        Core        8      16.00   0.183000   0.730  0.000  1.360          
    O        Shell       8       0.00  -2.183000   0.730  0.000  1.360          
    Cl       Core       17      35.45   1.485000   0.990  0.000  1.650          
    Cl       Shell      17       0.00  -2.485000   0.990  0.000  1.650          
    Mg       Core       12      24.31   0.415000   1.100  0.000  0.000          
    Mg       Shell      12       0.00   1.585000   1.100  0.000  0.000          
    Ca       Core       20      40.08  -1.135000   0.990  0.000  0.000          
    Ca       Shell      20       0.00   3.135000   0.990  0.000  0.000          
    Sr       Core       38      87.62  -1.251000   1.120  0.000  0.000          
    Sr       Shell      38       0.00   3.251000   1.120  0.000  0.000          
    Ba       Core       56     137.33  -7.203000   1.340  0.000  0.000          
    Ba       Shell      56       0.00   9.203000   1.340  0.000  0.000          
--------------------------------------------------------------------------------


  Lattice summation method               =    Ewald          (3-D)
                                         =    Parry          (2-D)
                                         =    Saunders et al (1-D)
  Accuracy factor for lattice sums       =   12.000


  Analytic derivatives to be used

  Time limit = Infinity

  Maximum range for interatomic potentials =    100000.000000 Angstroms

  General interatomic potentials :

--------------------------------------------------------------------------------
Atom  Types   Potential      Parameter       Value         Units   Cutoffs(Ang)
  1     2                                                            Min /  Max 
--------------------------------------------------------------------------------
O    c O    s Spring (c-s)  Spring k 2       593.71600    eV*Ang^-2 0.000  0.800
                            Spring k 4       0.0000000    eV*Ang^-4 
--------------------------------------------------------------------------------
Cl   c Cl   s Spring (c-s)  Spring k 2       29.380000    eV*Ang^-2 0.000  0.800
                            Spring k 4       0.0000000    eV*Ang^-4 
--------------------------------------------------------------------------------
Mg   c Mg   s Spring (c-s)  Spring k 2       361.60000    eV*Ang^-2 0.000  0.800
                            Spring k 4       0.0000000    eV*Ang^-4 
--------------------------------------------------------------------------------
Ca   c Ca   s Spring (c-s)  Spring k 2       110.20000    eV*Ang^-2 0.000  0.800
                            Spring k 4       0.0000000    eV*Ang^-4 
--------------------------------------------------------------------------------
Sr   c Sr   s Spring (c-s)  Spring k 2       71.700000    eV*Ang^-2 0.000  0.800
                            Spring k 4       0.0000000    eV*Ang^-4 
--------------------------------------------------------------------------------
Ba   c Ba   s Spring (c-s)  Spring k 2       495.20000    eV*Ang^-2 0.000  0.800
                            Spring k 4       0.0000000    eV*Ang^-4 
--------------------------------------------------------------------------------
Na   c Na   c Buckingham    Buckingham A     1788.1900    eV        0.000 12.000
                            Buckingham rho  0.15900000    Ang       
                            Buckingham C     0.0000000    eV*Ang^6  
--------------------------------------------------------------------------------
Na   c O    s Buckingham    Buckingham A     1226.8400    eV        0.000 12.000
                            Buckingham rho  0.30700000    Ang       
                            Buckingham C     0.0000000    eV*Ang^6  
--------------------------------------------------------------------------------
Na   c Cl   s Buckingham    Buckingham A     2314.7000    eV        0.000 12.000
                            Buckingham rho  0.29000000    Ang       
                            Buckingham C     0.0000000    eV*Ang^6  
--------------------------------------------------------------------------------
O    s O    s Buckingham    Buckingham A     22764.300    eV        0.000 12.000
                            Buckingham rho  0.14900000    Ang       
                            Buckingham C     13.190000    eV*Ang^6  
--------------------------------------------------------------------------------
O    s Cl   s Buckingham    Buckingham A     8286.9100    eV        0.000 12.000
                            Buckingham rho  0.25900000    Ang       
                            Buckingham C     62.200000    eV*Ang^6  
--------------------------------------------------------------------------------
Cl   s Cl   s Buckingham    Buckingham A     1227.2000    eV        0.000 12.000
                            Buckingham rho  0.32100000    Ang       
                            Buckingham C     14.530000    eV*Ang^6  
--------------------------------------------------------------------------------
O    s Mg   s Buckingham    Buckingham A     1428.5000    eV        0.000 12.000
                            Buckingham rho  0.29450000    Ang       
                            Buckingham C     0.0000000    eV*Ang^6  
--------------------------------------------------------------------------------
Mg   s Cl   s Buckingham    Buckingham A     4914.5400    eV        0.000 12.000
                            Buckingham rho  0.25700000    Ang       
                            Buckingham C     0.0000000    eV*Ang^6  
--------------------------------------------------------------------------------
O    s Ca   s Buckingham    Buckingham A     1090.4000    eV        0.000 12.000
                            Buckingham rho  0.34370000    Ang       
                            Buckingham C     0.0000000    eV*Ang^6  
--------------------------------------------------------------------------------
Cl   s Ca   s Buckingham    Buckingham A     2302.0000    eV        0.000 12.000
                            Buckingham rho  0.34020000    Ang       
                            Buckingham C     0.0000000    eV*Ang^6  
--------------------------------------------------------------------------------
O    s Sr   s Buckingham    Buckingham A     959.10000    eV        0.000 12.000
                            Buckingham rho  0.37210000    Ang       
                            Buckingham C     0.0000000    eV*Ang^6  
--------------------------------------------------------------------------------
Cl   s Sr   s Buckingham    Buckingham A     2191.0900    eV        0.000 12.000
                            Buckingham rho  0.34570000    Ang       
                            Buckingham C     0.0000000    eV*Ang^6  
--------------------------------------------------------------------------------
O    s Ba   s Buckingham    Buckingham A     905.70000    eV        0.000 12.000
                            Buckingham rho  0.39760000    Ang       
                            Buckingham C     0.0000000    eV*Ang^6  
--------------------------------------------------------------------------------
Cl   s Ba   s Buckingham    Buckingham A     2704.5500    eV        0.000 12.000
                            Buckingham rho  0.35280000    Ang       
                            Buckingham C     0.0000000    eV*Ang^6  
--------------------------------------------------------------------------------

********************************************************************************
*  Output for configuration   1                                                *
********************************************************************************


  Components of energy : 

--------------------------------------------------------------------------------
  Interatomic potentials     =           5.13022605 eV    
  Monopole - monopole (real) =         -10.03624526 eV    
  Monopole - monopole (recip)=         -29.53581274 eV    
  Monopole - monopole (total)=         -39.57205800 eV    
--------------------------------------------------------------------------------
  Total lattice energy       =         -34.44183194 eV    
--------------------------------------------------------------------------------
  Total lattice energy       =           -3323.1103 kJ/(mole unit cells)
--------------------------------------------------------------------------------


  Number of variables =        1

  Maximum number of calculations  =          1000
  Maximum Hessian update interval =            10
  Maximum step size               =   1.000000000
  Maximum parameter tolerance     =   0.000010000
  Maximum function  tolerance     =   0.000010000
  Maximum gradient  tolerance     =   0.001000000
  Maximum gradient  component     =   0.010000000

  Symmetry constrained optimisation

  Symmetry used for second derivatives

  Cell parameters to be optimised using strains

  Newton-Raphson optimiser to be used

  BFGS hessian update to be used

  Lower half triangular hessian to be used

  Start of bulk optimisation :

  Cycle:      0 Energy:       -34.441832  Gnorm:      0.196570  CPU:    0.013
  ** Hessian calculated **
  Cycle:      1 Energy:       -34.441914  Gnorm:      0.000103  CPU:    0.016


  **** Optimisation achieved ****


  Final energy =     -34.44191447 eV
  Final Gnorm  =       0.00000000

  Components of energy : 

--------------------------------------------------------------------------------
  Interatomic potentials     =           5.09689708 eV    
  Monopole - monopole (real) =         -10.02781331 eV    
  Monopole - monopole (recip)=         -29.51099824 eV    
  Monopole - monopole (total)=         -39.53881155 eV    
--------------------------------------------------------------------------------
  Total lattice energy       =         -34.44191447 eV    
--------------------------------------------------------------------------------
  Total lattice energy       =           -3323.1183 kJ/(mole unit cells)
--------------------------------------------------------------------------------

  Final asymmetric unit coordinates :

--------------------------------------------------------------------------------
   No.  Atomic        x           y           z         Radius
        Label       (Frac)      (Frac)      (Frac)       (Angs) 
--------------------------------------------------------------------------------
     1  Cl    c     0.000000    0.000000    0.000000    0.000000
     2  O     c     0.500000    0.500000    0.500000    0.000000
     3  Na    c     0.500000    0.500000    0.000000    0.000000
     4  Cl    s     0.000000    0.000000    0.000000    0.000000
     5  O     s     0.500000    0.500000    0.500000    0.000000
--------------------------------------------------------------------------------

  Final Cartesian lattice vectors (Angstroms) :

        4.507787    0.000000    0.000000
        0.000000    4.507787    0.000000
        0.000000    0.000000    4.507787


  Final cell parameters and derivatives :

--------------------------------------------------------------------------------
       a            4.507787 Angstrom     dE/de1(xx)     0.000000 eV/strain
       b            4.507787 Angstrom     dE/de2(yy)     0.000000 eV/strain
       c            4.507787 Angstrom     dE/de3(zz)     0.000000 eV/strain
       alpha       90.000000 Degrees      dE/de4(yz)     0.000000 eV/strain
       beta        90.000000 Degrees      dE/de5(xz)     0.000000 eV/strain
       gamma       90.000000 Degrees      dE/de6(xy)     0.000000 eV/strain
--------------------------------------------------------------------------------

  Primitive cell volume =            91.598892 Angs**3

  Density of cell =      2.183054 g/cm**3

  Non-primitive cell volume =            91.598892 Angs**3


  Final internal derivatives :

--------------------------------------------------------------------------------
   No.  Atomic          a             b             c           Radius
        Label          (eV)          (eV)          (eV)        (eV/Angs)
--------------------------------------------------------------------------------
      1 Cl    c       0.000000      0.000000      0.000000      0.000000
      2 O     c       0.000000      0.000000      0.000000      0.000000
      3 Na    c       0.000000      0.000000      0.000000      0.000000
      4 Cl    s       0.000000      0.000000      0.000000      0.000000
      5 O     s       0.000000      0.000000      0.000000      0.000000
--------------------------------------------------------------------------------
  Maximum abs         0.000000      0.000000      0.000000      0.000000
--------------------------------------------------------------------------------

  Comparison of initial and final structures : 

--------------------------------------------------------------------------------
  Parameter   Initial value   Final value   Difference    Units      Percent
--------------------------------------------------------------------------------
    Volume        91.368216     91.598892     0.230676    Angs**3      0.25
    a              4.504000      4.507787     0.003787    Angstroms    0.08
    b              4.504000      4.507787     0.003787    Angstroms    0.08
    c              4.504000      4.507787     0.003787    Angstroms    0.08
    alpha         90.000000     90.000000     0.000000    Degrees      0.00
    beta          90.000000     90.000000     0.000000    Degrees      0.00
    gamma         90.000000     90.000000     0.000000    Degrees      0.00
      1 x          0.000000      0.000000     0.000000    Fractional   0.00
      1 y          0.000000      0.000000     0.000000    Fractional   0.00
      1 z          0.000000      0.000000     0.000000    Fractional   0.00
      2 x          0.500000      0.500000     0.000000    Fractional   0.00
      2 y          0.500000      0.500000     0.000000    Fractional   0.00
      2 z          0.500000      0.500000     0.000000    Fractional   0.00
      3 x          0.500000      0.500000     0.000000    Fractional   0.00
      3 y          0.500000      0.500000     0.000000    Fractional   0.00
      3 z          0.000000      0.000000     0.000000    Fractional   0.00
      4 x          0.000000      0.000000     0.000000    Fractional   0.00
      4 y          0.000000      0.000000     0.000000    Fractional   0.00
      4 z          0.000000      0.000000     0.000000    Fractional   0.00
      5 x          0.500000      0.500000     0.000000    Fractional   0.00
      5 y          0.500000      0.500000     0.000000    Fractional   0.00
      5 z          0.500000      0.500000     0.000000    Fractional   0.00
--------------------------------------------------------------------------------


  Born effective charge tensors : 

-------------------------------------------------------------------------------
  Atom             x           y             z
-------------------------------------------------------------------------------
    1 Cl    x      -1.0181     -0.0000      0.0000
            y      -0.0000     -1.0181      0.0000
            z       0.0000      0.0000     -1.0181
-------------------------------------------------------------------------------
    2 O     x      -2.2647      0.0000     -0.0000
            y       0.0000     -2.2647     -0.0000
            z      -0.0000     -0.0000     -2.2647
-------------------------------------------------------------------------------
    3 Na    x       1.2258     -0.0000      0.0000
            y      -0.0000      1.2258     -0.0000
            z       0.0000     -0.0000      0.8313
-------------------------------------------------------------------------------




  Elastic Constant Matrix: (Units=GPa)

-------------------------------------------------------------------------------
  Indices      1         2         3         4         5         6    
-------------------------------------------------------------------------------
       1     95.8177   20.0737   20.0737   -0.0000   -0.0000    0.0000
       2     20.0737   95.8177   20.0737   -0.0000   -0.0000    0.0000
       3     20.0737   20.0737   95.8177   -0.0000   -0.0000    0.0000
       4     -0.0000   -0.0000   -0.0000   20.0737   -0.0000    0.0000
       5     -0.0000   -0.0000   -0.0000   -0.0000   20.0737    0.0000
       6      0.0000    0.0000    0.0000    0.0000    0.0000   20.0737
-------------------------------------------------------------------------------


  Elastic Compliance Matrix: (Units=1/GPa)

-------------------------------------------------------------------------------
  Indices      1         2         3         4         5         6    
-------------------------------------------------------------------------------
       1    0.011253 -0.001949 -0.001949  0.000000  0.000000 -0.000000
       2   -0.001949  0.011253 -0.001949  0.000000  0.000000  0.000000
       3   -0.001949 -0.001949  0.011253  0.000000  0.000000 -0.000000
       4    0.000000  0.000000  0.000000  0.049816  0.000000 -0.000000
       5    0.000000  0.000000  0.000000  0.000000  0.049816 -0.000000
       6   -0.000000  0.000000 -0.000000 -0.000000 -0.000000  0.049816
-------------------------------------------------------------------------------

  Mechanical properties :

-------------------------------------------------------------------------------
  Convention :                    Reuss         Voigt         Hill
-------------------------------------------------------------------------------
  Bulk  Modulus (GPa)     =      45.32174      45.32174      45.32174
  Shear Modulus (GPa)     =      24.72085      27.19304      25.95695
-------------------------------------------------------------------------------
  Velocity S-wave (km/s)  =       3.36511       3.52937       3.44822
  Velocity P-wave (km/s)  =       5.98827       6.11304       6.05098
-------------------------------------------------------------------------------
  Compressibility (1/GPa) =    0.02206447
-------------------------------------------------------------------------------
  Stress axis :                     x             y             z
-------------------------------------------------------------------------------
  Youngs Moduli (GPa)     =      88.86373      88.86373      88.86373
-------------------------------------------------------------------------------
  Poissons Ratio (x)      =                     0.17321       0.17321
  Poissons Ratio (y)      =       0.17321                     0.17321
  Poissons Ratio (z)      =       0.17321       0.17321
-------------------------------------------------------------------------------


  Piezoelectric Strain Matrix: (Units=C/m**2)

-------------------------------------------------------------------------------
  Indices      1         2         3         4         5         6    
-------------------------------------------------------------------------------
       x    -0.00000  -0.00000  -0.00000   0.00000  -0.00000  -0.00000
       y    -0.00000  -0.00000   0.00000  -0.00000   0.00000   0.00000
       z    -0.00000  -0.00000  -0.00000  -0.00000   0.00000   0.00000
-------------------------------------------------------------------------------


  Piezoelectric Stress Matrix: (Units=10**-11 C/N)

-------------------------------------------------------------------------------
  Indices      1         2         3         4         5         6    
-------------------------------------------------------------------------------
       x    -0.00000   0.00000   0.00000   0.00000  -0.00000  -0.00000
       y    -0.00000  -0.00000   0.00000  -0.00000   0.00000   0.00000
       z     0.00000   0.00000  -0.00000  -0.00000   0.00000   0.00000
-------------------------------------------------------------------------------


  Static dielectric constant tensor : 

-------------------------------------------------------------------------------
              x         y         z
-------------------------------------------------------------------------------
       x    22.84729   0.00000   0.00000
       y     0.00000  22.84729  -0.00000
       z     0.00000  -0.00000  22.84729
--------------------------------------------------------------------------------

  High frequency dielectric constant tensor : 

-------------------------------------------------------------------------------
              x         y         z
-------------------------------------------------------------------------------
       x     1.47557   0.00000  -0.00000
       y     0.00000   1.47557  -0.00000
       z    -0.00000  -0.00000   1.47557
-------------------------------------------------------------------------------

  Static refractive indices : 

-------------------------------------------------------------------------------
    1 =    4.77988      2 =    4.77988      3 =    4.77988
-------------------------------------------------------------------------------

  High frequency refractive indices : 

-------------------------------------------------------------------------------
    1 =    1.21473      2 =    1.21473      3 =    1.21473
-------------------------------------------------------------------------------


  Time to end of optimisation =       0.0237 seconds

********************************************************************************
*  Defect calculation for configuration   1 :                                  *
********************************************************************************

  Total number of defects =      3

  Total charge on defect  =  -1.00

  Defect centre is at   0.5000   0.0300   0.4700  Frac

  Region 1 radius =  12.0000      Number of ions =    546

  Number of symmetry inequivalent region 1 ions  =    318

  Region 2 radius =  16.0000      Number of ions =    767

  Number of symmetry inequivalent region 2a ions =    416

  Region 2a mode = 4 : screened electrostatics due to region 1 
                       neglect correction to region 1 forces from 2a
                       region 2a displacements based on defects only

  Region 2a ions will only interact with defects in region 1

  Vacancies:

--------------------------------------------------------------------------------
    Specification type     Symbol/Number         x          y          z
--------------------------------------------------------------------------------
    Fractional                               0.500000   0.500000   0.000000
    Fractional                               0.500000   0.000000   0.500000
--------------------------------------------------------------------------------

  Interstitials:

--------------------------------------------------------------------------------
    Specification type     Symbol/Number         x          y          z
--------------------------------------------------------------------------------
    Atom/Fractional         Na               0.500000   0.470000   0.030000
--------------------------------------------------------------------------------


  Symmetry reduced region 1 (Relative to defect centre) :

--------------------------------------------------------------------------------
   No.   Atomic       x            y             z       Radius  Multiplicity   
         Label      (Angs)       (Angs)        (Angs)    (Angs)     
--------------------------------------------------------------------------------
     1  O     c      0.0000       2.1187 *     0.1352 *  0.0000     1          
     2  O     c      0.0000      -2.3891 *     0.1352 *  0.0000     1          
     3  Na    c      0.0000       1.9834      -1.9834    0.0000     1    Defect
     4  Cl    c      2.2539 *    -0.1352 *    -2.1187 *  0.0000     2          
     5  Na    c      2.2539 *     2.1187 *     0.1352 *  0.0000     2          
     6  Na    c      0.0000      -2.3891 *    -2.1187 *  0.0000     1          
     7  Na    c      0.0000       2.1187 *     2.3891 *  0.0000     1          
     8  Cl    c      2.2539 *    -0.1352 *     2.3891 *  0.0000     2          
     9  Na    c      2.2539 *    -2.3891 *     0.1352 *  0.0000     2          
    10  Na    c      0.0000      -2.3891 *     2.3891 *  0.0000     1          
    11  Na    c      0.0000       4.3726 *     0.1352 *  0.0000     1          
    12  Na    c      0.0000      -0.1352 *    -4.3726 *  0.0000     1          
    13  Na    c     -4.5078 *    -0.1352 *     0.1352 *  0.0000     2          
    14  Na    c      0.0000      -0.1352 *     4.6430 *  0.0000     1          
    15  Na    c      0.0000      -4.6430 *     0.1352 *  0.0000     1          
    16  O     c      0.0000       2.1187 *    -4.3726 *  0.0000     1          
    17  O     c     -4.5078 *     2.1187 *     0.1352 *  0.0000     2          
    18  O     c      0.0000      -2.3891 *    -4.3726 *  0.0000     1          
    19  O     c      0.0000       2.1187 *     4.6430 *  0.0000     1          
    20  O     c     -4.5078 *    -2.3891 *     0.1352 *  0.0000     2          
    21  O     c      0.0000      -2.3891 *     4.6430 *  0.0000     1          
    22  Cl    c      2.2539 *     4.3726 *    -2.1187 *  0.0000     2          
    23  Na    c      2.2539 *     2.1187 *    -4.3726 *  0.0000     2          
    24  Na    c     -4.5078 *     2.1187 *    -2.1187 *  0.0000     2          
    25  Cl    c      2.2539 *     4.3726 *     2.3891 *  0.0000     2          
    26  Na    c      2.2539 *    -2.3891 *    -4.3726 *  0.0000     2          
    27  Na    c     -4.5078 *    -2.3891 *    -2.1187 *  0.0000     2          
    28  Na    c     -4.5078 *     2.1187 *     2.3891 *  0.0000     2          
    29  Na    c      2.2539 *     2.1187 *     4.6430 *  0.0000     2          
    30  Cl    c      2.2539 *    -4.6430 *    -2.1187 *  0.0000     2          
    31  Na    c     -4.5078 *    -2.3891 *     2.3891 *  0.0000     2          
    32  Na    c      2.2539 *    -2.3891 *     4.6430 *  0.0000     2          
    33  Cl    c      2.2539 *    -4.6430 *     2.3891 *  0.0000     2          
    34  Na    c      0.0000       4.3726 *    -4.3726 *  0.0000     1          
    35  Na    c      4.5078 *     4.3726 *     0.1352 *  0.0000     2          
    36  Na    c     -4.5078 *    -0.1352 *    -4.3726 *  0.0000     2          
    37  Na    c      0.0000       4.3726 *     4.6430 *  0.0000     1          
    38  Na    c      0.0000      -4.6430 *    -4.3726 *  0.0000     1          
    39  Na    c     -4.5078 *    -0.1352 *     4.6430 *  0.0000     2          
    40  Na    c      4.5078 *    -4.6430 *     0.1352 *  0.0000     2          
    41  Na    c      0.0000      -4.6430 *     4.6430 *  0.0000     1          
    42  O     c      0.0000       6.6264 *     0.1352 *  0.0000     1          
    43  O     c     -4.5078 *     2.1187 *    -4.3726 *  0.0000     2          
    44  O     c     -4.5078 *    -2.3891 *    -4.3726 *  0.0000     2          
    45  O     c     -4.5078 *     2.1187 *     4.6430 *  0.0000     2          
    46  O     c     -4.5078 *    -2.3891 *     4.6430 *  0.0000     2          
    47  O     c      0.0000      -6.8969 *     0.1352 *  0.0000     1          
    48  Na    c      0.0000       2.1187 *    -6.6264 *  0.0000     1          
    49  Na    c      0.0000       6.6264 *    -2.1187 *  0.0000     1          
    50  Cl    c      2.2539 *    -0.1352 *    -6.6264 *  0.0000     2          
    51  Na    c      2.2539 *     6.6264 *     0.1352 *  0.0000     2          
    52  Na    c      0.0000      -2.3891 *    -6.6264 *  0.0000     1          
    53  Na    c      0.0000       6.6264 *     2.3891 *  0.0000     1          
    54  Cl    c      6.7617 *    -0.1352 *    -2.1187 *  0.0000     2          
    55  Na    c      6.7617 *     2.1187 *     0.1352 *  0.0000     2          
    56  Cl    c      6.7617 *    -0.1352 *     2.3891 *  0.0000     2          
    57  Na    c      6.7617 *    -2.3891 *     0.1352 *  0.0000     2          
    58  Na    c      0.0000       2.1187 *     6.8969 *  0.0000     1          
    59  Na    c      0.0000      -6.8969 *    -2.1187 *  0.0000     1          
    60  Cl    c      2.2539 *    -0.1352 *     6.8969 *  0.0000     2          
    61  Na    c      2.2539 *    -6.8969 *     0.1352 *  0.0000     2          
    62  Na    c      0.0000      -2.3891 *     6.8969 *  0.0000     1          
    63  Na    c      0.0000      -6.8969 *     2.3891 *  0.0000     1          
    64  Na    c      4.5078 *     4.3726 *    -4.3726 *  0.0000     2          
    65  Na    c      4.5078 *     4.3726 *     4.6430 *  0.0000     2          
    66  Na    c      4.5078 *    -4.6430 *    -4.3726 *  0.0000     2          
    67  O     c      0.0000       6.6264 *    -4.3726 *  0.0000     1          
    68  Na    c      4.5078 *    -4.6430 *     4.6430 *  0.0000     2          
    69  O     c     -4.5078 *     6.6264 *     0.1352 *  0.0000     2          
    70  O     c      0.0000       6.6264 *     4.6430 *  0.0000     1          
    71  O     c      0.0000      -6.8969 *    -4.3726 *  0.0000     1          
    72  O     c      4.5078 *    -6.8969 *     0.1352 *  0.0000     2          
    73  Cl    c      2.2539 *     4.3726 *    -6.6264 *  0.0000     2          
    74  Na    c      2.2539 *     6.6264 *    -4.3726 *  0.0000     2          
    75  Na    c      4.5078 *     2.1187 *    -6.6264 *  0.0000     2          
    76  Na    c     -4.5078 *     6.6264 *    -2.1187 *  0.0000     2          
    77  O     c      0.0000      -6.8969 *     4.6430 *  0.0000     1          
    78  Cl    c      6.7617 *     4.3726 *    -2.1187 *  0.0000     2          
    79  Na    c      6.7617 *     2.1187 *    -4.3726 *  0.0000     2          
    80  Na    c     -4.5078 *    -2.3891 *    -6.6264 *  0.0000     2          
    81  Na    c     -4.5078 *     6.6264 *     2.3891 *  0.0000     2          
    82  Cl    c      2.2539 *    -4.6430 *    -6.6264 *  0.0000     2          
    83  Cl    c      6.7617 *     4.3726 *     2.3891 *  0.0000     2          
    84  Na    c      2.2539 *     6.6264 *     4.6430 *  0.0000     2          
    85  Na    c      6.7617 *    -2.3891 *    -4.3726 *  0.0000     2          
    86  Cl    c      2.2539 *     4.3726 *     6.8969 *  0.0000     2          
    87  Na    c      2.2539 *    -6.8969 *    -4.3726 *  0.0000     2          
    88  Na    c      6.7617 *     2.1187 *     4.6430 *  0.0000     2          
    89  Cl    c      6.7617 *    -4.6430 *    -2.1187 *  0.0000     2          
    90  Na    c     -4.5078 *     2.1187 *     6.8969 *  0.0000     2          
    91  Na    c      4.5078 *    -6.8969 *    -2.1187 *  0.0000     2          
    92  Na    c      6.7617 *    -2.3891 *     4.6430 *  0.0000     2          
    93  Cl    c      6.7617 *    -4.6430 *     2.3891 *  0.0000     2          
    94  Na    c      4.5078 *    -2.3891 *     6.8969 *  0.0000     2          
    95  Na    c      4.5078 *    -6.8969 *     2.3891 *  0.0000     2          
    96  Na    c      2.2539 *    -6.8969 *     4.6430 *  0.0000     2          
    97  Cl    c      2.2539 *    -4.6430 *     6.8969 *  0.0000     2          
    98  Na    c      0.0000       8.8803 *     0.1352 *  0.0000     1          
    99  Na    c      0.0000      -0.1352 *    -8.8803 *  0.0000     1          
   100  Na    c      9.0156 *    -0.1352 *     0.1352 *  0.0000     2          
   101  O     c     -4.5078 *     6.6264 *    -4.3726 *  0.0000     2          
   102  O     c      0.0000       2.1187 *    -8.8803 *  0.0000     1          
   103  Na    c      0.0000      -0.1352 *     9.1508 *  0.0000     1          
   104  Na    c      0.0000      -9.1508 *     0.1352 *  0.0000     1          
   105  O     c      0.0000      -2.3891 *    -8.8803 *  0.0000     1          
   106  O     c     -4.5078 *     6.6264 *     4.6430 *  0.0000     2          
   107  O     c      9.0156 *     2.1187 *     0.1352 *  0.0000     2          
   108  O     c      4.5078 *    -6.8969 *    -4.3726 *  0.0000     2          
   109  O     c      9.0156 *    -2.3891 *     0.1352 *  0.0000     2          
   110  Na    c      0.0000       6.6264 *    -6.6264 *  0.0000     1          
   111  O     c      0.0000       2.1187 *     9.1508 *  0.0000     1          
   112  Cl    c      2.2539 *     8.8803 *    -2.1187 *  0.0000     2          
   113  Na    c      2.2539 *     2.1187 *    -8.8803 *  0.0000     2          
   114  O     c      0.0000      -2.3891 *     9.1508 *  0.0000     1          
   115  O     c      4.5078 *    -6.8969 *     4.6430 *  0.0000     2          
   116  Cl    c      2.2539 *     8.8803 *     2.3891 *  0.0000     2          
   117  Cl    c      6.7617 *    -0.1352 *    -6.6264 *  0.0000     2          
   118  Na    c      6.7617 *     6.6264 *     0.1352 *  0.0000     2          
   119  Na    c      2.2539 *    -2.3891 *    -8.8803 *  0.0000     2          
   120  Na    c      9.0156 *     2.1187 *    -2.1187 *  0.0000     2          
   121  Na    c      0.0000       6.6264 *     6.8969 *  0.0000     1          
   122  Na    c      0.0000      -6.8969 *    -6.6264 *  0.0000     1          
   123  Na    c      9.0156 *    -2.3891 *    -2.1187 *  0.0000     2          
   124  Na    c      9.0156 *     2.1187 *     2.3891 *  0.0000     2          
   125  Na    c      9.0156 *    -2.3891 *     2.3891 *  0.0000     2          
   126  Na    c      2.2539 *     2.1187 *     9.1508 *  0.0000     2          
   127  Cl    c      2.2539 *    -9.1508 *    -2.1187 *  0.0000     2          
   128  Cl    c      6.7617 *    -0.1352 *     6.8969 *  0.0000     2          
   129  Na    c      6.7617 *    -6.8969 *     0.1352 *  0.0000     2          
   130  Na    c      2.2539 *    -2.3891 *     9.1508 *  0.0000     2          
   131  Cl    c      2.2539 *    -9.1508 *     2.3891 *  0.0000     2          
   132  Na    c      0.0000      -6.8969 *     6.8969 *  0.0000     1          
   133  Na    c      0.0000       8.8803 *    -4.3726 *  0.0000     1          
   134  Na    c      0.0000       4.3726 *    -8.8803 *  0.0000     1          
   135  Na    c     -4.5078 *     8.8803 *     0.1352 *  0.0000     2          
   136  Na    c     -4.5078 *    -0.1352 *    -8.8803 *  0.0000     2          
   137  Na    c      0.0000       8.8803 *     4.6430 *  0.0000     1          
   138  Na    c      9.0156 *     4.3726 *     0.1352 *  0.0000     2          
   139  Na    c      9.0156 *    -0.1352 *    -4.3726 *  0.0000     2          
   140  Na    c      0.0000      -4.6430 *    -8.8803 *  0.0000     1          
   141  Na    c      0.0000       4.3726 *     9.1508 *  0.0000     1          
   142  Na    c      9.0156 *    -0.1352 *     4.6430 *  0.0000     2          
   143  Na    c      0.0000      -9.1508 *    -4.3726 *  0.0000     1          
   144  Na    c      9.0156 *    -4.6430 *     0.1352 *  0.0000     2          
   145  O     c      4.5078 *     2.1187 *    -8.8803 *  0.0000     2          
   146  Na    c     -4.5078 *    -0.1352 *     9.1508 *  0.0000     2          
   147  Na    c     -4.5078 *    -9.1508 *     0.1352 *  0.0000     2          
   148  O     c      9.0156 *     2.1187 *    -4.3726 *  0.0000     2          
   149  O     c     -4.5078 *    -2.3891 *    -8.8803 *  0.0000     2          
   150  Na    c      0.0000      -4.6430 *     9.1508 *  0.0000     1          
   151  Na    c      0.0000      -9.1508 *     4.6430 *  0.0000     1          
   152  O     c      9.0156 *    -2.3891 *    -4.3726 *  0.0000     2          
   153  O     c      9.0156 *     2.1187 *     4.6430 *  0.0000     2          
   154  Na    c     -4.5078 *     6.6264 *    -6.6264 *  0.0000     2          
   155  O     c     -4.5078 *     2.1187 *     9.1508 *  0.0000     2          
   156  O     c      9.0156 *    -2.3891 *     4.6430 *  0.0000     2          
   157  Cl    c      6.7617 *     4.3726 *    -6.6264 *  0.0000     2          
   158  Na    c      6.7617 *     6.6264 *    -4.3726 *  0.0000     2          
   159  O     c     -4.5078 *    -2.3891 *     9.1508 *  0.0000     2          
   160  Na    c      6.7617 *     6.6264 *     4.6430 *  0.0000     2          
   161  Cl    c      6.7617 *    -4.6430 *    -6.6264 *  0.0000     2          
   162  Na    c     -4.5078 *     6.6264 *     6.8969 *  0.0000     2          
   163  Na    c      4.5078 *    -6.8969 *    -6.6264 *  0.0000     2          
   164  Cl    c      6.7617 *     4.3726 *     6.8969 *  0.0000     2          
   165  Na    c      6.7617 *    -6.8969 *    -4.3726 *  0.0000     2          
   166  Cl    c      6.7617 *    -4.6430 *     6.8969 *  0.0000     2          
   167  Na    c      6.7617 *    -6.8969 *     4.6430 *  0.0000     2          
   168  Na    c      4.5078 *    -6.8969 *     6.8969 *  0.0000     2          
   169  Na    c     -4.5078 *     8.8803 *    -4.3726 *  0.0000     2          
   170  Na    c      4.5078 *     4.3726 *    -8.8803 *  0.0000     2          
   171  Na    c      9.0156 *     4.3726 *    -4.3726 *  0.0000     2          
   172  Na    c     -4.5078 *     8.8803 *     4.6430 *  0.0000     2          
   173  Na    c      4.5078 *    -4.6430 *    -8.8803 *  0.0000     2          
   174  Na    c      9.0156 *     4.3726 *     4.6430 *  0.0000     2          
   175  Na    c      9.0156 *    -4.6430 *    -4.3726 *  0.0000     2          
   176  O     c      0.0000       6.6264 *    -8.8803 *  0.0000     1          
   177  Na    c      4.5078 *     4.3726 *     9.1508 *  0.0000     2          
   178  Na    c     -4.5078 *    -9.1508 *    -4.3726 *  0.0000     2          
   179  O     c      0.0000      11.1342 *     0.1352 *  0.0000     1          
   180  Na    c      9.0156 *    -4.6430 *     4.6430 *  0.0000     2          
   181  O     c      9.0156 *     6.6264 *     0.1352 *  0.0000     2          
   182  Na    c      4.5078 *    -4.6430 *     9.1508 *  0.0000     2          
   183  Na    c     -4.5078 *    -9.1508 *     4.6430 *  0.0000     2          
   184  O     c      0.0000      -6.8969 *    -8.8803 *  0.0000     1          
   185  O     c      0.0000       6.6264 *     9.1508 *  0.0000     1          
   186  Cl    c      2.2539 *     8.8803 *    -6.6264 *  0.0000     2          
   187  Na    c      2.2539 *     6.6264 *    -8.8803 *  0.0000     2          
   188  Na    c      0.0000       2.1187 *   -11.1342 *  0.0000     1          
   189  Na    c      0.0000      11.1342 *    -2.1187 *  0.0000     1          
   190  O     c      9.0156 *    -6.8969 *     0.1352 *  0.0000     2          
   191  Cl    c      2.2539 *    -0.1352 *   -11.1342 *  0.0000     2          
   192  Cl    c      6.7617 *     8.8803 *    -2.1187 *  0.0000     2          
   193  Na    c      2.2539 *    11.1342 *     0.1352 *  0.0000     2          
   194  Na    c      6.7617 *     2.1187 *    -8.8803 *  0.0000     2          
   195  Na    c      0.0000      -2.3891 *   -11.1342 *  0.0000     1          
   196  Na    c      0.0000      11.1342 *     2.3891 *  0.0000     1          
   197  Na    c      9.0156 *     2.1187 *    -6.6264 *  0.0000     2          
   198  Na    c      9.0156 *     6.6264 *    -2.1187 *  0.0000     2          
   199  O     c      0.0000     -11.4047 *     0.1352 *  0.0000     1          
   200  Cl    c      6.7617 *     8.8803 *     2.3891 *  0.0000     2          
   201  Na    c      6.7617 *    -2.3891 *    -8.8803 *  0.0000     2          
   202  Na    c      9.0156 *    -2.3891 *    -6.6264 *  0.0000     2          
   203  Na    c      9.0156 *     6.6264 *     2.3891 *  0.0000     2          
   204  O     c      0.0000      -6.8969 *     9.1508 *  0.0000     1          
   205  Cl    c      2.2539 *     8.8803 *     6.8969 *  0.0000     2          
   206  Cl    c     11.2695 *    -0.1352 *    -2.1187 *  0.0000     2          
   207  Na    c     11.2695 *     2.1187 *     0.1352 *  0.0000     2          
   208  Na    c      2.2539 *    -6.8969 *    -8.8803 *  0.0000     2          
   209  Na    c      2.2539 *     6.6264 *     9.1508 *  0.0000     2          
   210  Cl    c     11.2695 *    -0.1352 *     2.3891 *  0.0000     2          
   211  Na    c     11.2695 *    -2.3891 *     0.1352 *  0.0000     2          
   212  Cl    c      2.2539 *    -9.1508 *    -6.6264 *  0.0000     2          
   213  Na    c      9.0156 *     2.1187 *     6.8969 *  0.0000     2          
   214  Na    c      9.0156 *    -6.8969 *    -2.1187 *  0.0000     2          
   215  Na    c      6.7617 *     2.1187 *     9.1508 *  0.0000     2          
   216  Cl    c      6.7617 *    -9.1508 *    -2.1187 *  0.0000     2          
   217  Na    c      0.0000       2.1187 *    11.4047 *  0.0000     1          
   218  Na    c      0.0000     -11.4047 *    -2.1187 *  0.0000     1          
   219  Na    c      9.0156 *    -2.3891 *     6.8969 *  0.0000     2          
   220  Na    c      9.0156 *    -6.8969 *     2.3891 *  0.0000     2          
   221  Na    c      6.7617 *    -2.3891 *     9.1508 *  0.0000     2          
   222  Cl    c      2.2539 *    -0.1352 *    11.4047 *  0.0000     2          
   223  Cl    c      6.7617 *    -9.1508 *     2.3891 *  0.0000     2          
   224  Na    c      2.2539 *   -11.4047 *     0.1352 *  0.0000     2          
   225  Na    c      0.0000      -2.3891 *    11.4047 *  0.0000     1          
   226  Na    c      0.0000     -11.4047 *     2.3891 *  0.0000     1          
   227  Na    c      2.2539 *    -6.8969 *     9.1508 *  0.0000     2          
   228  Cl    c      2.2539 *    -9.1508 *     6.8969 *  0.0000     2          
   229  O     c      0.0000      11.1342 *    -4.3726 *  0.0000     1          
   230  O     c     -4.5078 *     6.6264 *    -8.8803 *  0.0000     2          
   231  O     s      0.0000       2.1187 *     0.1352 *  0.0000     1          
   232  O     s      0.0000      -2.3891 *     0.1352 *  0.0000     1          
   233  Cl    s      2.2539 *    -0.1352 *    -2.1187 *  0.0000     2          
   234  Cl    s      2.2539 *    -0.1352 *     2.3891 *  0.0000     2          
   235  O     s      0.0000       2.1187 *    -4.3726 *  0.0000     1          
   236  O     s     -4.5078 *     2.1187 *     0.1352 *  0.0000     2          
   237  O     s      0.0000      -2.3891 *    -4.3726 *  0.0000     1          
   238  O     s      0.0000       2.1187 *     4.6430 *  0.0000     1          
   239  O     s     -4.5078 *    -2.3891 *     0.1352 *  0.0000     2          
   240  O     s      0.0000      -2.3891 *     4.6430 *  0.0000     1          
   241  Cl    s      2.2539 *     4.3726 *    -2.1187 *  0.0000     2          
   242  Cl    s      2.2539 *     4.3726 *     2.3891 *  0.0000     2          
   243  Cl    s      2.2539 *    -4.6430 *    -2.1187 *  0.0000     2          
   244  Cl    s      2.2539 *    -4.6430 *     2.3891 *  0.0000     2          
   245  O     s      0.0000       6.6264 *     0.1352 *  0.0000     1          
   246  O     s     -4.5078 *     2.1187 *    -4.3726 *  0.0000     2          
   247  O     s     -4.5078 *    -2.3891 *    -4.3726 *  0.0000     2          
   248  O     s     -4.5078 *     2.1187 *     4.6430 *  0.0000     2          
   249  O     s     -4.5078 *    -2.3891 *     4.6430 *  0.0000     2          
   250  O     s      0.0000      -6.8969 *     0.1352 *  0.0000     1          
   251  Cl    s      2.2539 *    -0.1352 *    -6.6264 *  0.0000     2          
   252  Cl    s      6.7617 *    -0.1352 *    -2.1187 *  0.0000     2          
   253  Cl    s      6.7617 *    -0.1352 *     2.3891 *  0.0000     2          
   254  Cl    s      2.2539 *    -0.1352 *     6.8969 *  0.0000     2          
   255  O     s      0.0000       6.6264 *    -4.3726 *  0.0000     1          
   256  O     s     -4.5078 *     6.6264 *     0.1352 *  0.0000     2          
   257  O     s      0.0000       6.6264 *     4.6430 *  0.0000     1          
   258  O     s      0.0000      -6.8969 *    -4.3726 *  0.0000     1          
   259  O     s      4.5078 *    -6.8969 *     0.1352 *  0.0000     2          
   260  Cl    s      2.2539 *     4.3726 *    -6.6264 *  0.0000     2          
   261  O     s      0.0000      -6.8969 *     4.6430 *  0.0000     1          
   262  Cl    s      6.7617 *     4.3726 *    -2.1187 *  0.0000     2          
   263  Cl    s      2.2539 *    -4.6430 *    -6.6264 *  0.0000     2          
   264  Cl    s      6.7617 *     4.3726 *     2.3891 *  0.0000     2          
   265  Cl    s      2.2539 *     4.3726 *     6.8969 *  0.0000     2          
   266  Cl    s      6.7617 *    -4.6430 *    -2.1187 *  0.0000     2          
   267  Cl    s      6.7617 *    -4.6430 *     2.3891 *  0.0000     2          
   268  Cl    s      2.2539 *    -4.6430 *     6.8969 *  0.0000     2          
   269  O     s     -4.5078 *     6.6264 *    -4.3726 *  0.0000     2          
   270  O     s      0.0000       2.1187 *    -8.8803 *  0.0000     1          
   271  O     s      0.0000      -2.3891 *    -8.8803 *  0.0000     1          
   272  O     s     -4.5078 *     6.6264 *     4.6430 *  0.0000     2          
   273  O     s      9.0156 *     2.1187 *     0.1352 *  0.0000     2          
   274  O     s      4.5078 *    -6.8969 *    -4.3726 *  0.0000     2          
   275  O     s      9.0156 *    -2.3891 *     0.1352 *  0.0000     2          
   276  O     s      0.0000       2.1187 *     9.1508 *  0.0000     1          
   277  Cl    s      2.2539 *     8.8803 *    -2.1187 *  0.0000     2          
   278  O     s      0.0000      -2.3891 *     9.1508 *  0.0000     1          
   279  O     s      4.5078 *    -6.8969 *     4.6430 *  0.0000     2          
   280  Cl    s      2.2539 *     8.8803 *     2.3891 *  0.0000     2          
   281  Cl    s      6.7617 *    -0.1352 *    -6.6264 *  0.0000     2          
   282  Cl    s      2.2539 *    -9.1508 *    -2.1187 *  0.0000     2          
   283  Cl    s      6.7617 *    -0.1352 *     6.8969 *  0.0000     2          
   284  Cl    s      2.2539 *    -9.1508 *     2.3891 *  0.0000     2          
   285  O     s      4.5078 *     2.1187 *    -8.8803 *  0.0000     2          
   286  O     s      9.0156 *     2.1187 *    -4.3726 *  0.0000     2          
   287  O     s     -4.5078 *    -2.3891 *    -8.8803 *  0.0000     2          
   288  O     s      9.0156 *    -2.3891 *    -4.3726 *  0.0000     2          
   289  O     s      9.0156 *     2.1187 *     4.6430 *  0.0000     2          
   290  O     s     -4.5078 *     2.1187 *     9.1508 *  0.0000     2          
   291  O     s      9.0156 *    -2.3891 *     4.6430 *  0.0000     2          
   292  Cl    s      6.7617 *     4.3726 *    -6.6264 *  0.0000     2          
   293  O     s     -4.5078 *    -2.3891 *     9.1508 *  0.0000     2          
   294  Cl    s      6.7617 *    -4.6430 *    -6.6264 *  0.0000     2          
   295  Cl    s      6.7617 *     4.3726 *     6.8969 *  0.0000     2          
   296  Cl    s      6.7617 *    -4.6430 *     6.8969 *  0.0000     2          
   297  O     s      0.0000       6.6264 *    -8.8803 *  0.0000     1          
   298  O     s      0.0000      11.1342 *     0.1352 *  0.0000     1          
   299  O     s      9.0156 *     6.6264 *     0.1352 *  0.0000     2          
   300  O     s      0.0000      -6.8969 *    -8.8803 *  0.0000     1          
   301  O     s      0.0000       6.6264 *     9.1508 *  0.0000     1          
   302  Cl    s      2.2539 *     8.8803 *    -6.6264 *  0.0000     2          
   303  O     s      9.0156 *    -6.8969 *     0.1352 *  0.0000     2          
   304  Cl    s      2.2539 *    -0.1352 *   -11.1342 *  0.0000     2          
   305  Cl    s      6.7617 *     8.8803 *    -2.1187 *  0.0000     2          
   306  O     s      0.0000     -11.4047 *     0.1352 *  0.0000     1          
   307  Cl    s      6.7617 *     8.8803 *     2.3891 *  0.0000     2          
   308  O     s      0.0000      -6.8969 *     9.1508 *  0.0000     1          
   309  Cl    s      2.2539 *     8.8803 *     6.8969 *  0.0000     2          
   310  Cl    s     11.2695 *    -0.1352 *    -2.1187 *  0.0000     2          
   311  Cl    s     11.2695 *    -0.1352 *     2.3891 *  0.0000     2          
   312  Cl    s      2.2539 *    -9.1508 *    -6.6264 *  0.0000     2          
   313  Cl    s      6.7617 *    -9.1508 *    -2.1187 *  0.0000     2          
   314  Cl    s      2.2539 *    -0.1352 *    11.4047 *  0.0000     2          
   315  Cl    s      6.7617 *    -9.1508 *     2.3891 *  0.0000     2          
   316  Cl    s      2.2539 *    -9.1508 *     6.8969 *  0.0000     2          
   317  O     s      0.0000      11.1342 *    -4.3726 *  0.0000     1          
   318  O     s     -4.5078 *     6.6264 *    -8.8803 *  0.0000     2          
--------------------------------------------------------------------------------

  Components of defect energy : 

--------------------------------------------------------------------------------
  Region 1 - region 1                   =    -10.33018879 eV
  Region 1 - region 2a (unrelaxed)      =     18.71578295 eV
  Region 1 - 2a (relaxed - correction)  =     -0.28032708 eV
  Region 1 (Total)                      =      8.10526708 eV
  Region 2a                             =      0.14008901 eV
  Region 2b                             =     -0.43055134 eV
--------------------------------------------------------------------------------
  Total defect energy                   =      7.81480476 eV
--------------------------------------------------------------------------------

  Largest displacement in region 2 =   0.0209 Angstroms


  Number of variables =      862

  Maximum number of calculations  =        1000
  Maximum Hessian update interval =          10
  Maximum step size               =   1.0000000
  Maximum parameter tolerance     =   0.0000100
  Maximum function  tolerance     =   0.0000100
  Maximum gradient  tolerance     =   0.0010000

  Symmetry adapted optimisation

  Symmetry to be used for second derivatives

  Newton-Raphson optimiser to be used

  BFGS hessian update to be used

  Lower half triangular hessian to be used

  Start of defect optimisation :

  Cycle:      0 Defect Energy:   7.814805  Gnorm:     0.019512  CPU:    2.442
  ** Hessian calculated **
  Cycle:      1 Defect Energy:   6.052141  Gnorm:     0.007509  CPU:    6.565
  Cycle:      2 Defect Energy:   5.460972  Gnorm:     0.006118  CPU:   10.127
  Cycle:      3 Defect Energy:   5.332741  Gnorm:     0.003257  CPU:   13.112
  Cycle:      4 Defect Energy:   5.284679  Gnorm:     0.003159  CPU:   13.945
  Cycle:      5 Defect Energy:   5.218925  Gnorm:     0.002728  CPU:   14.786
  Cycle:      6 Defect Energy:   5.131137  Gnorm:     0.002249  CPU:   15.625
  Cycle:      7 Defect Energy:   5.024521  Gnorm:     0.002184  CPU:   16.469
  Cycle:      8 Defect Energy:   4.943526  Gnorm:     0.001781  CPU:   17.311
  Cycle:      9 Defect Energy:   4.884943  Gnorm:     0.001931  CPU:   18.153
  Cycle:     10 Defect Energy:   4.830586  Gnorm:     0.001989  CPU:   18.994
  ** Hessian calculated **
  Cycle:     11 Defect Energy:   4.808041  Gnorm:     0.001693  CPU:   21.161
  Cycle:     12 Defect Energy:   4.780881  Gnorm:     0.001581  CPU:   22.015
  Cycle:     13 Defect Energy:   4.749915  Gnorm:     0.001559  CPU:   22.858
  Cycle:     14 Defect Energy:   4.723073  Gnorm:     0.001492  CPU:   23.676
  Cycle:     15 Defect Energy:   4.700301  Gnorm:     0.001459  CPU:   24.510
  Cycle:     16 Defect Energy:   4.679816  Gnorm:     0.001423  CPU:   25.343
  Cycle:     17 Defect Energy:   4.660259  Gnorm:     0.001412  CPU:   26.179
  Cycle:     18 Defect Energy:   4.637967  Gnorm:     0.001381  CPU:   27.018
  Cycle:     19 Defect Energy:   4.614525  Gnorm:     0.001331  CPU:   27.866
  Cycle:     20 Defect Energy:   4.590822  Gnorm:     0.001311  CPU:   28.712
  ** Hessian calculated **
  Cycle:     21 Defect Energy:   4.548842  Gnorm:     0.001162  CPU:   30.885
  Cycle:     22 Defect Energy:   4.489901  Gnorm:     0.000896  CPU:   31.735
  Cycle:     23 Defect Energy:   4.467788  Gnorm:     0.000767  CPU:   32.579
  ** Hessian calculated **
  Cycle:     24 Defect Energy:   4.465001  Gnorm:     0.000688  CPU:   34.743
  Cycle:     25 Defect Energy:   4.461576  Gnorm:     0.000658  CPU:   35.551
  Cycle:     26 Defect Energy:   4.457410  Gnorm:     0.000637  CPU:   36.395
  Cycle:     27 Defect Energy:   4.454332  Gnorm:     0.000610  CPU:   37.234
  Cycle:     28 Defect Energy:   4.452013  Gnorm:     0.000585  CPU:   38.076
  Cycle:     29 Defect Energy:   4.450344  Gnorm:     0.000578  CPU:   38.916
  Cycle:     30 Defect Energy:   4.448468  Gnorm:     0.000563  CPU:   39.758
  Cycle:     31 Defect Energy:   4.446853  Gnorm:     0.000551  CPU:   40.567
  Cycle:     32 Defect Energy:   4.444877  Gnorm:     0.000531  CPU:   41.421
  Cycle:     33 Defect Energy:   4.442710  Gnorm:     0.000523  CPU:   42.264
  ** Hessian calculated **
  Cycle:     34 Defect Energy:   4.442072  Gnorm:     0.000505  CPU:   44.387
  Cycle:     35 Defect Energy:   4.441289  Gnorm:     0.000502  CPU:   45.233
  Cycle:     36 Defect Energy:   4.440145  Gnorm:     0.000496  CPU:   46.082
  Cycle:     37 Defect Energy:   4.438808  Gnorm:     0.000492  CPU:   46.938
  Cycle:     38 Defect Energy:   4.437375  Gnorm:     0.000489  CPU:   47.774
  Cycle:     39 Defect Energy:   4.436330  Gnorm:     0.000493  CPU:   48.621
  Cycle:     40 Defect Energy:   4.435137  Gnorm:     0.000501  CPU:   49.476
  Cycle:     41 Defect Energy:   4.433852  Gnorm:     0.000503  CPU:   50.270
  Cycle:     42 Defect Energy:   4.432155  Gnorm:     0.000513  CPU:   51.112
  Cycle:     43 Defect Energy:   4.429646  Gnorm:     0.000528  CPU:   51.976
  ** Hessian calculated **
  Cycle:     44 Defect Energy:   4.425785  Gnorm:     0.000474  CPU:   54.130
  Cycle:     45 Defect Energy:   4.421234  Gnorm:     0.000405  CPU:   54.970
  Cycle:     46 Defect Energy:   4.419709  Gnorm:     0.000378  CPU:   55.812
  ** Hessian calculated **
  Cycle:     47 Defect Energy:   4.412153  Gnorm:     0.000268  CPU:   57.992
  Cycle:     48 Defect Energy:   4.407909  Gnorm:     0.000194  CPU:   58.573
  Cycle:     49 Defect Energy:   4.405416  Gnorm:     0.000135  CPU:   59.377
  Cycle:     50 Defect Energy:   4.404025  Gnorm:     0.000098  CPU:   60.223
  Cycle:     51 Defect Energy:   4.403272  Gnorm:     0.000062  CPU:   61.082
  Cycle:     52 Defect Energy:   4.402740  Gnorm:     0.000059  CPU:   61.885
  Cycle:     53 Defect Energy:   4.402476  Gnorm:     0.000031  CPU:   62.732
  Cycle:     54 Defect Energy:   4.402331  Gnorm:     0.000030  CPU:   63.586
  Cycle:     55 Defect Energy:   4.402160  Gnorm:     0.000031  CPU:   64.440
  Cycle:     56 Defect Energy:   4.401902  Gnorm:     0.000044  CPU:   65.298
  ** Hessian calculated **
  Cycle:     57 Defect Energy:   4.401891  Gnorm:     0.000028  CPU:   67.441


  **** Optimisation achieved ****


  Final defect energy  =        4.40189162
  Final defect Gnorm   =        0.00002160

  Components of defect energy : 

--------------------------------------------------------------------------------
  Region 1 - region 1                   =    -11.06709003 eV
  Region 1 - region 2a (unrelaxed)      =     16.00273030 eV
  Region 1 - 2a (relaxed - correction)  =     -0.20589059 eV
  Region 1 (Total)                      =      4.72974968 eV
  Region 2a                             =      0.10287293 eV
  Region 2b                             =     -0.43073098 eV
--------------------------------------------------------------------------------
  Total defect energy                   =      4.40189162 eV
--------------------------------------------------------------------------------

  Largest displacement in region 2 =   0.0209 Angstroms

  Final coordinates of region 1 :

--------------------------------------------------------------------------------
   No.  Atomic        x           y           z          Radius      Charge
        Label       (Angs)      (Angs)      (Angs)       (Angs)       (e) 
--------------------------------------------------------------------------------
     1  O     c     2.253894    2.352150    2.329947    0.000000    0.183000
     2  O     c     2.253894   -2.313241    2.261318    0.000000    0.183000
     3  Na    c     2.253894    2.118660    0.135234    0.000000    1.000000
     4  Cl    c     4.642740    0.005187   -0.105576    0.000000    1.485000
     5  Cl    c    -0.134953    0.005187   -0.105576    0.000000    1.485000
     6  Na    c     4.419687    1.800187    2.250316    0.000000    1.000000
     7  Na    c     0.088100    1.800187    2.250316    0.000000    1.000000
     8  Na    c     2.253894   -1.760659    0.099669    0.000000    1.000000
     9  Na    c     2.253894    1.774087    4.478075    0.000000    1.000000
    10  Cl    c     4.630036   -0.008031    4.636845    0.000000    1.485000
    11  Cl    c    -0.122249   -0.008031    4.636845    0.000000    1.485000
    12  Na    c     4.434350   -1.846001    2.254828    0.000000    1.000000
    13  Na    c     0.073437   -1.846001    2.254828    0.000000    1.000000
    14  Na    c     2.253894   -1.837576    4.439537    0.000000    1.000000
    15  Na    c     2.253894    4.535404    2.546978    0.000000    1.000000
    16  Na    c     2.253894    0.004902   -2.540406    0.000000    1.000000
    17  Na    c    -2.616359    0.002106    2.276490    0.000000    1.000000
    18  Na    c     7.124146    0.002106    2.276490    0.000000    1.000000
    19  Na    c     2.253894    0.006587    7.156563    0.000000    1.000000
    20  Na    c     2.253894   -4.508562    2.231036    0.000000    1.000000
    21  O     c     2.253894    2.238006   -2.199559    0.000000    0.183000
    22  O     c    -2.210941    2.236480    2.262429    0.000000    0.183000
    23  O     c     6.718729    2.236480    2.262429    0.000000    0.183000
    24  O     c     2.253894   -2.226852   -2.194739    0.000000    0.183000
    25  O     c     2.253894    2.248316    6.752805    0.000000    0.183000
    26  O     c    -2.222634   -2.235140    2.259678    0.000000    0.183000
    27  O     c     6.730421   -2.235140    2.259678    0.000000    0.183000
    28  O     c     2.253894   -2.231280    6.736421    0.000000    0.183000
    29  Cl    c     4.558566    4.618325   -0.110069    0.000000    1.485000
    30  Cl    c    -0.050779    4.618325   -0.110069    0.000000    1.485000
    31  Na    c     4.502323    2.144353   -2.128086    0.000000    1.000000
    32  Na    c     0.005464    2.144353   -2.128086    0.000000    1.000000
    33  Na    c    -2.297547    2.207222    0.007545    0.000000    1.000000
    34  Na    c     6.805334    2.207222    0.007545    0.000000    1.000000
    35  Cl    c     4.613104    4.602688    4.612003    0.000000    1.485000
    36  Cl    c    -0.105317    4.602688    4.612003    0.000000    1.485000
    37  Na    c     4.507442   -2.191989   -2.176155    0.000000    1.000000
    38  Na    c     0.000346   -2.191989   -2.176155    0.000000    1.000000
    39  Na    c    -2.239332   -2.172028    0.009793    0.000000    1.000000
    40  Na    c     6.747119   -2.172028    0.009793    0.000000    1.000000
    41  Na    c    -2.106507    2.216822    4.509698    0.000000    1.000000
    42  Na    c     6.614294    2.216822    4.509698    0.000000    1.000000
    43  Na    c     4.505947    2.253137    6.793733    0.000000    1.000000
    44  Na    c     0.001840    2.253137    6.793733    0.000000    1.000000
    45  Cl    c     4.604302   -4.628041   -0.086082    0.000000    1.485000
    46  Cl    c    -0.096515   -4.628041   -0.086082    0.000000    1.485000
    47  Na    c    -2.184438   -2.223300    4.508767    0.000000    1.000000
    48  Na    c     6.692225   -2.223300    4.508767    0.000000    1.000000
    49  Na    c     4.502660   -2.208824    6.736518    0.000000    1.000000
    50  Na    c     0.005128   -2.208824    6.736518    0.000000    1.000000
    51  Cl    c     4.609911   -4.609851    4.604632    0.000000    1.485000
    52  Cl    c    -0.102124   -4.609851    4.604632    0.000000    1.485000
    53  Na    c     2.253894    4.491025   -2.106362    0.000000    1.000000
    54  Na    c     6.318468    4.472824    2.244214    0.000000    1.000000
    55  Na    c    -1.810680    4.472824    2.244214    0.000000    1.000000
    56  Na    c    -2.356218    0.003230   -2.283528    0.000000    1.000000
    57  Na    c     6.864005    0.003230   -2.283528    0.000000    1.000000
    58  Na    c     2.253894    4.489132    6.305995    0.000000    1.000000
    59  Na    c     2.253894   -4.467290   -1.819625    0.000000    1.000000
    60  Na    c    -2.258490    0.000406    6.809606    0.000000    1.000000
    61  Na    c     6.766277    0.000406    6.809606    0.000000    1.000000
    62  Na    c     6.363646   -4.477517    2.231039    0.000000    1.000000
    63  Na    c    -1.855859   -4.477517    2.231039    0.000000    1.000000
    64  Na    c     2.253894   -4.473600    6.354199    0.000000    1.000000
    65  O     c     2.253894    6.813433    2.277474    0.000000    0.183000
    66  O     c    -2.250563    2.265475   -2.258888    0.000000    0.183000
    67  O     c     6.758350    2.265475   -2.258888    0.000000    0.183000
    68  O     c    -2.259771   -2.258771   -2.251790    0.000000    0.183000
    69  O     c     6.767558   -2.258771   -2.251790    0.000000    0.183000
    70  O     c    -2.261056    2.260769    6.763300    0.000000    0.183000
    71  O     c     6.768844    2.260769    6.763300    0.000000    0.183000
    72  O     c    -2.255963   -2.259996    6.767370    0.000000    0.183000
    73  O     c     6.763750   -2.259996    6.767370    0.000000    0.183000
    74  O     c     2.253894   -6.802236    2.255380    0.000000    0.183000
    75  Na    c     2.253894    2.507247   -4.468685    0.000000    1.000000
    76  Na    c     2.253894    6.564998    0.035520    0.000000    1.000000
    77  Cl    c     4.520706    0.018307   -4.513357    0.000000    1.485000
    78  Cl    c    -0.012919    0.018307   -4.513357    0.000000    1.485000
    79  Na    c     4.501417    6.946532    2.236743    0.000000    1.000000
    80  Na    c     0.006370    6.946532    2.236743    0.000000    1.000000
    81  Na    c     2.253894   -2.594545   -4.452176    0.000000    1.000000
    82  Na    c     2.253894    7.120330    4.516596    0.000000    1.000000
    83  Cl    c     9.020154   -0.008347   -0.028659    0.000000    1.485000
    84  Cl    c    -4.512366   -0.008347   -0.028659    0.000000    1.485000
    85  Na    c     8.968502    2.628287    2.350918    0.000000    1.000000
    86  Na    c    -4.460715    2.628287    2.350918    0.000000    1.000000
    87  Cl    c     9.040510    0.003001    4.538162    0.000000    1.485000
    88  Cl    c    -4.532723    0.003001    4.538162    0.000000    1.485000
    89  Na    c     8.977469   -2.624705    2.278591    0.000000    1.000000
    90  Na    c    -4.469682   -2.624705    2.278591    0.000000    1.000000
    91  Na    c     2.253894    2.663070    8.988999    0.000000    1.000000
    92  Na    c     2.253894   -6.920238    0.006701    0.000000    1.000000
    93  Cl    c     4.546336   -0.002820    9.033666    0.000000    1.485000
    94  Cl    c    -0.038548   -0.002820    9.033666    0.000000    1.485000
    95  Na    c     4.501747   -6.904618    2.266693    0.000000    1.000000
    96  Na    c     0.006040   -6.904618    2.266693    0.000000    1.000000
    97  Na    c     2.253894   -2.634633    8.980529    0.000000    1.000000
    98  Na    c     2.253894   -6.907717    4.500444    0.000000    1.000000
    99  Na    c     6.577328    4.511391   -2.257529    0.000000    1.000000
   100  Na    c    -2.069541    4.511391   -2.257529    0.000000    1.000000
   101  Na    c     6.787856    4.510409    6.696996    0.000000    1.000000
   102  Na    c    -2.280069    4.510409    6.696996    0.000000    1.000000
   103  Na    c     6.701287   -4.509357   -2.164585    0.000000    1.000000
   104  Na    c    -2.193500   -4.509357   -2.164585    0.000000    1.000000
   105  O     c     2.253894    6.756814   -2.225063    0.000000    0.183000
   106  Na    c     6.711085   -4.508701    6.724569    0.000000    1.000000
   107  Na    c    -2.203298   -4.508701    6.724569    0.000000    1.000000
   108  O     c    -2.240173    6.727501    2.249512    0.000000    0.183000
   109  O     c     6.747960    6.727501    2.249512    0.000000    0.183000
   110  O     c     2.253894    6.743691    6.752608    0.000000    0.183000
   111  O     c     2.253894   -6.727537   -2.243568    0.000000    0.183000
   112  O     c     6.753059   -6.734590    2.253971    0.000000    0.183000
   113  O     c    -2.245272   -6.734590    2.253971    0.000000    0.183000
   114  Cl    c     4.516239    4.509422   -4.546790    0.000000    1.485000
   115  Cl    c    -0.008452    4.509422   -4.546790    0.000000    1.485000
   116  Na    c     4.506222    6.825803   -2.173399    0.000000    1.000000
   117  Na    c     0.001565    6.825803   -2.173399    0.000000    1.000000
   118  Na    c     6.644169    2.260732   -4.506042    0.000000    1.000000
   119  Na    c    -2.136382    2.260732   -4.506042    0.000000    1.000000
   120  Na    c    -2.321335    6.674149   -0.002173    0.000000    1.000000
   121  Na    c     6.829122    6.674149   -0.002173    0.000000    1.000000
   122  O     c     2.253894   -6.730440    6.748687    0.000000    0.183000
   123  Cl    c     9.073706    4.518463   -0.014287    0.000000    1.485000
   124  Cl    c    -4.565919    4.518463   -0.014287    0.000000    1.485000
   125  Na    c     9.001889    2.404436   -2.341777    0.000000    1.000000
   126  Na    c    -4.494102    2.404436   -2.341777    0.000000    1.000000
   127  Na    c    -2.215401   -2.311128   -4.499719    0.000000    1.000000
   128  Na    c     6.723189   -2.311128   -4.499719    0.000000    1.000000
   129  Na    c    -2.199041    6.734901    4.506707    0.000000    1.000000
   130  Na    c     6.706828    6.734901    4.506707    0.000000    1.000000
   131  Cl    c     4.542491   -4.514075   -4.563650    0.000000    1.485000
   132  Cl    c    -0.034704   -4.514075   -4.563650    0.000000    1.485000
   133  Cl    c     9.058938    4.533078    4.562491    0.000000    1.485000
   134  Cl    c    -4.551151    4.533078    4.562491    0.000000    1.485000
   135  Na    c     4.509197    6.677932    6.768048    0.000000    1.000000
   136  Na    c    -0.001410    6.677932    6.768048    0.000000    1.000000
   137  Na    c     9.013169   -2.342623   -2.264687    0.000000    1.000000
   138  Na    c    -4.505381   -2.342623   -2.264687    0.000000    1.000000
   139  Cl    c     4.536973    4.523372    9.062720    0.000000    1.485000
   140  Cl    c    -0.029186    4.523372    9.062720    0.000000    1.485000
   141  Na    c     4.506097   -6.718831   -2.250153    0.000000    1.000000
   142  Na    c     0.001690   -6.718831   -2.250153    0.000000    1.000000
   143  Na    c     9.016355    2.236117    6.643892    0.000000    1.000000
   144  Na    c    -4.508567    2.236117    6.643892    0.000000    1.000000
   145  Cl    c     9.064547   -4.511715   -0.038705    0.000000    1.485000
   146  Cl    c    -4.556760   -4.511715   -0.038705    0.000000    1.485000
   147  Na    c    -2.326286    2.311831    9.010398    0.000000    1.000000
   148  Na    c     6.834074    2.311831    9.010398    0.000000    1.000000
   149  Na    c     6.725492   -6.759143    0.000078    0.000000    1.000000
   150  Na    c    -2.217705   -6.759143    0.000078    0.000000    1.000000
   151  Na    c     9.012247   -2.281563    6.721608    0.000000    1.000000
   152  Na    c    -4.504459   -2.281563    6.721608    0.000000    1.000000
   153  Cl    c     9.064737   -4.526658    4.540443    0.000000    1.485000
   154  Cl    c    -4.556949   -4.526658    4.540443    0.000000    1.485000
   155  Na    c     6.770720   -2.303209    9.014044    0.000000    1.000000
   156  Na    c    -2.262933   -2.303209    9.014044    0.000000    1.000000
   157  Na    c     6.770875   -6.699789    4.508434    0.000000    1.000000
   158  Na    c    -2.263088   -6.699789    4.508434    0.000000    1.000000
   159  Na    c     4.509659   -6.723053    6.739565    0.000000    1.000000
   160  Na    c    -0.001872   -6.723053    6.739565    0.000000    1.000000
   161  Cl    c     4.542195   -4.517663    9.062386    0.000000    1.485000
   162  Cl    c    -0.034408   -4.517663    9.062386    0.000000    1.485000
   163  Na    c     2.253894    9.049115    1.998477    0.000000    1.000000
   164  Na    c     2.253894   -0.002876   -6.447366    0.000000    1.000000
   165  Na    c    10.922295    0.000390    2.234251    0.000000    1.000000
   166  Na    c    -6.414508    0.000390    2.234251    0.000000    1.000000
   167  O     c    -2.259506    6.763968   -2.261331    0.000000    0.183000
   168  O     c     6.767293    6.763968   -2.261331    0.000000    0.183000
   169  O     c     2.253894    2.247122   -6.730730    0.000000    0.183000
   170  Na    c     2.253894    0.000584   10.926875    0.000000    1.000000
   171  Na    c     2.253894   -9.051085    2.255712    0.000000    1.000000
   172  O     c     2.253894   -2.251613   -6.719852    0.000000    0.183000
   173  O     c    -2.262450    6.766232    6.769120    0.000000    0.183000
   174  O     c     6.770237    6.766232    6.769120    0.000000    0.183000
   175  O     c    11.224198    2.250880    2.249885    0.000000    0.183000
   176  O     c    -6.716411    2.250880    2.249885    0.000000    0.183000
   177  O     c     6.767541   -6.765261   -2.261091    0.000000    0.183000
   178  O     c    -2.259754   -6.765261   -2.261091    0.000000    0.183000
   179  O     c    11.230450   -2.249637    2.256851    0.000000    0.183000
   180  O     c    -6.722663   -2.249637    2.256851    0.000000    0.183000
   181  Na    c     2.253894    6.707155   -4.486974    0.000000    1.000000
   182  O     c     2.253894    2.252440   11.230517    0.000000    0.183000
   183  Cl    c     4.477717    9.046352    0.004251    0.000000    1.485000
   184  Cl    c     0.030070    9.046352    0.004251    0.000000    1.485000
   185  Na    c     4.501057    2.215434   -6.776804    0.000000    1.000000
   186  Na    c     0.006730    2.215434   -6.776804    0.000000    1.000000
   187  O     c     2.253894   -2.251479   11.230072    0.000000    0.183000
   188  O     c     6.771604   -6.764690    6.770903    0.000000    0.183000
   189  O     c    -2.263816   -6.764690    6.770903    0.000000    0.183000
   190  Cl    c     4.531967    9.033569    4.489636    0.000000    1.485000
   191  Cl    c    -0.024179    9.033569    4.489636    0.000000    1.485000
   192  Cl    c     9.030699   -0.000501   -4.524865    0.000000    1.485000
   193  Cl    c    -4.522911   -0.000501   -4.524865    0.000000    1.485000
   194  Na    c     9.003310    6.524109    2.314920    0.000000    1.000000
   195  Na    c    -4.495522    6.524109    2.314920    0.000000    1.000000
   196  Na    c     4.503469   -2.205358   -6.730195    0.000000    1.000000
   197  Na    c     0.004319   -2.205358   -6.730195    0.000000    1.000000
   198  Na    c    11.142580    2.206703   -0.003039    0.000000    1.000000
   199  Na    c    -6.634793    2.206703   -0.003039    0.000000    1.000000
   200  Na    c     2.253894    6.497518    9.008035    0.000000    1.000000
   201  Na    c     2.253894   -6.523640   -4.495117    0.000000    1.000000
   202  Na    c    11.220271   -2.243636    0.003053    0.000000    1.000000
   203  Na    c    -6.712484   -2.243636    0.003053    0.000000    1.000000
   204  Na    c    11.324145    2.189401    4.498918    0.000000    1.000000
   205  Na    c    -6.816358    2.189401    4.498918    0.000000    1.000000
   206  Na    c    11.259990   -2.151748    4.506815    0.000000    1.000000
   207  Na    c    -6.752203   -2.151748    4.506815    0.000000    1.000000
   208  Na    c     4.510284    2.204308   11.214079    0.000000    1.000000
   209  Na    c    -0.002497    2.204308   11.214079    0.000000    1.000000
   210  Cl    c     4.485877   -9.021628    0.024092    0.000000    1.485000
   211  Cl    c     0.021910   -9.021628    0.024092    0.000000    1.485000
   212  Cl    c     9.025376    0.002222    9.030049    0.000000    1.485000
   213  Cl    c    -4.517589    0.002222    9.030049    0.000000    1.485000
   214  Na    c     9.005695   -6.542581    2.231662    0.000000    1.000000
   215  Na    c    -4.497908   -6.542581    2.231662    0.000000    1.000000
   216  Na    c     4.506993   -2.208728   11.233738    0.000000    1.000000
   217  Na    c     0.000794   -2.208728   11.233738    0.000000    1.000000
   218  Cl    c     4.483507   -9.025247    4.486791    0.000000    1.485000
   219  Cl    c     0.024280   -9.025247    4.486791    0.000000    1.485000
   220  Na    c     2.253894   -6.540298    9.003500    0.000000    1.000000
   221  Na    c     2.253894    9.014685   -2.167995    0.000000    1.000000
   222  Na    c     2.253894    4.501266   -6.868030    0.000000    1.000000
   223  Na    c    -2.389163    8.994841    2.243242    0.000000    1.000000
   224  Na    c     6.896950    8.994841    2.243242    0.000000    1.000000
   225  Na    c    -2.331070   -0.002099   -6.730491    0.000000    1.000000
   226  Na    c     6.838858   -0.002099   -6.730491    0.000000    1.000000
   227  Na    c     2.253894    8.999392    6.988323    0.000000    1.000000
   228  Na    c    11.479296    4.491067    2.212976    0.000000    1.000000
   229  Na    c    -6.971509    4.491067    2.212976    0.000000    1.000000
   230  Na    c    11.184701    0.004421   -2.296397    0.000000    1.000000
   231  Na    c    -6.676914    0.004421   -2.296397    0.000000    1.000000
   232  Na    c     2.253894   -4.492566   -6.956223    0.000000    1.000000
   233  Na    c     2.253894    4.489383   11.513309    0.000000    1.000000
   234  Na    c    11.247196   -0.001079    6.873643    0.000000    1.000000
   235  Na    c    -6.739409   -0.001079    6.873643    0.000000    1.000000
   236  Na    c     2.253894   -8.994744   -2.377007    0.000000    1.000000
   237  Na    c    11.480424   -4.490777    2.299346    0.000000    1.000000
   238  Na    c    -6.972637   -4.490777    2.299346    0.000000    1.000000
   239  O     c     6.755561    2.250184   -6.760881    0.000000    0.183000
   240  O     c    -2.247774    2.250184   -6.760881    0.000000    0.183000
   241  Na    c    -2.310343    0.000845   11.218252    0.000000    1.000000
   242  Na    c     6.818130    0.000845   11.218252    0.000000    1.000000
   243  Na    c    -2.368655   -8.998032    2.267480    0.000000    1.000000
   244  Na    c     6.876443   -8.998032    2.267480    0.000000    1.000000
   245  O     c    11.262876    2.260756   -2.256953    0.000000    0.183000
   246  O     c    -6.755089    2.260756   -2.256953    0.000000    0.183000
   247  O     c    -2.250576   -2.252262   -6.760231    0.000000    0.183000
   248  O     c     6.758363   -2.252262   -6.760231    0.000000    0.183000
   249  Na    c     2.253894   -4.491488   11.486990    0.000000    1.000000
[...]
    238 y          2.253894      2.248311    -0.005583    Cartesian   -0.25
    238 z          6.761681      6.752871    -0.008810    Cartesian   -0.13
    239 x         -2.253894     -2.222688     0.031206    Cartesian   -1.38
    239 y         -2.253894     -2.235138     0.018756    Cartesian   -0.83
    239 z          2.253894      2.259680     0.005787    Cartesian    0.26
    240 x          2.253894      2.253894     0.000000    Cartesian    0.00
    240 y         -2.253894     -2.231289     0.022605    Cartesian   -1.00
    240 z          6.761681      6.736482    -0.025199    Cartesian   -0.37
    241 x          4.507787      4.569268     0.061481    Cartesian    1.36
    241 y          4.507787      4.633030     0.125243    Cartesian    2.78
    241 z          0.000000     -0.122772    -0.122772    Cartesian    0.00
    242 x          4.507787      4.624090     0.116302    Cartesian    2.58
    242 y          4.507787      4.612428     0.104640    Cartesian    2.32
    242 z          4.507787      4.622324     0.114537    Cartesian    2.54
    243 x          4.507787      4.617792     0.110005    Cartesian    2.44
    243 y         -4.507787     -4.640990    -0.133202    Cartesian    2.95
    243 z          0.000000     -0.098888    -0.098888    Cartesian    0.00
    244 x          4.507787      4.623018     0.115230    Cartesian    2.56
    244 y         -4.507787     -4.621603    -0.113816    Cartesian    2.52
    244 z          4.507787      4.618258     0.110471    Cartesian    2.45
    245 x          2.253894      2.253894     0.000000    Cartesian    0.00
    245 y          6.761681      6.813535     0.051855    Cartesian    0.77
    245 z          2.253894      2.277444     0.023550    Cartesian    1.04
    246 x         -2.253894     -2.250554     0.003339    Cartesian   -0.15
    246 y          2.253894      2.265481     0.011588    Cartesian    0.51
    246 z         -2.253894     -2.258907    -0.005014    Cartesian    0.22
    247 x         -2.253894     -2.259783    -0.005890    Cartesian    0.26
    247 y         -2.253894     -2.258782    -0.004889    Cartesian    0.22
    247 z         -2.253894     -2.251788     0.002105    Cartesian   -0.09
    248 x         -2.253894     -2.261059    -0.007165    Cartesian    0.32
    248 y          2.253894      2.260777     0.006884    Cartesian    0.31
    248 z          6.761681      6.763294     0.001613    Cartesian    0.02
    249 x         -2.253894     -2.255959    -0.002066    Cartesian    0.09
    249 y         -2.253894     -2.260006    -0.006113    Cartesian    0.27
    249 z          6.761681      6.767372     0.005691    Cartesian    0.08
    250 x          2.253894      2.253894     0.000000    Cartesian    0.00
    250 y         -6.761681     -6.802365    -0.040684    Cartesian    0.60
    250 z          2.253894      2.255387     0.001493    Cartesian    0.07
    251 x          4.507787      4.515333     0.007546    Cartesian    0.17
    251 y          0.000000      0.021166     0.021166    Cartesian    0.00
    251 z         -4.507787     -4.516246    -0.008458    Cartesian    0.19
    252 x          9.015574      9.022085     0.006510    Cartesian    0.07
    252 y          0.000000     -0.007957    -0.007957    Cartesian    0.00
    252 z          0.000000     -0.021493    -0.021493    Cartesian    0.00
    253 x          9.015574      9.044303     0.028728    Cartesian    0.32
    253 y          0.000000      0.003414     0.003414    Cartesian    0.00
    253 z          4.507787      4.532643     0.024855    Cartesian    0.55
    254 x          4.507787      4.539360     0.031573    Cartesian    0.70
    254 y          0.000000     -0.003246    -0.003246    Cartesian    0.00
    254 z          9.015574      9.035841     0.020266    Cartesian    0.22
    255 x          2.253894      2.253894     0.000000    Cartesian    0.00
    255 y          6.761681      6.756811    -0.004870    Cartesian   -0.07
    255 z         -2.253894     -2.225026     0.028868    Cartesian   -1.28
    256 x         -2.253894     -2.240130     0.013764    Cartesian   -0.61
    256 y          6.761681      6.727531    -0.034149    Cartesian   -0.51
    256 z          2.253894      2.249514    -0.004379    Cartesian   -0.19
    257 x          2.253894      2.253894     0.000000    Cartesian    0.00
    257 y          6.761681      6.743733    -0.017948    Cartesian   -0.27
    257 z          6.761681      6.752588    -0.009093    Cartesian   -0.13
    258 x          2.253894      2.253894     0.000000    Cartesian    0.00
    258 y         -6.761681     -6.727572     0.034109    Cartesian   -0.50
    258 z         -2.253894     -2.243527     0.010367    Cartesian   -0.46
    259 x          6.761681      6.753014    -0.008667    Cartesian   -0.13
    259 y         -6.761681     -6.734620     0.027061    Cartesian   -0.40
    259 z          2.253894      2.253966     0.000073    Cartesian    0.00
    260 x          4.507787      4.518862     0.011075    Cartesian    0.25
    260 y          4.507787      4.506471    -0.001316    Cartesian   -0.03
    260 z         -4.507787     -4.550341    -0.042554    Cartesian    0.94
    261 x          2.253894      2.253894     0.000000    Cartesian    0.00
    261 y         -6.761681     -6.730468     0.031213    Cartesian   -0.46
    261 z          6.761681      6.748634    -0.013046    Cartesian   -0.19
    262 x          9.015574      9.080703     0.065128    Cartesian    0.72
    262 y          4.507787      4.519460     0.011672    Cartesian    0.26
    262 z          0.000000     -0.012244    -0.012244    Cartesian    0.00
    263 x          4.507787      4.541632     0.033845    Cartesian    0.75
    263 y         -4.507787     -4.514189    -0.006402    Cartesian    0.14
    263 z         -4.507787     -4.570468    -0.062680    Cartesian    1.39
    264 x          9.015574      9.063102     0.047527    Cartesian    0.53
    264 y          4.507787      4.533104     0.025317    Cartesian    0.56
    264 z          4.507787      4.560439     0.052652    Cartesian    1.17
    265 x          4.507787      4.530980     0.023193    Cartesian    0.51
    265 y          4.507787      4.523669     0.015882    Cartesian    0.35
    265 z          9.015574      9.067334     0.051759    Cartesian    0.57
    266 x          9.015574      9.070554     0.054980    Cartesian    0.61
    266 y         -4.507787     -4.510514    -0.002727    Cartesian    0.06
    266 z          0.000000     -0.038271    -0.038271    Cartesian    0.00
    267 x          9.015574      9.069937     0.054363    Cartesian    0.60
    267 y         -4.507787     -4.527038    -0.019250    Cartesian    0.43
    267 z          4.507787      4.538384     0.030597    Cartesian    0.68
    268 x          4.507787      4.540130     0.032343    Cartesian    0.72
    268 y         -4.507787     -4.517000    -0.009212    Cartesian    0.20
    268 z          9.015574      9.067563     0.051989    Cartesian    0.58
    269 x         -2.253894     -2.259503    -0.005609    Cartesian    0.25
    269 y          6.761681      6.763964     0.002284    Cartesian    0.03
    269 z         -2.253894     -2.261339    -0.007445    Cartesian    0.33
    270 x          2.253894      2.253894     0.000000    Cartesian    0.00
    270 y          2.253894      2.247147    -0.006746    Cartesian   -0.30
    270 z         -6.761681     -6.730735     0.030946    Cartesian   -0.46
    271 x          2.253894      2.253894     0.000000    Cartesian    0.00
    271 y         -2.253894     -2.251639     0.002255    Cartesian   -0.10
    271 z         -6.761681     -6.719874     0.041807    Cartesian   -0.62
    272 x         -2.253894     -2.262463    -0.008569    Cartesian    0.38
    272 y          6.761681      6.766222     0.004541    Cartesian    0.07
    272 z          6.761681      6.769124     0.007443    Cartesian    0.11
    273 x         11.269468     11.224212    -0.045256    Cartesian   -0.40
    273 y          2.253894      2.250914    -0.002979    Cartesian   -0.13
    273 z          2.253894      2.249888    -0.004006    Cartesian   -0.18
    274 x          6.761681      6.767544     0.005864    Cartesian    0.09
    274 y         -6.761681     -6.765254    -0.003573    Cartesian    0.05
    274 z         -2.253894     -2.261093    -0.007200    Cartesian    0.32
    275 x         11.269468     11.230461    -0.039008    Cartesian   -0.35
    275 y         -2.253894     -2.249672     0.004221    Cartesian   -0.19
    275 z          2.253894      2.256856     0.002962    Cartesian    0.13
    276 x          2.253894      2.253894     0.000000    Cartesian    0.00
    276 y          2.253894      2.252483    -0.001411    Cartesian   -0.06
    276 z         11.269468     11.230520    -0.038948    Cartesian   -0.35
    277 x          4.507787      4.468962    -0.038825    Cartesian   -0.86
    277 y          9.015574      9.046319     0.030745    Cartesian    0.34
    277 z          0.000000      0.008302     0.008302    Cartesian    0.00
    278 x          2.253894      2.253894     0.000000    Cartesian    0.00
    278 y         -2.253894     -2.251521     0.002373    Cartesian   -0.11
    278 z         11.269468     11.230079    -0.039389    Cartesian   -0.35
    279 x          6.761681      6.771613     0.009933    Cartesian    0.15
    279 y         -6.761681     -6.764675    -0.002995    Cartesian    0.04
    279 z          6.761681      6.770915     0.009234    Cartesian    0.14
    280 x          4.507787      4.529274     0.021487    Cartesian    0.48
    280 y          9.015574      9.030194     0.014619    Cartesian    0.16
    280 z          4.507787      4.485953    -0.021834    Cartesian   -0.48
    281 x          9.015574      9.032426     0.016851    Cartesian    0.19
    281 y          0.000000     -0.000702    -0.000702    Cartesian    0.00
    281 z         -4.507787     -4.526054    -0.018267    Cartesian    0.41
    282 x          4.507787      4.481083    -0.026704    Cartesian   -0.59
    282 y         -9.015574     -9.018769    -0.003194    Cartesian    0.04
    282 z          0.000000      0.029227     0.029227    Cartesian    0.00
    283 x          9.015574      9.026048     0.010473    Cartesian    0.12
    283 y          0.000000      0.002749     0.002749    Cartesian    0.00
    283 z          9.015574      9.031519     0.015944    Cartesian    0.18
    284 x          4.507787      4.478066    -0.029721    Cartesian   -0.66
    284 y         -9.015574     -9.023262    -0.007688    Cartesian    0.09
    284 z          4.507787      4.481784    -0.026004    Cartesian   -0.58
    285 x          6.761681      6.755554    -0.006127    Cartesian   -0.09
    285 y          2.253894      2.250181    -0.003712    Cartesian   -0.16
    285 z         -6.761681     -6.760874     0.000807    Cartesian   -0.01
    286 x         11.269468     11.262866    -0.006602    Cartesian   -0.06
    286 y          2.253894      2.260779     0.006886    Cartesian    0.31
    286 z         -2.253894     -2.256970    -0.003076    Cartesian    0.14
    287 x         -2.253894     -2.250577     0.003317    Cartesian   -0.15
    287 y         -2.253894     -2.252267     0.001627    Cartesian   -0.07
    287 z         -6.761681     -6.760227     0.001454    Cartesian   -0.02
    288 x         11.269468     11.268736    -0.000732    Cartesian   -0.01
    288 y         -2.253894     -2.252495     0.001399    Cartesian   -0.06
    288 z         -2.253894     -2.254408    -0.000514    Cartesian    0.02
    289 x         11.269468     11.271610     0.002142    Cartesian    0.02
    289 y          2.253894      2.246580    -0.007313    Cartesian   -0.32
    289 z          6.761681      6.755762    -0.005919    Cartesian   -0.09
    290 x         -2.253894     -2.259296    -0.005402    Cartesian    0.24
    290 y          2.253894      2.252652    -0.001242    Cartesian   -0.06
    290 z         11.269468     11.269967     0.000499    Cartesian    0.00
    291 x         11.269468     11.271256     0.001788    Cartesian    0.02
    291 y         -2.253894     -2.249140     0.004754    Cartesian   -0.21
    291 z          6.761681      6.761195    -0.000486    Cartesian   -0.01
    292 x          9.015574      9.058453     0.042879    Cartesian    0.48
    292 y          4.507787      4.513241     0.005453    Cartesian    0.12
    292 z         -4.507787     -4.529451    -0.021664    Cartesian    0.48
    293 x         -2.253894     -2.255628    -0.001734    Cartesian    0.08
    293 y         -2.253894     -2.251083     0.002811    Cartesian   -0.12
    293 z         11.269468     11.271103     0.001635    Cartesian    0.01
    294 x          9.015574      9.047921     0.032346    Cartesian    0.36
    294 y         -4.507787     -4.503776     0.004012    Cartesian   -0.09
    294 z         -4.507787     -4.528060    -0.020273    Cartesian    0.45
    295 x          9.015574      9.031023     0.015449    Cartesian    0.17
    295 y          4.507787      4.510825     0.003038    Cartesian    0.07
    295 z          9.015574      9.061484     0.045910    Cartesian    0.51
    296 x          9.015574      9.037249     0.021675    Cartesian    0.24
    296 y         -4.507787     -4.508204    -0.000417    Cartesian    0.01
    296 z          9.015574      9.048574     0.033000    Cartesian    0.37
    297 x          2.253894      2.253894     0.000000    Cartesian    0.00
    297 y          6.761681      6.756946    -0.004735    Cartesian   -0.07
    297 z         -6.761681     -6.763229    -0.001548    Cartesian    0.02
    298 x          2.253894      2.253894     0.000000    Cartesian    0.00
    298 y         11.269468     11.275068     0.005600    Cartesian    0.05
    298 z          2.253894      2.238098    -0.015796    Cartesian   -0.70
    299 x         11.269468     11.270913     0.001445    Cartesian    0.01
    299 y          6.761681      6.743411    -0.018269    Cartesian   -0.27
    299 z          2.253894      2.254851     0.000958    Cartesian    0.04
    300 x          2.253894      2.253894     0.000000    Cartesian    0.00
    300 y         -6.761681     -6.745076     0.016604    Cartesian   -0.25
    300 z         -6.761681     -6.762767    -0.001086    Cartesian    0.02
    301 x          2.253894      2.253894     0.000000    Cartesian    0.00
    301 y          6.761681      6.739613    -0.022068    Cartesian   -0.33
    301 z         11.269468     11.273233     0.003765    Cartesian    0.03
    302 x          4.507787      4.536244     0.028457    Cartesian    0.63
    302 y          9.015574      9.027798     0.012224    Cartesian    0.14
    302 z         -4.507787     -4.539645    -0.031857    Cartesian    0.71
    303 x         11.269468     11.273422     0.003954    Cartesian    0.04
    303 y         -6.761681     -6.743201     0.018480    Cartesian   -0.27
    303 z          2.253894      2.255809     0.001916    Cartesian    0.08
    304 x          4.507787      4.489676    -0.018111    Cartesian   -0.40
    304 y          0.000000      0.002131     0.002131    Cartesian    0.00
    304 z         -9.015574     -9.079949    -0.064375    Cartesian    0.71
    305 x          9.015574      9.019727     0.004152    Cartesian    0.05
    305 y          9.015574      9.079445     0.063871    Cartesian    0.71
    305 z          0.000000     -0.005375    -0.005375    Cartesian    0.00
    306 x          2.253894      2.253894     0.000000    Cartesian    0.00
    306 y        -11.269468    -11.279666    -0.010198    Cartesian    0.09
    306 z          2.253894      2.253091    -0.000803    Cartesian   -0.04
    307 x          9.015574      9.034288     0.018714    Cartesian    0.21
    307 y          9.015574      9.048502     0.032927    Cartesian    0.37
    307 z          4.507787      4.516667     0.008880    Cartesian    0.20
    308 x          2.253894      2.253894     0.000000    Cartesian    0.00
    308 y         -6.761681     -6.742525     0.019156    Cartesian   -0.28
    308 z         11.269468     11.273456     0.003988    Cartesian    0.04
    309 x          4.507787      4.500037    -0.007750    Cartesian   -0.17
    309 y          9.015574      9.076133     0.060559    Cartesian    0.67
    309 z          9.015574      9.028321     0.012747    Cartesian    0.14
    310 x         13.523362     13.611514     0.088153    Cartesian    0.65
    310 y          0.000000     -0.001997    -0.001997    Cartesian    0.00
    310 z          0.000000      0.036291     0.036291    Cartesian    0.00
    311 x         13.523362     13.579465     0.056104    Cartesian    0.41
    311 y          0.000000      0.003647     0.003647    Cartesian    0.00
    311 z          4.507787      4.492050    -0.015737    Cartesian   -0.35
    312 x          4.507787      4.518671     0.010883    Cartesian    0.24
    312 y         -9.015574     -9.064515    -0.048941    Cartesian    0.54
    312 z         -4.507787     -4.518369    -0.010582    Cartesian    0.23
    313 x          9.015574      9.026281     0.010706    Cartesian    0.12
    313 y         -9.015574     -9.054906    -0.039332    Cartesian    0.44
    313 z          0.000000     -0.008649    -0.008649    Cartesian    0.00
    314 x          4.507787      4.481972    -0.025815    Cartesian   -0.57
    314 y          0.000000     -0.002257    -0.002257    Cartesian    0.00
    314 z         13.523362     13.595112     0.071750    Cartesian    0.53
    315 x          9.015574      9.034640     0.019066    Cartesian    0.21
    315 y         -9.015574     -9.064656    -0.049082    Cartesian    0.54
    315 z          4.507787      4.519521     0.011734    Cartesian    0.26
    316 x          4.507787      4.519432     0.011645    Cartesian    0.26
    316 y         -9.015574     -9.058074    -0.042500    Cartesian    0.47
    316 z          9.015574      9.030520     0.014946    Cartesian    0.17
    317 x          2.253894      2.253894     0.000000    Cartesian    0.00
    317 y         11.269468     11.281450     0.011982    Cartesian    0.11
    317 z         -2.253894     -2.255171    -0.001278    Cartesian    0.06
    318 x         -2.253894     -2.254427    -0.000534    Cartesian    0.02
    318 y          6.761681      6.765261     0.003580    Cartesian    0.05
    318 z         -6.761681     -6.766331    -0.004650    Cartesian    0.07
--------------------------------------------------------------------------------


  Time to end of optimisation  =       68.3005 seconds


  Peak dynamic memory used =      92.15 MB 


  Timing analysis for GULP :

--------------------------------------------------------------------------------
  Task / Subroutine                                          Time (Seconds)
--------------------------------------------------------------------------------
  Calculation of reciprocal space energy and derivatives          0.0005
  Calculation of reciprocal space energy using symmetry           0.0008
  Calculation of real space energy and derivatives                0.0032
  Calculation of real space energy using symmetry                 0.0076
  Calculation for region 1 energy and derivatives (2-b)          37.2762
  Calculation for region 2a energy                               28.0808
  Calculation for region 2b energy                                0.0105
  Calculation and manipulation of Hessian matrix                  0.1220
  Calculation of matrix inversion                                 2.5269
  Symmetry generation of equivalent positions                     0.0038
--------------------------------------------------------------------------------
  Total CPU time                                                 68.3006
--------------------------------------------------------------------------------


  Dump file written as Na3OCl.grs


  Job Finished at 10:50.45  4th December   2020                               

