********************************************************************************
*                       GENERAL UTILITY LATTICE PROGRAM                        *
*                                 Julian Gale                                  *
*                       Curtin Institute for Computation                       *
*                    School of Molecular and Life Sciences                     *
*                    Curtin University, Western Australia                      *
********************************************************************************
* Version = 5.2.0 * Last modified =  10th September 2020                       *
********************************************************************************
*  optimise     - perform optimisation run                                     *
*  conp         - constant pressure calculation                                *
*  property     - calculate properties for final geometry                      *
*  defect       - perform defect calculation after bulk run                    *
*  compare      - compare initial and final structures                         *
********************************************************************************

  Job Started  at 10:50.03  4th December   2020                               

  Number of CPUs =     1


  Total number of configurations input =      1

********************************************************************************
*  Input for Configuration =   1                                               *
********************************************************************************

  Formula = ClONa3                                                      

  Number of irreducible atoms/shells =       5


  Total number atoms/shells =       7

  Dimensionality = 3               :  Bulk   


  Symmetry :

  Crystal family                   :  Cubic       
  Crystal class  (Groth - 1921)    :  Cubic Hexakisoctahedral              

  Space group (centrosymmetric)    :  P M 3 M         

  Patterson group                  :  P m -3 m 

  Cartesian lattice vectors (Angstroms) :

        4.504000    0.000000    0.000000
        0.000000    4.504000    0.000000
        0.000000    0.000000    4.504000

  Cell parameters (Angstroms/Degrees):

  a =       4.5040    alpha =  90.0000
  b =       4.5040    beta  =  90.0000
  c =       4.5040    gamma =  90.0000

  Initial cell volume =          91.368216 Angs**3

  Temperature of configuration =   0.00     K 

  Pressure of configuration =         0.000 GPa 

  Fractional coordinates of asymmetric unit :

--------------------------------------------------------------------------------
   No.  Atomic       x           y          z         Charge      Occupancy
        Label      (Frac)      (Frac)     (Frac)        (e)         (Frac)  
--------------------------------------------------------------------------------
      1 Cl    c    0.000000    0.000000    0.000000     1.48500    1.000000    
      2 O     c    0.500000    0.500000    0.500000     0.18300    1.000000    
      3 Na    c    0.500000    0.500000    0.000000     1.00000    1.000000    
      4 Cl    s    0.000000    0.000000    0.000000    -2.48500    1.000000    
      5 O     s    0.500000    0.500000    0.500000    -2.18300    1.000000    
--------------------------------------------------------------------------------


  Constraints : 

--------------------------------------------------------------------------------
  Constraint no.      Unconstrained     Constrained    Coefficient    Offset
                         Variable         Variable
--------------------------------------------------------------------------------
           1              Strain 1        Strain 2       1.00000      0.0000
           2              Strain 1        Strain 3       1.00000      0.0000
--------------------------------------------------------------------------------


********************************************************************************
*  General input information                                                   *
********************************************************************************

  Species output for all configurations : 

--------------------------------------------------------------------------------
  Species    Type    Atomic    Atomic    Charge       Radii (Angs)     Library
                     Number     Mass       (e)     Cova   Ionic  VDW   Symbol
--------------------------------------------------------------------------------
    Na       Core       11      22.99   1.000000   0.970  0.000  2.300          
    O        Core        8      16.00   0.183000   0.730  0.000  1.360          
    O        Shell       8       0.00  -2.183000   0.730  0.000  1.360          
    Cl       Core       17      35.45   1.485000   0.990  0.000  1.650          
    Cl       Shell      17       0.00  -2.485000   0.990  0.000  1.650          
    Mg       Core       12      24.31   0.415000   1.100  0.000  0.000          
    Mg       Shell      12       0.00   1.585000   1.100  0.000  0.000          
    Ca       Core       20      40.08  -1.135000   0.990  0.000  0.000          
    Ca       Shell      20       0.00   3.135000   0.990  0.000  0.000          
    Sr       Core       38      87.62  -1.251000   1.120  0.000  0.000          
    Sr       Shell      38       0.00   3.251000   1.120  0.000  0.000          
    Ba       Core       56     137.33  -7.203000   1.340  0.000  0.000          
    Ba       Shell      56       0.00   9.203000   1.340  0.000  0.000          
--------------------------------------------------------------------------------


  Lattice summation method               =    Ewald          (3-D)
                                         =    Parry          (2-D)
                                         =    Saunders et al (1-D)
  Accuracy factor for lattice sums       =   12.000


  Analytic derivatives to be used

  Time limit = Infinity

  Maximum range for interatomic potentials =    100000.000000 Angstroms

  General interatomic potentials :

--------------------------------------------------------------------------------
Atom  Types   Potential      Parameter       Value         Units   Cutoffs(Ang)
  1     2                                                            Min /  Max 
--------------------------------------------------------------------------------
O    c O    s Spring (c-s)  Spring k 2       593.71600    eV*Ang^-2 0.000  0.800
                            Spring k 4       0.0000000    eV*Ang^-4 
--------------------------------------------------------------------------------
Cl   c Cl   s Spring (c-s)  Spring k 2       29.380000    eV*Ang^-2 0.000  0.800
                            Spring k 4       0.0000000    eV*Ang^-4 
--------------------------------------------------------------------------------
Mg   c Mg   s Spring (c-s)  Spring k 2       361.60000    eV*Ang^-2 0.000  0.800
                            Spring k 4       0.0000000    eV*Ang^-4 
--------------------------------------------------------------------------------
Ca   c Ca   s Spring (c-s)  Spring k 2       110.20000    eV*Ang^-2 0.000  0.800
                            Spring k 4       0.0000000    eV*Ang^-4 
--------------------------------------------------------------------------------
Sr   c Sr   s Spring (c-s)  Spring k 2       71.700000    eV*Ang^-2 0.000  0.800
                            Spring k 4       0.0000000    eV*Ang^-4 
--------------------------------------------------------------------------------
Ba   c Ba   s Spring (c-s)  Spring k 2       495.20000    eV*Ang^-2 0.000  0.800
                            Spring k 4       0.0000000    eV*Ang^-4 
--------------------------------------------------------------------------------
Na   c Na   c Buckingham    Buckingham A     1788.1900    eV        0.000 12.000
                            Buckingham rho  0.15900000    Ang       
                            Buckingham C     0.0000000    eV*Ang^6  
--------------------------------------------------------------------------------
Na   c O    s Buckingham    Buckingham A     1226.8400    eV        0.000 12.000
                            Buckingham rho  0.30700000    Ang       
                            Buckingham C     0.0000000    eV*Ang^6  
--------------------------------------------------------------------------------
Na   c Cl   s Buckingham    Buckingham A     2314.7000    eV        0.000 12.000
                            Buckingham rho  0.29000000    Ang       
                            Buckingham C     0.0000000    eV*Ang^6  
--------------------------------------------------------------------------------
O    s O    s Buckingham    Buckingham A     22764.300    eV        0.000 12.000
                            Buckingham rho  0.14900000    Ang       
                            Buckingham C     13.190000    eV*Ang^6  
--------------------------------------------------------------------------------
O    s Cl   s Buckingham    Buckingham A     8286.9100    eV        0.000 12.000
                            Buckingham rho  0.25900000    Ang       
                            Buckingham C     62.200000    eV*Ang^6  
--------------------------------------------------------------------------------
Cl   s Cl   s Buckingham    Buckingham A     1227.2000    eV        0.000 12.000
                            Buckingham rho  0.32100000    Ang       
                            Buckingham C     14.530000    eV*Ang^6  
--------------------------------------------------------------------------------
O    s Mg   s Buckingham    Buckingham A     1428.5000    eV        0.000 12.000
                            Buckingham rho  0.29450000    Ang       
                            Buckingham C     0.0000000    eV*Ang^6  
--------------------------------------------------------------------------------
Mg   s Cl   s Buckingham    Buckingham A     4914.5400    eV        0.000 12.000
                            Buckingham rho  0.25700000    Ang       
                            Buckingham C     0.0000000    eV*Ang^6  
--------------------------------------------------------------------------------
O    s Ca   s Buckingham    Buckingham A     1090.4000    eV        0.000 12.000
                            Buckingham rho  0.34370000    Ang       
                            Buckingham C     0.0000000    eV*Ang^6  
--------------------------------------------------------------------------------
Cl   s Ca   s Buckingham    Buckingham A     2302.0000    eV        0.000 12.000
                            Buckingham rho  0.34020000    Ang       
                            Buckingham C     0.0000000    eV*Ang^6  
--------------------------------------------------------------------------------
O    s Sr   s Buckingham    Buckingham A     959.10000    eV        0.000 12.000
                            Buckingham rho  0.37210000    Ang       
                            Buckingham C     0.0000000    eV*Ang^6  
--------------------------------------------------------------------------------
Cl   s Sr   s Buckingham    Buckingham A     2191.0900    eV        0.000 12.000
                            Buckingham rho  0.34570000    Ang       
                            Buckingham C     0.0000000    eV*Ang^6  
--------------------------------------------------------------------------------
O    s Ba   s Buckingham    Buckingham A     905.70000    eV        0.000 12.000
                            Buckingham rho  0.39760000    Ang       
                            Buckingham C     0.0000000    eV*Ang^6  
--------------------------------------------------------------------------------
Cl   s Ba   s Buckingham    Buckingham A     2704.5500    eV        0.000 12.000
                            Buckingham rho  0.35280000    Ang       
                            Buckingham C     0.0000000    eV*Ang^6  
--------------------------------------------------------------------------------

********************************************************************************
*  Output for configuration   1                                                *
********************************************************************************


  Components of energy : 

--------------------------------------------------------------------------------
  Interatomic potentials     =           5.13022605 eV    
  Monopole - monopole (real) =         -10.03624526 eV    
  Monopole - monopole (recip)=         -29.53581274 eV    
  Monopole - monopole (total)=         -39.57205800 eV    
--------------------------------------------------------------------------------
  Total lattice energy       =         -34.44183194 eV    
--------------------------------------------------------------------------------
  Total lattice energy       =           -3323.1103 kJ/(mole unit cells)
--------------------------------------------------------------------------------


  Number of variables =        1

  Maximum number of calculations  =          1000
  Maximum Hessian update interval =            10
  Maximum step size               =   1.000000000
  Maximum parameter tolerance     =   0.000010000
  Maximum function  tolerance     =   0.000010000
  Maximum gradient  tolerance     =   0.001000000
  Maximum gradient  component     =   0.010000000

  Symmetry constrained optimisation

  Symmetry used for second derivatives

  Cell parameters to be optimised using strains

  Newton-Raphson optimiser to be used

  BFGS hessian update to be used

  Lower half triangular hessian to be used

  Start of bulk optimisation :

  Cycle:      0 Energy:       -34.441832  Gnorm:      0.196570  CPU:    0.013
  ** Hessian calculated **
  Cycle:      1 Energy:       -34.441914  Gnorm:      0.000103  CPU:    0.016


  **** Optimisation achieved ****


  Final energy =     -34.44191447 eV
  Final Gnorm  =       0.00000000

  Components of energy : 

--------------------------------------------------------------------------------
  Interatomic potentials     =           5.09689708 eV    
  Monopole - monopole (real) =         -10.02781331 eV    
  Monopole - monopole (recip)=         -29.51099824 eV    
  Monopole - monopole (total)=         -39.53881155 eV    
--------------------------------------------------------------------------------
  Total lattice energy       =         -34.44191447 eV    
--------------------------------------------------------------------------------
  Total lattice energy       =           -3323.1183 kJ/(mole unit cells)
--------------------------------------------------------------------------------

  Final asymmetric unit coordinates :

--------------------------------------------------------------------------------
   No.  Atomic        x           y           z         Radius
        Label       (Frac)      (Frac)      (Frac)       (Angs) 
--------------------------------------------------------------------------------
     1  Cl    c     0.000000    0.000000    0.000000    0.000000
     2  O     c     0.500000    0.500000    0.500000    0.000000
     3  Na    c     0.500000    0.500000    0.000000    0.000000
     4  Cl    s     0.000000    0.000000    0.000000    0.000000
     5  O     s     0.500000    0.500000    0.500000    0.000000
--------------------------------------------------------------------------------

  Final Cartesian lattice vectors (Angstroms) :

        4.507787    0.000000    0.000000
        0.000000    4.507787    0.000000
        0.000000    0.000000    4.507787


  Final cell parameters and derivatives :

--------------------------------------------------------------------------------
       a            4.507787 Angstrom     dE/de1(xx)     0.000000 eV/strain
       b            4.507787 Angstrom     dE/de2(yy)     0.000000 eV/strain
       c            4.507787 Angstrom     dE/de3(zz)     0.000000 eV/strain
       alpha       90.000000 Degrees      dE/de4(yz)     0.000000 eV/strain
       beta        90.000000 Degrees      dE/de5(xz)     0.000000 eV/strain
       gamma       90.000000 Degrees      dE/de6(xy)     0.000000 eV/strain
--------------------------------------------------------------------------------

  Primitive cell volume =            91.598892 Angs**3

  Density of cell =      2.183054 g/cm**3

  Non-primitive cell volume =            91.598892 Angs**3


  Final internal derivatives :

--------------------------------------------------------------------------------
   No.  Atomic          a             b             c           Radius
        Label          (eV)          (eV)          (eV)        (eV/Angs)
--------------------------------------------------------------------------------
      1 Cl    c       0.000000      0.000000      0.000000      0.000000
      2 O     c       0.000000      0.000000      0.000000      0.000000
      3 Na    c       0.000000      0.000000      0.000000      0.000000
      4 Cl    s       0.000000      0.000000      0.000000      0.000000
      5 O     s       0.000000      0.000000      0.000000      0.000000
--------------------------------------------------------------------------------
  Maximum abs         0.000000      0.000000      0.000000      0.000000
--------------------------------------------------------------------------------

  Comparison of initial and final structures : 

--------------------------------------------------------------------------------
  Parameter   Initial value   Final value   Difference    Units      Percent
--------------------------------------------------------------------------------
    Volume        91.368216     91.598892     0.230676    Angs**3      0.25
    a              4.504000      4.507787     0.003787    Angstroms    0.08
    b              4.504000      4.507787     0.003787    Angstroms    0.08
    c              4.504000      4.507787     0.003787    Angstroms    0.08
    alpha         90.000000     90.000000     0.000000    Degrees      0.00
    beta          90.000000     90.000000     0.000000    Degrees      0.00
    gamma         90.000000     90.000000     0.000000    Degrees      0.00
      1 x          0.000000      0.000000     0.000000    Fractional   0.00
      1 y          0.000000      0.000000     0.000000    Fractional   0.00
      1 z          0.000000      0.000000     0.000000    Fractional   0.00
      2 x          0.500000      0.500000     0.000000    Fractional   0.00
      2 y          0.500000      0.500000     0.000000    Fractional   0.00
      2 z          0.500000      0.500000     0.000000    Fractional   0.00
      3 x          0.500000      0.500000     0.000000    Fractional   0.00
      3 y          0.500000      0.500000     0.000000    Fractional   0.00
      3 z          0.000000      0.000000     0.000000    Fractional   0.00
      4 x          0.000000      0.000000     0.000000    Fractional   0.00
      4 y          0.000000      0.000000     0.000000    Fractional   0.00
      4 z          0.000000      0.000000     0.000000    Fractional   0.00
      5 x          0.500000      0.500000     0.000000    Fractional   0.00
      5 y          0.500000      0.500000     0.000000    Fractional   0.00
      5 z          0.500000      0.500000     0.000000    Fractional   0.00
--------------------------------------------------------------------------------


  Born effective charge tensors : 

-------------------------------------------------------------------------------
  Atom             x           y             z
-------------------------------------------------------------------------------
    1 Cl    x      -1.0181     -0.0000      0.0000
            y      -0.0000     -1.0181      0.0000
            z       0.0000      0.0000     -1.0181
-------------------------------------------------------------------------------
    2 O     x      -2.2647      0.0000     -0.0000
            y       0.0000     -2.2647     -0.0000
            z      -0.0000     -0.0000     -2.2647
-------------------------------------------------------------------------------
    3 Na    x       1.2258     -0.0000      0.0000
            y      -0.0000      1.2258     -0.0000
            z       0.0000     -0.0000      0.8313
-------------------------------------------------------------------------------




  Elastic Constant Matrix: (Units=GPa)

-------------------------------------------------------------------------------
  Indices      1         2         3         4         5         6    
-------------------------------------------------------------------------------
       1     95.8177   20.0737   20.0737   -0.0000   -0.0000    0.0000
       2     20.0737   95.8177   20.0737   -0.0000   -0.0000    0.0000
       3     20.0737   20.0737   95.8177   -0.0000   -0.0000    0.0000
       4     -0.0000   -0.0000   -0.0000   20.0737   -0.0000    0.0000
       5     -0.0000   -0.0000   -0.0000   -0.0000   20.0737    0.0000
       6      0.0000    0.0000    0.0000    0.0000    0.0000   20.0737
-------------------------------------------------------------------------------


  Elastic Compliance Matrix: (Units=1/GPa)

-------------------------------------------------------------------------------
  Indices      1         2         3         4         5         6    
-------------------------------------------------------------------------------
       1    0.011253 -0.001949 -0.001949  0.000000  0.000000 -0.000000
       2   -0.001949  0.011253 -0.001949  0.000000  0.000000  0.000000
       3   -0.001949 -0.001949  0.011253  0.000000  0.000000 -0.000000
       4    0.000000  0.000000  0.000000  0.049816  0.000000 -0.000000
       5    0.000000  0.000000  0.000000  0.000000  0.049816 -0.000000
       6   -0.000000  0.000000 -0.000000 -0.000000 -0.000000  0.049816
-------------------------------------------------------------------------------

  Mechanical properties :

-------------------------------------------------------------------------------
  Convention :                    Reuss         Voigt         Hill
-------------------------------------------------------------------------------
  Bulk  Modulus (GPa)     =      45.32174      45.32174      45.32174
  Shear Modulus (GPa)     =      24.72085      27.19304      25.95695
-------------------------------------------------------------------------------
  Velocity S-wave (km/s)  =       3.36511       3.52937       3.44822
  Velocity P-wave (km/s)  =       5.98827       6.11304       6.05098
-------------------------------------------------------------------------------
  Compressibility (1/GPa) =    0.02206447
-------------------------------------------------------------------------------
  Stress axis :                     x             y             z
-------------------------------------------------------------------------------
  Youngs Moduli (GPa)     =      88.86373      88.86373      88.86373
-------------------------------------------------------------------------------
  Poissons Ratio (x)      =                     0.17321       0.17321
  Poissons Ratio (y)      =       0.17321                     0.17321
  Poissons Ratio (z)      =       0.17321       0.17321
-------------------------------------------------------------------------------


  Piezoelectric Strain Matrix: (Units=C/m**2)

-------------------------------------------------------------------------------
  Indices      1         2         3         4         5         6    
-------------------------------------------------------------------------------
       x    -0.00000  -0.00000  -0.00000   0.00000  -0.00000  -0.00000
       y    -0.00000  -0.00000   0.00000  -0.00000   0.00000   0.00000
       z    -0.00000  -0.00000  -0.00000  -0.00000   0.00000   0.00000
-------------------------------------------------------------------------------


  Piezoelectric Stress Matrix: (Units=10**-11 C/N)

-------------------------------------------------------------------------------
  Indices      1         2         3         4         5         6    
-------------------------------------------------------------------------------
       x    -0.00000   0.00000   0.00000   0.00000  -0.00000  -0.00000
       y    -0.00000  -0.00000   0.00000  -0.00000   0.00000   0.00000
       z     0.00000   0.00000  -0.00000  -0.00000   0.00000   0.00000
-------------------------------------------------------------------------------


  Static dielectric constant tensor : 

-------------------------------------------------------------------------------
              x         y         z
-------------------------------------------------------------------------------
       x    22.84729   0.00000   0.00000
       y     0.00000  22.84729  -0.00000
       z     0.00000  -0.00000  22.84729
--------------------------------------------------------------------------------

  High frequency dielectric constant tensor : 

-------------------------------------------------------------------------------
              x         y         z
-------------------------------------------------------------------------------
       x     1.47557   0.00000  -0.00000
       y     0.00000   1.47557  -0.00000
       z    -0.00000  -0.00000   1.47557
-------------------------------------------------------------------------------

  Static refractive indices : 

-------------------------------------------------------------------------------
    1 =    4.77988      2 =    4.77988      3 =    4.77988
-------------------------------------------------------------------------------

  High frequency refractive indices : 

-------------------------------------------------------------------------------
    1 =    1.21473      2 =    1.21473      3 =    1.21473
-------------------------------------------------------------------------------


  Time to end of optimisation =       0.0238 seconds

********************************************************************************
*  Defect calculation for configuration   1 :                                  *
********************************************************************************

  Total number of defects =      3

  Total charge on defect  =  -1.00

  Defect centre is at   0.5000   0.0000   0.5000  Frac

  Region 1 radius =  12.0000      Number of ions =    540

  Number of symmetry inequivalent region 1 ions  =    314

  Region 2 radius =  16.0000      Number of ions =    806

  Number of symmetry inequivalent region 2a ions =    439

  Region 2a mode = 4 : screened electrostatics due to region 1 
                       neglect correction to region 1 forces from 2a
                       region 2a displacements based on defects only

  Region 2a ions will only interact with defects in region 1

  Vacancies:

--------------------------------------------------------------------------------
    Specification type     Symbol/Number         x          y          z
--------------------------------------------------------------------------------
    Fractional                               0.500000   0.500000   0.000000
    Fractional                               0.500000   0.000000   0.500000
--------------------------------------------------------------------------------

  Interstitials:

--------------------------------------------------------------------------------
    Specification type     Symbol/Number         x          y          z
--------------------------------------------------------------------------------
    Atom/Fractional         Na               0.500000   0.500000   0.000000
--------------------------------------------------------------------------------


  Symmetry reduced region 1 (Relative to defect centre) :

--------------------------------------------------------------------------------
   No.   Atomic       x            y             z       Radius  Multiplicity   
         Label      (Angs)       (Angs)        (Angs)    (Angs)     
--------------------------------------------------------------------------------
     1  O     c      0.0000      -2.2539 *     0.0000 *  0.0000     1          
     2  O     c      0.0000       2.2539 *     0.0000 *  0.0000     1          
     3  Na    c      0.0000       2.2539      -2.2539    0.0000     1          
     4  Cl    c      2.2539 *     0.0000 *     2.2539 *  0.0000     2          
     5  Cl    c      2.2539 *     0.0000 *    -2.2539 *  0.0000     2          
     6  Na    c      0.0000      -2.2539 *     2.2539 *  0.0000     1          
     7  Na    c      0.0000      -2.2539 *    -2.2539 *  0.0000     1          
     8  Na    c      0.0000       2.2539 *     2.2539 *  0.0000     1          
     9  Na    c      2.2539 *    -2.2539 *     0.0000 *  0.0000     2          
    10  Na    c      2.2539 *     2.2539 *     0.0000 *  0.0000     2          
    11  Na    c      0.0000       0.0000 *    -4.5078 *  0.0000     1          
    12  Na    c      0.0000       4.5078 *     0.0000 *  0.0000     1          
    13  Na    c      0.0000      -4.5078 *     0.0000 *  0.0000     1          
    14  Na    c     -4.5078 *     0.0000 *     0.0000 *  0.0000     2          
    15  Na    c      0.0000       0.0000 *     4.5078 *  0.0000     1          
    16  O     c      0.0000      -2.2539 *    -4.5078 *  0.0000     1          
    17  O     c      0.0000       2.2539 *    -4.5078 *  0.0000     1          
    18  O     c     -4.5078 *    -2.2539 *     0.0000 *  0.0000     2          
    19  O     c     -4.5078 *     2.2539 *     0.0000 *  0.0000     2          
    20  O     c      0.0000      -2.2539 *     4.5078 *  0.0000     1          
    21  O     c      0.0000       2.2539 *     4.5078 *  0.0000     1          
    22  Cl    c      2.2539 *     4.5078 *     2.2539 *  0.0000     2          
    23  Cl    c      2.2539 *     4.5078 *    -2.2539 *  0.0000     2          
    24  Cl    c      2.2539 *    -4.5078 *     2.2539 *  0.0000     2          
    25  Cl    c      2.2539 *    -4.5078 *    -2.2539 *  0.0000     2          
    26  Na    c     -4.5078 *    -2.2539 *     2.2539 *  0.0000     2          
    27  Na    c     -4.5078 *    -2.2539 *    -2.2539 *  0.0000     2          
    28  Na    c     -4.5078 *     2.2539 *     2.2539 *  0.0000     2          
    29  Na    c     -4.5078 *     2.2539 *    -2.2539 *  0.0000     2          
    30  Na    c      2.2539 *    -2.2539 *    -4.5078 *  0.0000     2          
    31  Na    c      2.2539 *     2.2539 *    -4.5078 *  0.0000     2          
    32  Na    c      2.2539 *    -2.2539 *     4.5078 *  0.0000     2          
    33  Na    c      2.2539 *     2.2539 *     4.5078 *  0.0000     2          
    34  Na    c      0.0000       4.5078 *    -4.5078 *  0.0000     1          
    35  Na    c      0.0000      -4.5078 *    -4.5078 *  0.0000     1          
    36  Na    c     -4.5078 *     0.0000 *    -4.5078 *  0.0000     2          
    37  Na    c     -4.5078 *     4.5078 *     0.0000 *  0.0000     2          
    38  Na    c     -4.5078 *    -4.5078 *     0.0000 *  0.0000     2          
    39  Na    c      0.0000       4.5078 *     4.5078 *  0.0000     1          
    40  Na    c      0.0000      -4.5078 *     4.5078 *  0.0000     1          
    41  Na    c     -4.5078 *     0.0000 *     4.5078 *  0.0000     2          
    42  O     c     -4.5078 *    -2.2539 *    -4.5078 *  0.0000     2          
    43  O     c     -4.5078 *     2.2539 *    -4.5078 *  0.0000     2          
    44  O     c      0.0000       6.7617 *     0.0000 *  0.0000     1          
    45  O     c      0.0000      -6.7617 *     0.0000 *  0.0000     1          
    46  O     c     -4.5078 *    -2.2539 *     4.5078 *  0.0000     2          
    47  O     c     -4.5078 *     2.2539 *     4.5078 *  0.0000     2          
    48  Cl    c      2.2539 *     0.0000 *     6.7617 *  0.0000     2          
    49  Cl    c      2.2539 *     0.0000 *    -6.7617 *  0.0000     2          
    50  Cl    c      6.7617 *     0.0000 *     2.2539 *  0.0000     2          
    51  Cl    c      6.7617 *     0.0000 *    -2.2539 *  0.0000     2          
    52  Na    c      0.0000      -2.2539 *     6.7617 *  0.0000     1          
    53  Na    c      0.0000      -2.2539 *    -6.7617 *  0.0000     1          
    54  Na    c      0.0000       2.2539 *     6.7617 *  0.0000     1          
    55  Na    c      0.0000       2.2539 *    -6.7617 *  0.0000     1          
    56  Na    c      0.0000       6.7617 *     2.2539 *  0.0000     1          
    57  Na    c      0.0000       6.7617 *    -2.2539 *  0.0000     1          
    58  Na    c      0.0000      -6.7617 *     2.2539 *  0.0000     1          
    59  Na    c      0.0000      -6.7617 *    -2.2539 *  0.0000     1          
    60  Na    c      2.2539 *     6.7617 *     0.0000 *  0.0000     2          
    61  Na    c      2.2539 *    -6.7617 *     0.0000 *  0.0000     2          
    62  Na    c      6.7617 *    -2.2539 *     0.0000 *  0.0000     2          
    63  Na    c      6.7617 *     2.2539 *     0.0000 *  0.0000     2          
    64  Na    c      4.5078 *     4.5078 *    -4.5078 *  0.0000     2          
    65  Na    c      4.5078 *    -4.5078 *    -4.5078 *  0.0000     2          
    66  Na    c     -4.5078 *     4.5078 *     4.5078 *  0.0000     2          
    67  Na    c     -4.5078 *    -4.5078 *     4.5078 *  0.0000     2          
    68  O     c      0.0000       6.7617 *    -4.5078 *  0.0000     1          
    69  O     c      0.0000      -6.7617 *    -4.5078 *  0.0000     1          
    70  O     c     -4.5078 *     6.7617 *     0.0000 *  0.0000     2          
    71  O     c     -4.5078 *    -6.7617 *     0.0000 *  0.0000     2          
    72  O     c      0.0000       6.7617 *     4.5078 *  0.0000     1          
    73  O     c      0.0000      -6.7617 *     4.5078 *  0.0000     1          
    74  Cl    c      2.2539 *     4.5078 *     6.7617 *  0.0000     2          
    75  Cl    c      2.2539 *     4.5078 *    -6.7617 *  0.0000     2          
    76  Cl    c      2.2539 *    -4.5078 *     6.7617 *  0.0000     2          
    77  Cl    c      2.2539 *    -4.5078 *    -6.7617 *  0.0000     2          
    78  Cl    c      6.7617 *     4.5078 *     2.2539 *  0.0000     2          
    79  Cl    c      6.7617 *     4.5078 *    -2.2539 *  0.0000     2          
    80  Cl    c      6.7617 *    -4.5078 *     2.2539 *  0.0000     2          
    81  Cl    c      6.7617 *    -4.5078 *    -2.2539 *  0.0000     2          
    82  Na    c     -4.5078 *    -2.2539 *     6.7617 *  0.0000     2          
    83  Na    c     -4.5078 *    -2.2539 *    -6.7617 *  0.0000     2          
    84  Na    c     -4.5078 *     2.2539 *     6.7617 *  0.0000     2          
    85  Na    c     -4.5078 *     2.2539 *    -6.7617 *  0.0000     2          
    86  Na    c     -4.5078 *     6.7617 *     2.2539 *  0.0000     2          
    87  Na    c     -4.5078 *     6.7617 *    -2.2539 *  0.0000     2          
    88  Na    c     -4.5078 *    -6.7617 *     2.2539 *  0.0000     2          
    89  Na    c     -4.5078 *    -6.7617 *    -2.2539 *  0.0000     2          
    90  Na    c      2.2539 *     6.7617 *    -4.5078 *  0.0000     2          
    91  Na    c      2.2539 *    -6.7617 *    -4.5078 *  0.0000     2          
    92  Na    c      6.7617 *    -2.2539 *    -4.5078 *  0.0000     2          
    93  Na    c      6.7617 *     2.2539 *    -4.5078 *  0.0000     2          
    94  Na    c      2.2539 *     6.7617 *     4.5078 *  0.0000     2          
    95  Na    c      2.2539 *    -6.7617 *     4.5078 *  0.0000     2          
    96  Na    c      6.7617 *    -2.2539 *     4.5078 *  0.0000     2          
    97  Na    c      6.7617 *     2.2539 *     4.5078 *  0.0000     2          
    98  Na    c      0.0000       0.0000 *     9.0156 *  0.0000     1          
    99  Na    c      0.0000       0.0000 *    -9.0156 *  0.0000     1          
   100  Na    c      0.0000       9.0156 *     0.0000 *  0.0000     1          
   101  Na    c      0.0000      -9.0156 *     0.0000 *  0.0000     1          
   102  Na    c      9.0156 *     0.0000 *     0.0000 *  0.0000     2          
   103  O     c      0.0000      -2.2539 *     9.0156 *  0.0000     1          
   104  O     c      0.0000      -2.2539 *    -9.0156 *  0.0000     1          
   105  O     c      0.0000       2.2539 *     9.0156 *  0.0000     1          
   106  O     c      0.0000       2.2539 *    -9.0156 *  0.0000     1          
   107  O     c      9.0156 *    -2.2539 *     0.0000 *  0.0000     2          
   108  O     c      9.0156 *     2.2539 *     0.0000 *  0.0000     2          
   109  O     c     -4.5078 *     6.7617 *    -4.5078 *  0.0000     2          
   110  O     c     -4.5078 *    -6.7617 *    -4.5078 *  0.0000     2          
   111  O     c     -4.5078 *     6.7617 *     4.5078 *  0.0000     2          
   112  O     c     -4.5078 *    -6.7617 *     4.5078 *  0.0000     2          
   113  Cl    c      2.2539 *     9.0156 *     2.2539 *  0.0000     2          
   114  Cl    c      2.2539 *     9.0156 *    -2.2539 *  0.0000     2          
   115  Cl    c      2.2539 *    -9.0156 *     2.2539 *  0.0000     2          
   116  Cl    c      2.2539 *    -9.0156 *    -2.2539 *  0.0000     2          
   117  Na    c      9.0156 *    -2.2539 *     2.2539 *  0.0000     2          
   118  Na    c      9.0156 *    -2.2539 *    -2.2539 *  0.0000     2          
   119  Na    c      9.0156 *     2.2539 *     2.2539 *  0.0000     2          
   120  Na    c      9.0156 *     2.2539 *    -2.2539 *  0.0000     2          
   121  Na    c      2.2539 *    -2.2539 *     9.0156 *  0.0000     2          
   122  Na    c      2.2539 *    -2.2539 *    -9.0156 *  0.0000     2          
   123  Na    c      2.2539 *     2.2539 *     9.0156 *  0.0000     2          
   124  Na    c      2.2539 *     2.2539 *    -9.0156 *  0.0000     2          
   125  Cl    c      6.7617 *     0.0000 *     6.7617 *  0.0000     2          
   126  Cl    c      6.7617 *     0.0000 *    -6.7617 *  0.0000     2          
   127  Na    c      0.0000       6.7617 *     6.7617 *  0.0000     1          
   128  Na    c      0.0000       6.7617 *    -6.7617 *  0.0000     1          
   129  Na    c      0.0000      -6.7617 *     6.7617 *  0.0000     1          
   130  Na    c      0.0000      -6.7617 *    -6.7617 *  0.0000     1          
   131  Na    c      6.7617 *     6.7617 *     0.0000 *  0.0000     2          
   132  Na    c      6.7617 *    -6.7617 *     0.0000 *  0.0000     2          
   133  Na    c      0.0000       4.5078 *     9.0156 *  0.0000     1          
   134  Na    c      0.0000       4.5078 *    -9.0156 *  0.0000     1          
   135  Na    c      0.0000       9.0156 *    -4.5078 *  0.0000     1          
   136  Na    c      0.0000      -4.5078 *     9.0156 *  0.0000     1          
   137  Na    c      0.0000      -4.5078 *    -9.0156 *  0.0000     1          
   138  Na    c      0.0000      -9.0156 *    -4.5078 *  0.0000     1          
   139  Na    c      9.0156 *     0.0000 *    -4.5078 *  0.0000     2          
   140  Na    c      9.0156 *     4.5078 *     0.0000 *  0.0000     2          
   141  Na    c      9.0156 *    -4.5078 *     0.0000 *  0.0000     2          
   142  Na    c     -4.5078 *     0.0000 *     9.0156 *  0.0000     2          
   143  Na    c     -4.5078 *     0.0000 *    -9.0156 *  0.0000     2          
   144  Na    c     -4.5078 *     9.0156 *     0.0000 *  0.0000     2          
   145  Na    c     -4.5078 *    -9.0156 *     0.0000 *  0.0000     2          
   146  Na    c      0.0000       9.0156 *     4.5078 *  0.0000     1          
   147  Na    c      0.0000      -9.0156 *     4.5078 *  0.0000     1          
   148  Na    c      9.0156 *     0.0000 *     4.5078 *  0.0000     2          
   149  O     c      9.0156 *    -2.2539 *    -4.5078 *  0.0000     2          
   150  O     c      9.0156 *     2.2539 *    -4.5078 *  0.0000     2          
   151  O     c     -4.5078 *    -2.2539 *     9.0156 *  0.0000     2          
   152  O     c     -4.5078 *    -2.2539 *    -9.0156 *  0.0000     2          
   153  O     c     -4.5078 *     2.2539 *     9.0156 *  0.0000     2          
   154  O     c     -4.5078 *     2.2539 *    -9.0156 *  0.0000     2          
   155  O     c      9.0156 *    -2.2539 *     4.5078 *  0.0000     2          
   156  O     c      9.0156 *     2.2539 *     4.5078 *  0.0000     2          
   157  Cl    c      6.7617 *     4.5078 *     6.7617 *  0.0000     2          
   158  Cl    c      6.7617 *     4.5078 *    -6.7617 *  0.0000     2          
   159  Cl    c      6.7617 *    -4.5078 *     6.7617 *  0.0000     2          
   160  Cl    c      6.7617 *    -4.5078 *    -6.7617 *  0.0000     2          
   161  Na    c     -4.5078 *     6.7617 *     6.7617 *  0.0000     2          
   162  Na    c     -4.5078 *     6.7617 *    -6.7617 *  0.0000     2          
   163  Na    c     -4.5078 *    -6.7617 *     6.7617 *  0.0000     2          
   164  Na    c     -4.5078 *    -6.7617 *    -6.7617 *  0.0000     2          
   165  Na    c      6.7617 *     6.7617 *    -4.5078 *  0.0000     2          
   166  Na    c      6.7617 *    -6.7617 *    -4.5078 *  0.0000     2          
   167  Na    c      6.7617 *     6.7617 *     4.5078 *  0.0000     2          
   168  Na    c      6.7617 *    -6.7617 *     4.5078 *  0.0000     2          
   169  Na    c      9.0156 *     4.5078 *    -4.5078 *  0.0000     2          
   170  Na    c      9.0156 *    -4.5078 *    -4.5078 *  0.0000     2          
   171  Na    c     -4.5078 *     9.0156 *    -4.5078 *  0.0000     2          
   172  Na    c     -4.5078 *    -9.0156 *    -4.5078 *  0.0000     2          
   173  Na    c      4.5078 *     4.5078 *     9.0156 *  0.0000     2          
   174  Na    c      4.5078 *     4.5078 *    -9.0156 *  0.0000     2          
   175  Na    c      4.5078 *    -4.5078 *     9.0156 *  0.0000     2          
   176  Na    c      4.5078 *    -4.5078 *    -9.0156 *  0.0000     2          
   177  Na    c      9.0156 *     4.5078 *     4.5078 *  0.0000     2          
   178  Na    c      9.0156 *    -4.5078 *     4.5078 *  0.0000     2          
   179  Na    c     -4.5078 *     9.0156 *     4.5078 *  0.0000     2          
   180  Na    c     -4.5078 *    -9.0156 *     4.5078 *  0.0000     2          
   181  O     c      0.0000      11.2695 *     0.0000 *  0.0000     1          
   182  O     c      0.0000     -11.2695 *     0.0000 *  0.0000     1          
   183  O     c      0.0000       6.7617 *     9.0156 *  0.0000     1          
   184  O     c      0.0000       6.7617 *    -9.0156 *  0.0000     1          
   185  O     c      0.0000      -6.7617 *     9.0156 *  0.0000     1          
   186  O     c      0.0000      -6.7617 *    -9.0156 *  0.0000     1          
   187  O     c      9.0156 *     6.7617 *     0.0000 *  0.0000     2          
   188  O     c      9.0156 *    -6.7617 *     0.0000 *  0.0000     2          
   189  Cl    c      2.2539 *     0.0000 *    11.2695 *  0.0000     2          
   190  Cl    c      2.2539 *     0.0000 *   -11.2695 *  0.0000     2          
   191  Cl    c     11.2695 *     0.0000 *     2.2539 *  0.0000     2          
   192  Cl    c     11.2695 *     0.0000 *    -2.2539 *  0.0000     2          
   193  Na    c      0.0000      -2.2539 *    11.2695 *  0.0000     1          
   194  Na    c      0.0000      -2.2539 *   -11.2695 *  0.0000     1          
   195  Na    c      0.0000       2.2539 *    11.2695 *  0.0000     1          
   196  Na    c      0.0000       2.2539 *   -11.2695 *  0.0000     1          
   197  Na    c      0.0000      11.2695 *     2.2539 *  0.0000     1          
   198  Na    c      0.0000      11.2695 *    -2.2539 *  0.0000     1          
   199  Na    c      0.0000     -11.2695 *     2.2539 *  0.0000     1          
   200  Na    c      0.0000     -11.2695 *    -2.2539 *  0.0000     1          
   201  Na    c      2.2539 *    11.2695 *     0.0000 *  0.0000     2          
   202  Na    c      2.2539 *   -11.2695 *     0.0000 *  0.0000     2          
   203  Na    c     11.2695 *    -2.2539 *     0.0000 *  0.0000     2          
   204  Na    c     11.2695 *     2.2539 *     0.0000 *  0.0000     2          
   205  Cl    c      2.2539 *     9.0156 *     6.7617 *  0.0000     2          
   206  Cl    c      2.2539 *     9.0156 *    -6.7617 *  0.0000     2          
   207  Cl    c      2.2539 *    -9.0156 *     6.7617 *  0.0000     2          
   208  Cl    c      2.2539 *    -9.0156 *    -6.7617 *  0.0000     2          
   209  Cl    c      6.7617 *     9.0156 *     2.2539 *  0.0000     2          
   210  Cl    c      6.7617 *     9.0156 *    -2.2539 *  0.0000     2          
   211  Cl    c      6.7617 *    -9.0156 *     2.2539 *  0.0000     2          
   212  Cl    c      6.7617 *    -9.0156 *    -2.2539 *  0.0000     2          
   213  Na    c      9.0156 *    -2.2539 *     6.7617 *  0.0000     2          
   214  Na    c      9.0156 *    -2.2539 *    -6.7617 *  0.0000     2          
   215  Na    c      9.0156 *     2.2539 *     6.7617 *  0.0000     2          
   216  Na    c      9.0156 *     2.2539 *    -6.7617 *  0.0000     2          
   217  Na    c      9.0156 *     6.7617 *     2.2539 *  0.0000     2          
   218  Na    c      9.0156 *     6.7617 *    -2.2539 *  0.0000     2          
   219  Na    c      9.0156 *    -6.7617 *     2.2539 *  0.0000     2          
   220  Na    c      9.0156 *    -6.7617 *    -2.2539 *  0.0000     2          
   221  Na    c      2.2539 *     6.7617 *     9.0156 *  0.0000     2          
   222  Na    c      2.2539 *     6.7617 *    -9.0156 *  0.0000     2          
   223  Na    c      2.2539 *    -6.7617 *     9.0156 *  0.0000     2          
   224  Na    c      2.2539 *    -6.7617 *    -9.0156 *  0.0000     2          
   225  Na    c      6.7617 *    -2.2539 *     9.0156 *  0.0000     2          
   226  Na    c      6.7617 *    -2.2539 *    -9.0156 *  0.0000     2          
   227  Na    c      6.7617 *     2.2539 *     9.0156 *  0.0000     2          
   228  Na    c      6.7617 *     2.2539 *    -9.0156 *  0.0000     2          
   229  O     s      0.0000      -2.2539 *     0.0000 *  0.0000     1          
   230  O     s      0.0000       2.2539 *     0.0000 *  0.0000     1          
   231  Cl    s      2.2539 *     0.0000 *     2.2539 *  0.0000     2          
   232  Cl    s      2.2539 *     0.0000 *    -2.2539 *  0.0000     2          
   233  O     s      0.0000      -2.2539 *    -4.5078 *  0.0000     1          
   234  O     s      0.0000       2.2539 *    -4.5078 *  0.0000     1          
   235  O     s     -4.5078 *    -2.2539 *     0.0000 *  0.0000     2          
   236  O     s     -4.5078 *     2.2539 *     0.0000 *  0.0000     2          
   237  O     s      0.0000      -2.2539 *     4.5078 *  0.0000     1          
   238  O     s      0.0000       2.2539 *     4.5078 *  0.0000     1          
   239  Cl    s      2.2539 *     4.5078 *     2.2539 *  0.0000     2          
   240  Cl    s      2.2539 *     4.5078 *    -2.2539 *  0.0000     2          
   241  Cl    s      2.2539 *    -4.5078 *     2.2539 *  0.0000     2          
   242  Cl    s      2.2539 *    -4.5078 *    -2.2539 *  0.0000     2          
   243  O     s     -4.5078 *    -2.2539 *    -4.5078 *  0.0000     2          
   244  O     s     -4.5078 *     2.2539 *    -4.5078 *  0.0000     2          
   245  O     s      0.0000       6.7617 *     0.0000 *  0.0000     1          
   246  O     s      0.0000      -6.7617 *     0.0000 *  0.0000     1          
   247  O     s     -4.5078 *    -2.2539 *     4.5078 *  0.0000     2          
   248  O     s     -4.5078 *     2.2539 *     4.5078 *  0.0000     2          
   249  Cl    s      2.2539 *     0.0000 *     6.7617 *  0.0000     2          
   250  Cl    s      2.2539 *     0.0000 *    -6.7617 *  0.0000     2          
   251  Cl    s      6.7617 *     0.0000 *     2.2539 *  0.0000     2          
   252  Cl    s      6.7617 *     0.0000 *    -2.2539 *  0.0000     2          
   253  O     s      0.0000       6.7617 *    -4.5078 *  0.0000     1          
   254  O     s      0.0000      -6.7617 *    -4.5078 *  0.0000     1          
   255  O     s     -4.5078 *     6.7617 *     0.0000 *  0.0000     2          
   256  O     s     -4.5078 *    -6.7617 *     0.0000 *  0.0000     2          
   257  O     s      0.0000       6.7617 *     4.5078 *  0.0000     1          
   258  O     s      0.0000      -6.7617 *     4.5078 *  0.0000     1          
   259  Cl    s      2.2539 *     4.5078 *     6.7617 *  0.0000     2          
   260  Cl    s      2.2539 *     4.5078 *    -6.7617 *  0.0000     2          
   261  Cl    s      2.2539 *    -4.5078 *     6.7617 *  0.0000     2          
   262  Cl    s      2.2539 *    -4.5078 *    -6.7617 *  0.0000     2          
   263  Cl    s      6.7617 *     4.5078 *     2.2539 *  0.0000     2          
   264  Cl    s      6.7617 *     4.5078 *    -2.2539 *  0.0000     2          
   265  Cl    s      6.7617 *    -4.5078 *     2.2539 *  0.0000     2          
   266  Cl    s      6.7617 *    -4.5078 *    -2.2539 *  0.0000     2          
   267  O     s      0.0000      -2.2539 *     9.0156 *  0.0000     1          
   268  O     s      0.0000      -2.2539 *    -9.0156 *  0.0000     1          
   269  O     s      0.0000       2.2539 *     9.0156 *  0.0000     1          
   270  O     s      0.0000       2.2539 *    -9.0156 *  0.0000     1          
   271  O     s      9.0156 *    -2.2539 *     0.0000 *  0.0000     2          
   272  O     s      9.0156 *     2.2539 *     0.0000 *  0.0000     2          
   273  O     s     -4.5078 *     6.7617 *    -4.5078 *  0.0000     2          
   274  O     s     -4.5078 *    -6.7617 *    -4.5078 *  0.0000     2          
   275  O     s     -4.5078 *     6.7617 *     4.5078 *  0.0000     2          
   276  O     s     -4.5078 *    -6.7617 *     4.5078 *  0.0000     2          
   277  Cl    s      2.2539 *     9.0156 *     2.2539 *  0.0000     2          
   278  Cl    s      2.2539 *     9.0156 *    -2.2539 *  0.0000     2          
   279  Cl    s      2.2539 *    -9.0156 *     2.2539 *  0.0000     2          
   280  Cl    s      2.2539 *    -9.0156 *    -2.2539 *  0.0000     2          
   281  Cl    s      6.7617 *     0.0000 *     6.7617 *  0.0000     2          
   282  Cl    s      6.7617 *     0.0000 *    -6.7617 *  0.0000     2          
   283  O     s      9.0156 *    -2.2539 *    -4.5078 *  0.0000     2          
   284  O     s      9.0156 *     2.2539 *    -4.5078 *  0.0000     2          
   285  O     s     -4.5078 *    -2.2539 *     9.0156 *  0.0000     2          
   286  O     s     -4.5078 *    -2.2539 *    -9.0156 *  0.0000     2          
   287  O     s     -4.5078 *     2.2539 *     9.0156 *  0.0000     2          
   288  O     s     -4.5078 *     2.2539 *    -9.0156 *  0.0000     2          
   289  O     s      9.0156 *    -2.2539 *     4.5078 *  0.0000     2          
   290  O     s      9.0156 *     2.2539 *     4.5078 *  0.0000     2          
   291  Cl    s      6.7617 *     4.5078 *     6.7617 *  0.0000     2          
   292  Cl    s      6.7617 *     4.5078 *    -6.7617 *  0.0000     2          
   293  Cl    s      6.7617 *    -4.5078 *     6.7617 *  0.0000     2          
   294  Cl    s      6.7617 *    -4.5078 *    -6.7617 *  0.0000     2          
   295  O     s      0.0000      11.2695 *     0.0000 *  0.0000     1          
   296  O     s      0.0000     -11.2695 *     0.0000 *  0.0000     1          
   297  O     s      0.0000       6.7617 *     9.0156 *  0.0000     1          
   298  O     s      0.0000       6.7617 *    -9.0156 *  0.0000     1          
   299  O     s      0.0000      -6.7617 *     9.0156 *  0.0000     1          
   300  O     s      0.0000      -6.7617 *    -9.0156 *  0.0000     1          
   301  O     s      9.0156 *     6.7617 *     0.0000 *  0.0000     2          
   302  O     s      9.0156 *    -6.7617 *     0.0000 *  0.0000     2          
   303  Cl    s      2.2539 *     0.0000 *    11.2695 *  0.0000     2          
   304  Cl    s      2.2539 *     0.0000 *   -11.2695 *  0.0000     2          
   305  Cl    s     11.2695 *     0.0000 *     2.2539 *  0.0000     2          
   306  Cl    s     11.2695 *     0.0000 *    -2.2539 *  0.0000     2          
   307  Cl    s      2.2539 *     9.0156 *     6.7617 *  0.0000     2          
   308  Cl    s      2.2539 *     9.0156 *    -6.7617 *  0.0000     2          
   309  Cl    s      2.2539 *    -9.0156 *     6.7617 *  0.0000     2          
   310  Cl    s      2.2539 *    -9.0156 *    -6.7617 *  0.0000     2          
   311  Cl    s      6.7617 *     9.0156 *     2.2539 *  0.0000     2          
   312  Cl    s      6.7617 *     9.0156 *    -2.2539 *  0.0000     2          
   313  Cl    s      6.7617 *    -9.0156 *     2.2539 *  0.0000     2          
   314  Cl    s      6.7617 *    -9.0156 *    -2.2539 *  0.0000     2          
--------------------------------------------------------------------------------

  Components of defect energy : 

--------------------------------------------------------------------------------
  Region 1 - region 1                   =    -17.43147677 eV
  Region 1 - region 2a (unrelaxed)      =     25.99616980 eV
  Region 1 - 2a (relaxed - correction)  =     -0.29079221 eV
  Region 1 (Total)                      =      8.27390082 eV
  Region 2a                             =      0.14531933 eV
  Region 2b                             =     -0.42565975 eV
--------------------------------------------------------------------------------
  Total defect energy                   =      7.99356040 eV
--------------------------------------------------------------------------------

  Largest displacement in region 2 =   0.0199 Angstroms


  Number of variables =      852

  Maximum number of calculations  =        1000
  Maximum Hessian update interval =          10
  Maximum step size               =   1.0000000
  Maximum parameter tolerance     =   0.0000100
  Maximum function  tolerance     =   0.0000100
  Maximum gradient  tolerance     =   0.0010000

  Symmetry adapted optimisation

  Symmetry to be used for second derivatives

  Newton-Raphson optimiser to be used

  BFGS hessian update to be used

  Lower half triangular hessian to be used

  Start of defect optimisation :

  Cycle:      0 Defect Energy:   7.993560  Gnorm:     0.020335  CPU:    2.507
  ** Hessian calculated **
  Cycle:      1 Defect Energy:   7.216497  Gnorm:     0.017291  CPU:    8.150
  ** Hessian calculated **
  Cycle:      2 Defect Energy:   6.465435  Gnorm:     0.013682  CPU:   14.090
  Cycle:      3 Defect Energy:   6.228252  Gnorm:     0.011479  CPU:   17.804
  ** Hessian calculated **
  Cycle:      4 Defect Energy:   5.701915  Gnorm:     0.006075  CPU:   22.982
  ** Hessian calculated **
  Cycle:      5 Defect Energy:   5.266175  Gnorm:     0.002188  CPU:   28.120
  ** Hessian calculated **
  Cycle:      6 Defect Energy:   5.225334  Gnorm:     0.001112  CPU:   30.312
  Cycle:      7 Defect Energy:   5.201826  Gnorm:     0.000791  CPU:   31.126
  Cycle:      8 Defect Energy:   5.176864  Gnorm:     0.000747  CPU:   31.994
  Cycle:      9 Defect Energy:   5.147031  Gnorm:     0.000766  CPU:   32.859
  Cycle:     10 Defect Energy:   5.112360  Gnorm:     0.000898  CPU:   33.717
  Cycle:     11 Defect Energy:   5.077881  Gnorm:     0.001012  CPU:   34.593
  Cycle:     12 Defect Energy:   5.044453  Gnorm:     0.001198  CPU:   35.458
  Cycle:     13 Defect Energy:   5.015753  Gnorm:     0.001277  CPU:   36.314
  Cycle:     14 Defect Energy:   4.993342  Gnorm:     0.001363  CPU:   37.184
  Cycle:     15 Defect Energy:   4.973521  Gnorm:     0.001405  CPU:   37.932
  ** Hessian calculated **
  Cycle:     16 Defect Energy:   4.919650  Gnorm:     0.001254  CPU:   39.282
  Cycle:     17 Defect Energy:   4.874623  Gnorm:     0.001078  CPU:   39.776
  Cycle:     18 Defect Energy:   4.886147  Gnorm:     0.001068  CPU:   40.271
  ** Hessian calculated **
  Cycle:     19 Defect Energy:   4.858231  Gnorm:     0.000766  CPU:   41.641
  ** Hessian calculated **
  Cycle:     20 Defect Energy:   4.854498  Gnorm:     0.000660  CPU:   42.904
  Cycle:     21 Defect Energy:   4.850334  Gnorm:     0.000605  CPU:   43.380
  Cycle:     22 Defect Energy:   4.845639  Gnorm:     0.000594  CPU:   43.853
  Cycle:     23 Defect Energy:   4.840848  Gnorm:     0.000578  CPU:   44.360
  Cycle:     24 Defect Energy:   4.836883  Gnorm:     0.000564  CPU:   44.826
  Cycle:     25 Defect Energy:   4.833205  Gnorm:     0.000565  CPU:   45.281
  Cycle:     26 Defect Energy:   4.829323  Gnorm:     0.000566  CPU:   45.743
  Cycle:     27 Defect Energy:   4.825411  Gnorm:     0.000558  CPU:   46.199
  Cycle:     28 Defect Energy:   4.820688  Gnorm:     0.000571  CPU:   46.658
  Cycle:     29 Defect Energy:   4.815288  Gnorm:     0.000589  CPU:   47.111
  ** Hessian calculated **
  Cycle:     30 Defect Energy:   4.807609  Gnorm:     0.000504  CPU:   48.346
  Cycle:     31 Defect Energy:   4.797962  Gnorm:     0.000401  CPU:   48.799
  Cycle:     32 Defect Energy:   4.785718  Gnorm:     0.000350  CPU:   49.262
  Cycle:     33 Defect Energy:   4.788702  Gnorm:     0.000875  CPU:   49.715
  ** Hessian calculated **
  Cycle:     34 Defect Energy:   4.782338  Gnorm:     0.000440  CPU:   50.963
  Cycle:     35 Defect Energy:   4.777636  Gnorm:     0.000322  CPU:   51.458
  Cycle:     36 Defect Energy:   4.772617  Gnorm:     0.000302  CPU:   51.914
  Cycle:     37 Defect Energy:   4.767331  Gnorm:     0.000323  CPU:   52.373
  Cycle:     38 Defect Energy:   4.762717  Gnorm:     0.000327  CPU:   52.828
  Cycle:     39 Defect Energy:   4.757977  Gnorm:     0.000377  CPU:   53.293
  Cycle:     40 Defect Energy:   4.752502  Gnorm:     0.000428  CPU:   53.752
  Cycle:     41 Defect Energy:   4.745237  Gnorm:     0.000477  CPU:   54.214
  Cycle:     42 Defect Energy:   4.734224  Gnorm:     0.000591  CPU:   54.679
  Cycle:     43 Defect Energy:   4.717483  Gnorm:     0.000771  CPU:   55.135
  ** Hessian calculated **
  Cycle:     44 Defect Energy:   4.713170  Gnorm:     0.000751  CPU:   56.371
  Cycle:     45 Defect Energy:   4.707054  Gnorm:     0.000734  CPU:   56.812
  Cycle:     46 Defect Energy:   4.698283  Gnorm:     0.000724  CPU:   57.258
  Cycle:     47 Defect Energy:   4.685672  Gnorm:     0.000712  CPU:   57.698
  Cycle:     48 Defect Energy:   4.667665  Gnorm:     0.000709  CPU:   58.137
  Cycle:     49 Defect Energy:   4.642812  Gnorm:     0.000733  CPU:   58.576
  Cycle:     50 Defect Energy:   4.611470  Gnorm:     0.000809  CPU:   59.025
  Cycle:     51 Defect Energy:   4.591310  Gnorm:     0.000904  CPU:   59.470
  Cycle:     52 Defect Energy:   4.579728  Gnorm:     0.000963  CPU:   59.915
  Cycle:     53 Defect Energy:   4.565160  Gnorm:     0.001028  CPU:   60.360
  ** Hessian calculated **
  Cycle:     54 Defect Energy:   4.555708  Gnorm:     0.000973  CPU:   61.574
  Cycle:     55 Defect Energy:   4.543358  Gnorm:     0.000941  CPU:   62.010
  Cycle:     56 Defect Energy:   4.527424  Gnorm:     0.000912  CPU:   62.457
  Cycle:     57 Defect Energy:   4.507493  Gnorm:     0.000903  CPU:   62.898
  Cycle:     58 Defect Energy:   4.487346  Gnorm:     0.000936  CPU:   63.340
  Cycle:     59 Defect Energy:   4.471414  Gnorm:     0.000941  CPU:   63.792
  Cycle:     60 Defect Energy:   4.458993  Gnorm:     0.000983  CPU:   64.234
  Cycle:     61 Defect Energy:   4.447280  Gnorm:     0.001011  CPU:   64.688
  Cycle:     62 Defect Energy:   4.435909  Gnorm:     0.001053  CPU:   65.130
  Cycle:     63 Defect Energy:   4.424649  Gnorm:     0.001067  CPU:   65.569
  ** Hessian calculated **
  Cycle:     64 Defect Energy:   4.382758  Gnorm:     0.000975  CPU:   66.800
  Cycle:     65 Defect Energy:   4.320727  Gnorm:     0.000785  CPU:   67.243
  Cycle:     66 Defect Energy:   4.274220  Gnorm:     0.000516  CPU:   67.681
  Cycle:     67 Defect Energy:   4.255844  Gnorm:     0.000358  CPU:   68.121
  Cycle:     68 Defect Energy:   4.246417  Gnorm:     0.000179  CPU:   68.529
  Cycle:     69 Defect Energy:   4.244289  Gnorm:     0.000121  CPU:   68.928
  Cycle:     70 Defect Energy:   4.243521  Gnorm:     0.000079  CPU:   69.328
  Cycle:     71 Defect Energy:   4.243093  Gnorm:     0.000058  CPU:   69.733
  Cycle:     72 Defect Energy:   4.242940  Gnorm:     0.000032  CPU:   70.126
  Cycle:     73 Defect Energy:   4.242896  Gnorm:     0.000022  CPU:   70.521
  ** Hessian calculated **
  Cycle:     74 Defect Energy:   4.242881  Gnorm:     0.000016  CPU:   71.600


  **** Optimisation achieved ****


  Final defect energy  =        4.24287703
  Final defect Gnorm   =        0.00001088

  Components of defect energy : 

--------------------------------------------------------------------------------
  Region 1 - region 1                   =    -17.95311005 eV
  Region 1 - region 2a (unrelaxed)      =     22.73272605 eV
  Region 1 - 2a (relaxed - correction)  =     -0.22194659 eV
  Region 1 (Total)                      =      4.55766941 eV
  Region 2a                             =      0.11088179 eV
  Region 2b                             =     -0.42567417 eV
--------------------------------------------------------------------------------
  Total defect energy                   =      4.24287703 eV
--------------------------------------------------------------------------------

  Largest displacement in region 2 =   0.0199 Angstroms

  Final coordinates of region 1 :

--------------------------------------------------------------------------------
   No.  Atomic        x           y           z          Radius      Charge
        Label       (Angs)      (Angs)      (Angs)       (Angs)       (e) 
--------------------------------------------------------------------------------
     1  O     c     2.253894   -2.425027    2.207571    0.000000    0.183000
     2  O     c     2.253894    2.479878    2.212455    0.000000    0.183000
     3  Na    c     2.253894    2.253894    0.000000    0.000000    1.000000
     4  Cl    c     4.713068   -0.003773    4.596835    0.000000    1.485000
     5  Cl    c    -0.205281   -0.003773    4.596835    0.000000    1.485000
     6  Cl    c     4.579792    0.016091   -0.146346    0.000000    1.485000
     7  Cl    c    -0.072005    0.016091   -0.146346    0.000000    1.485000
     8  Na    c     2.253894   -2.633536    4.422634    0.000000    1.000000
     9  Na    c     2.253894   -1.693370    0.094132    0.000000    1.000000
    10  Na    c     2.253894    2.644893    4.429721    0.000000    1.000000
    11  Na    c     4.408066   -1.863235    2.305249    0.000000    1.000000
    12  Na    c     0.099721   -1.863235    2.305249    0.000000    1.000000
    13  Na    c     4.368286    1.774697    2.268963    0.000000    1.000000
    14  Na    c     0.139501    1.774697    2.268963    0.000000    1.000000
    15  Na    c     2.253894    0.029070   -2.527152    0.000000    1.000000
    16  Na    c     2.253894    4.632015    1.887245    0.000000    1.000000
    17  Na    c     2.253894   -4.566356    1.761637    0.000000    1.000000
    18  Na    c    -2.507588    0.003272    2.629680    0.000000    1.000000
    19  Na    c     7.015375    0.003272    2.629680    0.000000    1.000000
    20  Na    c     2.253894    0.000254    6.113276    0.000000    1.000000
    21  O     c     2.253894   -2.234926   -2.189972    0.000000    0.183000
    22  O     c     2.253894    2.303131   -2.269163    0.000000    0.183000
    23  O     c    -2.209350   -2.228890    2.263921    0.000000    0.183000
    24  O     c     6.717137   -2.228890    2.263921    0.000000    0.183000
    25  O     c    -2.182646    2.229794    2.259419    0.000000    0.183000
    26  O     c     6.690433    2.229794    2.259419    0.000000    0.183000
    27  O     c     2.253894   -2.210553    6.700999    0.000000    0.183000
    28  O     c     2.253894    2.210593    6.705540    0.000000    0.183000
    29  Cl    c     4.559165    4.602564    4.608368    0.000000    1.485000
    30  Cl    c    -0.051377    4.602564    4.608368    0.000000    1.485000
    31  Cl    c     4.480886    4.623311   -0.140765    0.000000    1.485000
    32  Cl    c     0.026902    4.623311   -0.140765    0.000000    1.485000
    33  Cl    c     4.577575   -4.575288    4.603894    0.000000    1.485000
    34  Cl    c    -0.069788   -4.575288    4.603894    0.000000    1.485000
    35  Cl    c     4.560544   -4.662361   -0.110683    0.000000    1.485000
    36  Cl    c    -0.052757   -4.662361   -0.110683    0.000000    1.485000
    37  Na    c    -2.160399   -2.557901    4.510604    0.000000    1.000000
    38  Na    c     6.668186   -2.557901    4.510604    0.000000    1.000000
    39  Na    c    -2.251735   -1.883309    0.020727    0.000000    1.000000
    40  Na    c     6.759523   -1.883309    0.020727    0.000000    1.000000
    41  Na    c    -2.110729    2.549129    4.504660    0.000000    1.000000
    42  Na    c     6.618516    2.549129    4.504660    0.000000    1.000000
    43  Na    c    -2.222591    1.902845    0.013821    0.000000    1.000000
    44  Na    c     6.730378    1.902845    0.013821    0.000000    1.000000
    45  Na    c     4.503453   -2.279710   -2.128154    0.000000    1.000000
    46  Na    c     0.004334   -2.279710   -2.128154    0.000000    1.000000
    47  Na    c     4.507698    2.271827   -2.230136    0.000000    1.000000
    48  Na    c     0.000089    2.271827   -2.230136    0.000000    1.000000
    49  Na    c     4.511718   -2.133712    6.745895    0.000000    1.000000
    50  Na    c    -0.003931   -2.133712    6.745895    0.000000    1.000000
    51  Na    c     4.509098    2.124052    6.770897    0.000000    1.000000
    52  Na    c    -0.001311    2.124052    6.770897    0.000000    1.000000
    53  Na    c     2.253894    4.558621   -2.011910    0.000000    1.000000
    54  Na    c     2.253894   -4.490815   -1.826244    0.000000    1.000000
    55  Na    c    -2.175602    0.000739   -2.577906    0.000000    1.000000
    56  Na    c     6.683390    0.000739   -2.577906    0.000000    1.000000
    57  Na    c    -1.814333    4.464966    2.009098    0.000000    1.000000
    58  Na    c     6.322120    4.464966    2.009098    0.000000    1.000000
    59  Na    c    -1.910967   -4.469216    1.989240    0.000000    1.000000
    60  Na    c     6.418754   -4.469216    1.989240    0.000000    1.000000
    61  Na    c     2.253894    4.467809    7.068216    0.000000    1.000000
    62  Na    c     2.253894   -4.463859    7.080348    0.000000    1.000000
    63  Na    c    -2.373295   -0.000810    6.449760    0.000000    1.000000
    64  Na    c     6.881082   -0.000810    6.449760    0.000000    1.000000
    65  O     c    -2.255524   -2.249168   -2.236179    0.000000    0.183000
    66  O     c     6.763311   -2.249168   -2.236179    0.000000    0.183000
    67  O     c    -2.256335    2.253462   -2.246750    0.000000    0.183000
    68  O     c     6.764122    2.253462   -2.246750    0.000000    0.183000
    69  O     c     2.253894    6.847863    2.270919    0.000000    0.183000
    70  O     c     2.253894   -6.799915    2.255515    0.000000    0.183000
    71  O     c    -2.264317   -2.257537    6.765306    0.000000    0.183000
    72  O     c     6.772104   -2.257537    6.765306    0.000000    0.183000
    73  O     c    -2.259829    2.257290    6.760643    0.000000    0.183000
    74  O     c     6.767616    2.257290    6.760643    0.000000    0.183000
    75  Cl    c     4.552403    0.004453    9.065404    0.000000    1.485000
    76  Cl    c    -0.044616    0.004453    9.065404    0.000000    1.485000
    77  Cl    c     4.516235    0.022990   -4.541629    0.000000    1.485000
    78  Cl    c    -0.008448    0.022990   -4.541629    0.000000    1.485000
    79  Cl    c     9.103763   -0.001596    4.568426    0.000000    1.485000
    80  Cl    c    -4.595975   -0.001596    4.568426    0.000000    1.485000
    81  Cl    c     9.041634    0.004797   -0.006920    0.000000    1.485000
    82  Cl    c    -4.533846    0.004797   -0.006920    0.000000    1.485000
    83  Na    c     2.253894   -1.859102    8.967110    0.000000    1.000000
    84  Na    c     2.253894   -2.560435   -4.446725    0.000000    1.000000
    85  Na    c     2.253894    1.864473    8.971284    0.000000    1.000000
    86  Na    c     2.253894    2.580758   -4.505191    0.000000    1.000000
    87  Na    c     2.253894    6.411009    4.505984    0.000000    1.000000
    88  Na    c     2.253894    7.123324   -0.002131    0.000000    1.000000
    89  Na    c     2.253894   -6.347355    4.487448    0.000000    1.000000
    90  Na    c     2.253894   -7.157666   -0.001208    0.000000    1.000000
    91  Na    c     4.502466    6.970190    2.323157    0.000000    1.000000
    92  Na    c     0.005321    6.970190    2.323157    0.000000    1.000000
    93  Na    c     4.500536   -6.881501    2.322166    0.000000    1.000000
    94  Na    c     0.007251   -6.881501    2.322166    0.000000    1.000000
    95  Na    c     8.973617   -2.554639    2.239845    0.000000    1.000000
    96  Na    c    -4.465830   -2.554639    2.239845    0.000000    1.000000
    97  Na    c     8.953879    2.570190    2.235659    0.000000    1.000000
    98  Na    c    -4.446092    2.570190    2.235659    0.000000    1.000000
    99  Na    c     6.784310    4.502745   -1.947028    0.000000    1.000000
   100  Na    c    -2.276522    4.502745   -1.947028    0.000000    1.000000
   101  Na    c     6.822070   -4.501891   -1.937837    0.000000    1.000000
   102  Na    c    -2.314283   -4.501891   -1.937837    0.000000    1.000000
   103  Na    c    -2.150395    4.496087    7.053452    0.000000    1.000000
   104  Na    c     6.658182    4.496087    7.053452    0.000000    1.000000
   105  Na    c    -2.145987   -4.496837    7.055814    0.000000    1.000000
   106  Na    c     6.653774   -4.496837    7.055814    0.000000    1.000000
   107  O     c     2.253894    6.798805   -2.266758    0.000000    0.183000
   108  O     c     2.253894   -6.749953   -2.247560    0.000000    0.183000
   109  O     c    -2.234138    6.720963    2.255894    0.000000    0.183000
   110  O     c     6.741925    6.720963    2.255894    0.000000    0.183000
   111  O     c    -2.242843   -6.726397    2.256506    0.000000    0.183000
   112  O     c     6.750630   -6.726397    2.256506    0.000000    0.183000
   113  O     c     2.253894    6.742802    6.751550    0.000000    0.183000
   114  O     c     2.253894   -6.733135    6.735667    0.000000    0.183000
   115  Cl    c     4.505251    4.526797    9.051088    0.000000    1.485000
   116  Cl    c     0.002537    4.526797    9.051088    0.000000    1.485000
   117  Cl    c     4.516039    4.547810   -4.569432    0.000000    1.485000
   118  Cl    c    -0.008252    4.547810   -4.569432    0.000000    1.485000
   119  Cl    c     4.505400   -4.524780    9.052543    0.000000    1.485000
   120  Cl    c     0.002387   -4.524780    9.052543    0.000000    1.485000
   121  Cl    c     4.522058   -4.533699   -4.574834    0.000000    1.485000
   122  Cl    c    -0.014271   -4.533699   -4.574834    0.000000    1.485000
   123  Cl    c     9.064883    4.508749    4.522062    0.000000    1.485000
   124  Cl    c    -4.557096    4.508749    4.522062    0.000000    1.485000
   125  Cl    c     9.067105    4.526102   -0.016947    0.000000    1.485000
   126  Cl    c    -4.559318    4.526102   -0.016947    0.000000    1.485000
   127  Cl    c     9.067524   -4.500612    4.517346    0.000000    1.485000
   128  Cl    c    -4.559737   -4.500612    4.517346    0.000000    1.485000
   129  Cl    c     9.072146   -4.514164   -0.001647    0.000000    1.485000
   130  Cl    c    -4.564358   -4.514164   -0.001647    0.000000    1.485000
   131  Na    c    -2.301436   -1.983266    9.005511    0.000000    1.000000
   132  Na    c     6.809223   -1.983266    9.005511    0.000000    1.000000
   133  Na    c    -2.230796   -2.532643   -4.483136    0.000000    1.000000
   134  Na    c     6.738583   -2.532643   -4.483136    0.000000    1.000000
   135  Na    c    -2.315301    1.985453    9.003726    0.000000    1.000000
   136  Na    c     6.823088    1.985453    9.003726    0.000000    1.000000
   137  Na    c    -2.263258    2.524382   -4.493478    0.000000    1.000000
   138  Na    c     6.771045    2.524382   -4.493478    0.000000    1.000000
   139  Na    c    -2.316875    6.469218    4.515579    0.000000    1.000000
   140  Na    c     6.824662    6.469218    4.515579    0.000000    1.000000
   141  Na    c    -2.223490    6.977937    0.011356    0.000000    1.000000
   142  Na    c     6.731277    6.977937    0.011356    0.000000    1.000000
   143  Na    c    -2.336893   -6.473325    4.514071    0.000000    1.000000
   144  Na    c     6.844680   -6.473325    4.514071    0.000000    1.000000
   145  Na    c    -2.172236   -6.980990    0.007619    0.000000    1.000000
   146  Na    c     6.680023   -6.980990    0.007619    0.000000    1.000000
   147  Na    c     4.511542    6.710899   -2.233274    0.000000    1.000000
   148  Na    c    -0.003754    6.710899   -2.233274    0.000000    1.000000
   149  Na    c     4.510355   -6.652547   -2.255455    0.000000    1.000000
   150  Na    c    -0.002568   -6.652547   -2.255455    0.000000    1.000000
   151  Na    c     9.010035   -2.186059   -2.237529    0.000000    1.000000
   152  Na    c    -4.502248   -2.186059   -2.237529    0.000000    1.000000
   153  Na    c     9.009915    2.202172   -2.220058    0.000000    1.000000
   154  Na    c    -4.502128    2.202172   -2.220058    0.000000    1.000000
   155  Na    c     4.506129    6.745922    6.663658    0.000000    1.000000
   156  Na    c     0.001658    6.745922    6.663658    0.000000    1.000000
   157  Na    c     4.505919   -6.750492    6.638996    0.000000    1.000000
   158  Na    c     0.001868   -6.750492    6.638996    0.000000    1.000000
   159  Na    c     9.016280   -2.359134    6.706635    0.000000    1.000000
   160  Na    c    -4.508492   -2.359134    6.706635    0.000000    1.000000
   161  Na    c     9.012036    2.357307    6.680981    0.000000    1.000000
   162  Na    c    -4.504249    2.357307    6.680981    0.000000    1.000000
   163  Na    c     2.253894   -0.000201   11.550397    0.000000    1.000000
   164  Na    c     2.253894    0.002333   -6.448284    0.000000    1.000000
   165  Na    c     2.253894    9.061043    2.571076    0.000000    1.000000
   166  Na    c     2.253894   -9.030533    2.571717    0.000000    1.000000
   167  Na    c    10.954555    0.002611    2.328956    0.000000    1.000000
   168  Na    c    -6.446768    0.002611    2.328956    0.000000    1.000000
   169  O     c     2.253894   -2.238995   11.233913    0.000000    0.183000
   170  O     c     2.253894   -2.245961   -6.716652    0.000000    0.183000
   171  O     c     2.253894    2.239064   11.235688    0.000000    0.183000
   172  O     c     2.253894    2.249966   -6.744519    0.000000    0.183000
   173  O     c    11.237049   -2.244672    2.246694    0.000000    0.183000
   174  O     c    -6.729262   -2.244672    2.246694    0.000000    0.183000
   175  O     c    11.228784    2.250118    2.244828    0.000000    0.183000
   176  O     c    -6.720996    2.250118    2.244828    0.000000    0.183000
   177  O     c    -2.264120    6.760000   -2.241233    0.000000    0.183000
   178  O     c     6.771907    6.760000   -2.241233    0.000000    0.183000
   179  O     c    -2.265132   -6.759763   -2.245455    0.000000    0.183000
   180  O     c     6.772919   -6.759763   -2.245455    0.000000    0.183000
   181  O     c    -2.254991    6.747196    6.775478    0.000000    0.183000
   182  O     c     6.762779    6.747196    6.775478    0.000000    0.183000
   183  O     c    -2.254750   -6.746513    6.774249    0.000000    0.183000
   184  O     c     6.762537   -6.746513    6.774249    0.000000    0.183000
   185  Cl    c     4.509836    9.084218    4.510515    0.000000    1.485000
   186  Cl    c    -0.002049    9.084218    4.510515    0.000000    1.485000
   187  Cl    c     4.540803    9.032200    0.010143    0.000000    1.485000
   188  Cl    c    -0.033016    9.032200    0.010143    0.000000    1.485000
   189  Cl    c     4.512944   -9.076377    4.512601    0.000000    1.485000
   190  Cl    c    -0.005157   -9.076377    4.512601    0.000000    1.485000
   191  Cl    c     4.532692   -9.040411    0.008916    0.000000    1.485000
   192  Cl    c    -0.024905   -9.040411    0.008916    0.000000    1.485000
   193  Na    c    11.255580   -2.274894    4.498357    0.000000    1.000000
   194  Na    c    -6.747793   -2.274894    4.498357    0.000000    1.000000
   195  Na    c    11.248877   -2.124288   -0.003935    0.000000    1.000000
   196  Na    c    -6.741090   -2.124288   -0.003935    0.000000    1.000000
   197  Na    c    11.254302    2.283095    4.495388    0.000000    1.000000
   198  Na    c    -6.746515    2.283095    4.495388    0.000000    1.000000
   199  Na    c    11.245492    2.113498   -0.002903    0.000000    1.000000
   200  Na    c    -6.737705    2.113498   -0.002903    0.000000    1.000000
   201  Na    c     4.506956   -2.345507   11.189083    0.000000    1.000000
   202  Na    c     0.000831   -2.345507   11.189083    0.000000    1.000000
   203  Na    c     4.503233   -2.192209   -6.716489    0.000000    1.000000
   204  Na    c     0.004554   -2.192209   -6.716489    0.000000    1.000000
   205  Na    c     4.508156    2.341370   11.186166    0.000000    1.000000
   206  Na    c    -0.000368    2.341370   11.186166    0.000000    1.000000
   207  Na    c     4.507280    2.187893   -6.733128    0.000000    1.000000
   208  Na    c     0.000507    2.187893   -6.733128    0.000000    1.000000
   209  Cl    c     9.053279   -0.000429    9.055731    0.000000    1.485000
   210  Cl    c    -4.545491   -0.000429    9.055731    0.000000    1.485000
   211  Cl    c     9.043380    0.005318   -4.503227    0.000000    1.485000
   212  Cl    c    -4.535593    0.005318   -4.503227    0.000000    1.485000
   213  Na    c     2.253894    6.968906    8.997565    0.000000    1.000000
   214  Na    c     2.253894    6.575844   -4.515085    0.000000    1.000000
   215  Na    c     2.253894   -6.974182    8.987669    0.000000    1.000000
   216  Na    c     2.253894   -6.501193   -4.497409    0.000000    1.000000
   217  Na    c     8.998855    6.511018    2.209136    0.000000    1.000000
   218  Na    c    -4.491067    6.511018    2.209136    0.000000    1.000000
   219  Na    c     9.005176   -6.557183    2.179967    0.000000    1.000000
   220  Na    c    -4.497389   -6.557183    2.179967    0.000000    1.000000
   221  Na    c     2.253894    4.504004   11.029900    0.000000    1.000000
   222  Na    c     2.253894    4.494702   -6.967347    0.000000    1.000000
   223  Na    c     2.253894    9.024686   -2.474371    0.000000    1.000000
   224  Na    c     2.253894   -4.504792   11.023459    0.000000    1.000000
   225  Na    c     2.253894   -4.489586   -6.948689    0.000000    1.000000
   226  Na    c     2.253894   -9.000688   -2.484069    0.000000    1.000000
   227  Na    c    11.289340    0.001439   -2.431219    0.000000    1.000000
   228  Na    c    -6.781552    0.001439   -2.431219    0.000000    1.000000
   229  Na    c    11.451193    4.490245    2.169247    0.000000    1.000000
   230  Na    c    -6.943406    4.490245    2.169247    0.000000    1.000000
   231  Na    c    11.441255   -4.490376    2.181940    0.000000    1.000000
   232  Na    c    -6.933468   -4.490376    2.181940    0.000000    1.000000
   233  Na    c    -2.123876    0.000112   11.423946    0.000000    1.000000
[...]
    234 y          2.253894      2.303183     0.049290    Cartesian    2.19
    234 z         -2.253894     -2.269165    -0.015271    Cartesian    0.68
    235 x         -2.253894     -2.209410     0.044483    Cartesian   -1.97
    235 y         -2.253894     -2.228899     0.024994    Cartesian   -1.11
    235 z          2.253894      2.263936     0.010042    Cartesian    0.45
    236 x         -2.253894     -2.182712     0.071181    Cartesian   -3.16
    236 y          2.253894      2.229796    -0.024097    Cartesian   -1.07
    236 z          2.253894      2.259436     0.005542    Cartesian    0.25
    237 x          2.253894      2.253894     0.000000    Cartesian    0.00
    237 y         -2.253894     -2.210542     0.043352    Cartesian   -1.92
    237 z          6.761681      6.701012    -0.060669    Cartesian   -0.90
    238 x          2.253894      2.253894     0.000000    Cartesian    0.00
    238 y          2.253894      2.210580    -0.043314    Cartesian   -1.92
    238 z          6.761681      6.705556    -0.056125    Cartesian   -0.83
    239 x          4.507787      4.567379     0.059592    Cartesian    1.32
    239 y          4.507787      4.612611     0.104824    Cartesian    2.33
    239 z          4.507787      4.615268     0.107481    Cartesian    2.38
    240 x          4.507787      4.485336    -0.022451    Cartesian   -0.50
    240 y          4.507787      4.629373     0.121586    Cartesian    2.70
    240 z          0.000000     -0.149994    -0.149994    Cartesian    0.00
    241 x          4.507787      4.584496     0.076709    Cartesian    1.70
    241 y         -4.507787     -4.584329    -0.076541    Cartesian    1.70
    241 z          4.507787      4.611408     0.103621    Cartesian    2.30
    242 x          4.507787      4.568012     0.060225    Cartesian    1.34
    242 y         -4.507787     -4.672869    -0.165082    Cartesian    3.66
    242 z          0.000000     -0.120199    -0.120199    Cartesian    0.00
    243 x         -2.253894     -2.255536    -0.001642    Cartesian    0.07
    243 y         -2.253894     -2.249158     0.004735    Cartesian   -0.21
    243 z         -2.253894     -2.236194     0.017700    Cartesian   -0.79
    244 x         -2.253894     -2.256334    -0.002441    Cartesian    0.11
    244 y          2.253894      2.253459    -0.000435    Cartesian   -0.02
    244 z         -2.253894     -2.246777     0.007117    Cartesian   -0.32
    245 x          2.253894      2.253894     0.000000    Cartesian    0.00
    245 y          6.761681      6.847902     0.086221    Cartesian    1.28
    245 z          2.253894      2.270936     0.017043    Cartesian    0.76
    246 x          2.253894      2.253894     0.000000    Cartesian    0.00
    246 y         -6.761681     -6.799975    -0.038294    Cartesian    0.57
    246 z          2.253894      2.255526     0.001632    Cartesian    0.07
    247 x         -2.253894     -2.264325    -0.010432    Cartesian    0.46
    247 y         -2.253894     -2.257560    -0.003666    Cartesian    0.16
    247 z          6.761681      6.765316     0.003635    Cartesian    0.05
    248 x         -2.253894     -2.259832    -0.005939    Cartesian    0.26
    248 y          2.253894      2.257312     0.003418    Cartesian    0.15
    248 z          6.761681      6.760656    -0.001025    Cartesian   -0.02
    249 x          4.507787      4.551321     0.043534    Cartesian    0.97
    249 y          0.000000      0.005138     0.005138    Cartesian    0.00
    249 z          9.015574      9.068312     0.052738    Cartesian    0.58
    250 x          4.507787      4.516601     0.008814    Cartesian    0.20
    250 y          0.000000      0.024975     0.024975    Cartesian    0.00
    250 z         -4.507787     -4.544948    -0.037161    Cartesian    0.82
    251 x          9.015574      9.101547     0.085972    Cartesian    0.95
    251 y          0.000000     -0.001611    -0.001611    Cartesian    0.00
    251 z          4.507787      4.564808     0.057020    Cartesian    1.26
    252 x          9.015574      9.041368     0.025794    Cartesian    0.29
    252 y          0.000000      0.004397     0.004397    Cartesian    0.00
    252 z          0.000000     -0.006908    -0.006908    Cartesian    0.00
    253 x          2.253894      2.253894     0.000000    Cartesian    0.00
    253 y          6.761681      6.798813     0.037132    Cartesian    0.55
    253 z         -2.253894     -2.266778    -0.012884    Cartesian    0.57
    254 x          2.253894      2.253894     0.000000    Cartesian    0.00
    254 y         -6.761681     -6.749987     0.011694    Cartesian   -0.17
    254 z         -2.253894     -2.247568     0.006326    Cartesian   -0.28
    255 x         -2.253894     -2.234099     0.019795    Cartesian   -0.88
    255 y          6.761681      6.721009    -0.040672    Cartesian   -0.60
    255 z          2.253894      2.255866     0.001972    Cartesian    0.09
    256 x         -2.253894     -2.242808     0.011086    Cartesian   -0.49
    256 y         -6.761681     -6.726426     0.035255    Cartesian   -0.52
    256 z          2.253894      2.256478     0.002584    Cartesian    0.11
    257 x          2.253894      2.253894     0.000000    Cartesian    0.00
    257 y          6.761681      6.742822    -0.018859    Cartesian   -0.28
    257 z          6.761681      6.751555    -0.010126    Cartesian   -0.15
    258 x          2.253894      2.253894     0.000000    Cartesian    0.00
    258 y         -6.761681     -6.733148     0.028533    Cartesian   -0.42
    258 z          6.761681      6.735678    -0.026003    Cartesian   -0.38
    259 x          4.507787      4.504908    -0.002880    Cartesian   -0.06
    259 y          4.507787      4.528382     0.020595    Cartesian    0.46
    259 z          9.015574      9.052369     0.036794    Cartesian    0.41
    260 x          4.507787      4.515221     0.007434    Cartesian    0.16
    260 y          4.507787      4.549054     0.041267    Cartesian    0.92
    260 z         -4.507787     -4.575378    -0.067591    Cartesian    1.50
    261 x          4.507787      4.504929    -0.002858    Cartesian   -0.06
    261 y         -4.507787     -4.526097    -0.018310    Cartesian    0.41
    261 z          9.015574      9.054074     0.038500    Cartesian    0.43
    262 x          4.507787      4.522014     0.014227    Cartesian    0.32
    262 y         -4.507787     -4.535380    -0.027592    Cartesian    0.61
    262 z         -4.507787     -4.582044    -0.074257    Cartesian    1.65
    263 x          9.015574      9.064866     0.049292    Cartesian    0.55
    263 y          4.507787      4.509072     0.001285    Cartesian    0.03
    263 z          4.507787      4.519782     0.011995    Cartesian    0.27
    264 x          9.015574      9.070591     0.055017    Cartesian    0.61
    264 y          4.507787      4.529256     0.021468    Cartesian    0.48
    264 z          0.000000     -0.016071    -0.016071    Cartesian    0.00
    265 x          9.015574      9.066362     0.050788    Cartesian    0.56
    265 y         -4.507787     -4.498945     0.008842    Cartesian   -0.20
    265 z          4.507787      4.515519     0.007731    Cartesian    0.17
    266 x          9.015574      9.074248     0.058674    Cartesian    0.65
    266 y         -4.507787     -4.516104    -0.008317    Cartesian    0.18
    266 z          0.000000      0.000038     0.000038    Cartesian    0.00
    267 x          2.253894      2.253894     0.000000    Cartesian    0.00
    267 y         -2.253894     -2.238988     0.014906    Cartesian   -0.66
    267 z         11.269468     11.233951    -0.035517    Cartesian   -0.32
    268 x          2.253894      2.253894     0.000000    Cartesian    0.00
    268 y         -2.253894     -2.245976     0.007917    Cartesian   -0.35
    268 z         -6.761681     -6.716664     0.045017    Cartesian   -0.67
    269 x          2.253894      2.253894     0.000000    Cartesian    0.00
    269 y          2.253894      2.239058    -0.014836    Cartesian   -0.66
    269 z         11.269468     11.235722    -0.033746    Cartesian   -0.30
    270 x          2.253894      2.253894     0.000000    Cartesian    0.00
    270 y          2.253894      2.249988    -0.003906    Cartesian   -0.17
    270 z         -6.761681     -6.744507     0.017174    Cartesian   -0.25
    271 x         11.269468     11.237061    -0.032407    Cartesian   -0.29
    271 y         -2.253894     -2.244696     0.009197    Cartesian   -0.41
    271 z          2.253894      2.246699    -0.007194    Cartesian   -0.32
    272 x         11.269468     11.228808    -0.040660    Cartesian   -0.36
    272 y          2.253894      2.250141    -0.003752    Cartesian   -0.17
    272 z          2.253894      2.244831    -0.009063    Cartesian   -0.40
    273 x         -2.253894     -2.264135    -0.010241    Cartesian    0.45
    273 y          6.761681      6.760030    -0.001650    Cartesian   -0.02
    273 z         -2.253894     -2.241213     0.012680    Cartesian   -0.56
    274 x         -2.253894     -2.265150    -0.011256    Cartesian    0.50
    274 y         -6.761681     -6.759793     0.001888    Cartesian   -0.03
    274 z         -2.253894     -2.245439     0.008455    Cartesian   -0.38
    275 x         -2.253894     -2.254989    -0.001095    Cartesian    0.05
    275 y          6.761681      6.747189    -0.014492    Cartesian   -0.21
    275 z          6.761681      6.775523     0.013842    Cartesian    0.20
    276 x         -2.253894     -2.254749    -0.000855    Cartesian    0.04
    276 y         -6.761681     -6.746508     0.015173    Cartesian   -0.22
    276 z          6.761681      6.774293     0.012612    Cartesian    0.19
    277 x          4.507787      4.504009    -0.003779    Cartesian   -0.08
    277 y          9.015574      9.087973     0.072398    Cartesian    0.80
    277 z          4.507787      4.506138    -0.001650    Cartesian   -0.04
    278 x          4.507787      4.540725     0.032937    Cartesian    0.73
    278 y          9.015574      9.025697     0.010123    Cartesian    0.11
    278 z          0.000000      0.012443     0.012443    Cartesian    0.00
    279 x          4.507787      4.507636    -0.000151    Cartesian   -0.00
    279 y         -9.015574     -9.080871    -0.065297    Cartesian    0.72
    279 z          4.507787      4.510436     0.002648    Cartesian    0.06
    280 x          4.507787      4.532405     0.024618    Cartesian    0.55
    280 y         -9.015574     -9.034754    -0.019180    Cartesian    0.21
    280 z          0.000000      0.010653     0.010653    Cartesian    0.00
    281 x          9.015574      9.050615     0.035041    Cartesian    0.39
    281 y          0.000000     -0.000251    -0.000251    Cartesian    0.00
    281 z          9.015574      9.061627     0.046052    Cartesian    0.51
    282 x          9.015574      9.044222     0.028647    Cartesian    0.32
    282 y          0.000000      0.005464     0.005464    Cartesian    0.00
    282 z         -4.507787     -4.500038     0.007749    Cartesian   -0.17
    283 x         11.269468     11.269162    -0.000306    Cartesian   -0.00
    283 y         -2.253894     -2.241738     0.012156    Cartesian   -0.54
    283 z         -2.253894     -2.260131    -0.006238    Cartesian    0.28
    284 x         11.269468     11.269842     0.000374    Cartesian    0.00
    284 y          2.253894      2.244258    -0.009635    Cartesian   -0.43
    284 z         -2.253894     -2.257691    -0.003797    Cartesian    0.17
    285 x         -2.253894     -2.254903    -0.001009    Cartesian    0.04
    285 y         -2.253894     -2.237471     0.016423    Cartesian   -0.73
    285 z         11.269468     11.259709    -0.009759    Cartesian   -0.09
    286 x         -2.253894     -2.248227     0.005667    Cartesian   -0.25
    286 y         -2.253894     -2.265551    -0.011657    Cartesian    0.52
    286 z         -6.761681     -6.745701     0.015980    Cartesian   -0.24
    287 x         -2.253894     -2.256517    -0.002624    Cartesian    0.12
    287 y          2.253894      2.237657    -0.016237    Cartesian   -0.72
    287 z         11.269468     11.259260    -0.010208    Cartesian   -0.09
    288 x         -2.253894     -2.253687     0.000207    Cartesian   -0.01
    288 y          2.253894      2.266036     0.012142    Cartesian    0.54
    288 z         -6.761681     -6.751436     0.010245    Cartesian   -0.15
    289 x         11.269468     11.273532     0.004064    Cartesian    0.04
    289 y         -2.253894     -2.260809    -0.006916    Cartesian    0.31
    289 z          6.761681      6.754872    -0.006809    Cartesian   -0.10
    290 x         11.269468     11.270757     0.001289    Cartesian    0.01
    290 y          2.253894      2.262002     0.008109    Cartesian    0.36
    290 z          6.761681      6.752399    -0.009282    Cartesian   -0.14
    291 x          9.015574      9.058356     0.042782    Cartesian    0.47
    291 y          4.507787      4.523985     0.016198    Cartesian    0.36
    291 z          9.015574      9.011266    -0.004309    Cartesian   -0.05
    292 x          9.015574      9.027127     0.011553    Cartesian    0.13
    292 y          4.507787      4.513993     0.006206    Cartesian    0.14
    292 z         -4.507787     -4.565323    -0.057535    Cartesian    1.28
    293 x          9.015574      9.062545     0.046970    Cartesian    0.52
    293 y         -4.507787     -4.522235    -0.014447    Cartesian    0.32
    293 z          9.015574      9.010764    -0.004810    Cartesian   -0.05
    294 x          9.015574      9.030439     0.014864    Cartesian    0.16
    294 y         -4.507787     -4.501749     0.006039    Cartesian   -0.13
    294 z         -4.507787     -4.562489    -0.054701    Cartesian    1.21
    295 x          2.253894      2.253894     0.000000    Cartesian    0.00
    295 y         11.269468     11.279175     0.009707    Cartesian    0.09
    295 z          2.253894      2.273246     0.019353    Cartesian    0.86
    296 x          2.253894      2.253894     0.000000    Cartesian    0.00
    296 y        -11.269468    -11.266527     0.002941    Cartesian   -0.03
    296 z          2.253894      2.274718     0.020824    Cartesian    0.92
    297 x          2.253894      2.253894     0.000000    Cartesian    0.00
    297 y          6.761681      6.762023     0.000342    Cartesian    0.01
    297 z         11.269468     11.256662    -0.012806    Cartesian   -0.11
    298 x          2.253894      2.253894     0.000000    Cartesian    0.00
    298 y          6.761681      6.753523    -0.008157    Cartesian   -0.12
    298 z         -6.761681     -6.770208    -0.008527    Cartesian    0.13
    299 x          2.253894      2.253894     0.000000    Cartesian    0.00
    299 y         -6.761681     -6.762281    -0.000601    Cartesian    0.01
    299 z         11.269468     11.252710    -0.016758    Cartesian   -0.15
    300 x          2.253894      2.253894     0.000000    Cartesian    0.00
    300 y         -6.761681     -6.749175     0.012506    Cartesian   -0.18
    300 z         -6.761681     -6.759888     0.001793    Cartesian   -0.03
    301 x         11.269468     11.268012    -0.001456    Cartesian   -0.01
    301 y          6.761681      6.745031    -0.016650    Cartesian   -0.25
    301 z          2.253894      2.246287    -0.007607    Cartesian   -0.34
    302 x         11.269468     11.272144     0.002676    Cartesian    0.02
    302 y         -6.761681     -6.747136     0.014545    Cartesian   -0.22
    302 z          2.253894      2.245997    -0.007897    Cartesian   -0.35
    303 x          4.507787      4.557008     0.049221    Cartesian    1.09
    303 y          0.000000      0.000078     0.000078    Cartesian    0.00
    303 z         13.523362     13.554905     0.031543    Cartesian    0.23
    304 x          4.507787      4.473629    -0.034158    Cartesian   -0.76
    304 y          0.000000     -0.001089    -0.001089    Cartesian    0.00
    304 z         -9.015574     -9.089177    -0.073602    Cartesian    0.82
    305 x         13.523362     13.599130     0.075768    Cartesian    0.56
    305 y          0.000000      0.002836     0.002836    Cartesian    0.00
    305 z          4.507787      4.470291    -0.037497    Cartesian   -0.83
    306 x         13.523362     13.588244     0.064882    Cartesian    0.48
    306 y          0.000000      0.003466     0.003466    Cartesian    0.00
    306 z          0.000000      0.000939     0.000939    Cartesian    0.00
    307 x          4.507787      4.517792     0.010005    Cartesian    0.22
    307 y          9.015574      9.024249     0.008675    Cartesian    0.10
    307 z          9.015574      9.065432     0.049858    Cartesian    0.55
    308 x          4.507787      4.503951    -0.003836    Cartesian   -0.09
    308 y          9.015574      9.093305     0.077730    Cartesian    0.86
    308 z         -4.507787     -4.519233    -0.011445    Cartesian    0.25
    309 x          4.507787      4.519296     0.011509    Cartesian    0.26
    309 y         -9.015574     -9.021741    -0.006166    Cartesian    0.07
    309 z          9.015574      9.066855     0.051281    Cartesian    0.57
    310 x          4.507787      4.507649    -0.000138    Cartesian   -0.00
    310 y         -9.015574     -9.097132    -0.081557    Cartesian    0.90
    310 z         -4.507787     -4.513025    -0.005238    Cartesian    0.12
    311 x          9.015574      8.993781    -0.021793    Cartesian   -0.24
    311 y          9.015574      9.111432     0.095858    Cartesian    1.06
    311 z          4.507787      4.514406     0.006618    Cartesian    0.15
    312 x          9.015574      9.051346     0.035772    Cartesian    0.40
    312 y          9.015574      9.024989     0.009415    Cartesian    0.10
    312 z          0.000000     -0.009562    -0.009562    Cartesian    0.00
    313 x          9.015574      8.996547    -0.019027    Cartesian   -0.21
    313 y         -9.015574     -9.106649    -0.091075    Cartesian    1.01
    313 z          4.507787      4.516593     0.008806    Cartesian    0.20
    314 x          9.015574      9.068302     0.052728    Cartesian    0.58
    314 y         -9.015574     -9.012946     0.002629    Cartesian   -0.03
    314 z          0.000000     -0.011963    -0.011963    Cartesian    0.00
--------------------------------------------------------------------------------


  Time to end of optimisation  =       72.0055 seconds


  Peak dynamic memory used =      90.18 MB 


  Timing analysis for GULP :

--------------------------------------------------------------------------------
  Task / Subroutine                                          Time (Seconds)
--------------------------------------------------------------------------------
  Calculation of reciprocal space energy and derivatives          0.0006
  Calculation of reciprocal space energy using symmetry           0.0008
  Calculation of real space energy and derivatives                0.0031
  Calculation of real space energy using symmetry                 0.0076
  Calculation for region 1 energy and derivatives (2-b)          38.1273
  Calculation for region 2a energy                               29.7496
  Calculation for region 2b energy                                0.0112
  Calculation and manipulation of Hessian matrix                  0.1394
  Calculation of matrix inversion                                 3.6656
  Symmetry generation of equivalent positions                     0.0039
--------------------------------------------------------------------------------
  Total CPU time                                                 72.0055
--------------------------------------------------------------------------------


  Dump file written as Na3OCl.grs


  Job Finished at 10:51.16  4th December   2020                               

