********************************************************************************
*                       GENERAL UTILITY LATTICE PROGRAM                        *
*                                 Julian Gale                                  *
*                       Curtin Institute for Computation                       *
*                    School of Molecular and Life Sciences                     *
*                    Curtin University, Western Australia                      *
********************************************************************************
* Version = 5.2.0 * Last modified =  10th September 2020                       *
********************************************************************************
*  optimise     - perform optimisation run                                     *
*  conp         - constant pressure calculation                                *
*  property     - calculate properties for final geometry                      *
*  defect       - perform defect calculation after bulk run                    *
*  compare      - compare initial and final structures                         *
********************************************************************************

  Job Started  at 12:00.14 13th December   2020                               

  Number of CPUs =     1


  Total number of configurations input =      1

********************************************************************************
*  Input for Configuration =   1                                               *
********************************************************************************

  Formula = ClONa3                                                      

  Number of irreducible atoms/shells =       5


  Total number atoms/shells =       7

  Dimensionality = 3               :  Bulk   


  Symmetry :

  Crystal family                   :  Cubic       
  Crystal class  (Groth - 1921)    :  Cubic Hexakisoctahedral              

  Space group (centrosymmetric)    :  P M 3 M         

  Patterson group                  :  P m -3 m 

  Cartesian lattice vectors (Angstroms) :

        4.504000    0.000000    0.000000
        0.000000    4.504000    0.000000
        0.000000    0.000000    4.504000

  Cell parameters (Angstroms/Degrees):

  a =       4.5040    alpha =  90.0000
  b =       4.5040    beta  =  90.0000
  c =       4.5040    gamma =  90.0000

  Initial cell volume =          91.368216 Angs**3

  Temperature of configuration =   0.00     K 

  Pressure of configuration =         0.000 GPa 

  Fractional coordinates of asymmetric unit :

--------------------------------------------------------------------------------
   No.  Atomic       x           y          z         Charge      Occupancy
        Label      (Frac)      (Frac)     (Frac)        (e)         (Frac)  
--------------------------------------------------------------------------------
      1 Cl    c    0.000000    0.000000    0.000000     1.48500    1.000000    
      2 O     c    0.500000    0.500000    0.500000     0.18300    1.000000    
      3 Na    c    0.500000    0.500000    0.000000     1.00000    1.000000    
      4 Cl    s    0.000000    0.000000    0.000000    -2.48500    1.000000    
      5 O     s    0.500000    0.500000    0.500000    -2.18300    1.000000    
--------------------------------------------------------------------------------


  Constraints : 

--------------------------------------------------------------------------------
  Constraint no.      Unconstrained     Constrained    Coefficient    Offset
                         Variable         Variable
--------------------------------------------------------------------------------
           1              Strain 1        Strain 2       1.00000      0.0000
           2              Strain 1        Strain 3       1.00000      0.0000
--------------------------------------------------------------------------------


********************************************************************************
*  General input information                                                   *
********************************************************************************

  Species output for all configurations : 

--------------------------------------------------------------------------------
  Species    Type    Atomic    Atomic    Charge       Radii (Angs)     Library
                     Number     Mass       (e)     Cova   Ionic  VDW   Symbol
--------------------------------------------------------------------------------
    Na       Core       11      22.99   1.000000   0.970  0.000  2.300          
    O        Core        8      16.00   0.183000   0.730  0.000  1.360          
    O        Shell       8       0.00  -2.183000   0.730  0.000  1.360          
    Cl       Core       17      35.45   1.485000   0.990  0.000  1.650          
    Cl       Shell      17       0.00  -2.485000   0.990  0.000  1.650          
    Mg       Core       12      24.31   0.415000   1.100  0.000  0.000          
    Mg       Shell      12       0.00   1.585000   1.100  0.000  0.000          
    Ca       Core       20      40.08  -1.135000   0.990  0.000  0.000          
    Ca       Shell      20       0.00   3.135000   0.990  0.000  0.000          
    Sr       Core       38      87.62  -1.251000   1.120  0.000  0.000          
    Sr       Shell      38       0.00   3.251000   1.120  0.000  0.000          
    Ba       Core       56     137.33  -7.203000   1.340  0.000  0.000          
    Ba       Shell      56       0.00   9.203000   1.340  0.000  0.000          
--------------------------------------------------------------------------------


  Lattice summation method               =    Ewald          (3-D)
                                         =    Parry          (2-D)
                                         =    Saunders et al (1-D)
  Accuracy factor for lattice sums       =   12.000


  Analytic derivatives to be used

  Time limit = Infinity

  Maximum range for interatomic potentials =    100000.000000 Angstroms

  General interatomic potentials :

--------------------------------------------------------------------------------
Atom  Types   Potential      Parameter       Value         Units   Cutoffs(Ang)
  1     2                                                            Min /  Max 
--------------------------------------------------------------------------------
O    c O    s Spring (c-s)  Spring k 2       593.71600    eV*Ang^-2 0.000  0.800
                            Spring k 4       0.0000000    eV*Ang^-4 
--------------------------------------------------------------------------------
Cl   c Cl   s Spring (c-s)  Spring k 2       29.380000    eV*Ang^-2 0.000  0.800
                            Spring k 4       0.0000000    eV*Ang^-4 
--------------------------------------------------------------------------------
Mg   c Mg   s Spring (c-s)  Spring k 2       361.60000    eV*Ang^-2 0.000  0.800
                            Spring k 4       0.0000000    eV*Ang^-4 
--------------------------------------------------------------------------------
Ca   c Ca   s Spring (c-s)  Spring k 2       110.20000    eV*Ang^-2 0.000  0.800
                            Spring k 4       0.0000000    eV*Ang^-4 
--------------------------------------------------------------------------------
Sr   c Sr   s Spring (c-s)  Spring k 2       71.700000    eV*Ang^-2 0.000  0.800
                            Spring k 4       0.0000000    eV*Ang^-4 
--------------------------------------------------------------------------------
Ba   c Ba   s Spring (c-s)  Spring k 2       495.20000    eV*Ang^-2 0.000  0.800
                            Spring k 4       0.0000000    eV*Ang^-4 
--------------------------------------------------------------------------------
Na   c Na   c Buckingham    Buckingham A     1788.1900    eV        0.000 12.000
                            Buckingham rho  0.15900000    Ang       
                            Buckingham C     0.0000000    eV*Ang^6  
--------------------------------------------------------------------------------
Na   c O    s Buckingham    Buckingham A     1226.8400    eV        0.000 12.000
                            Buckingham rho  0.30700000    Ang       
                            Buckingham C     0.0000000    eV*Ang^6  
--------------------------------------------------------------------------------
Na   c Cl   s Buckingham    Buckingham A     2314.7000    eV        0.000 12.000
                            Buckingham rho  0.29000000    Ang       
                            Buckingham C     0.0000000    eV*Ang^6  
--------------------------------------------------------------------------------
O    s O    s Buckingham    Buckingham A     22764.300    eV        0.000 12.000
                            Buckingham rho  0.14900000    Ang       
                            Buckingham C     13.190000    eV*Ang^6  
--------------------------------------------------------------------------------
O    s Cl   s Buckingham    Buckingham A     8286.9100    eV        0.000 12.000
                            Buckingham rho  0.25900000    Ang       
                            Buckingham C     62.200000    eV*Ang^6  
--------------------------------------------------------------------------------
Cl   s Cl   s Buckingham    Buckingham A     1227.2000    eV        0.000 12.000
                            Buckingham rho  0.32100000    Ang       
                            Buckingham C     14.530000    eV*Ang^6  
--------------------------------------------------------------------------------
O    s Mg   s Buckingham    Buckingham A     1428.5000    eV        0.000 12.000
                            Buckingham rho  0.29450000    Ang       
                            Buckingham C     0.0000000    eV*Ang^6  
--------------------------------------------------------------------------------
Mg   s Cl   s Buckingham    Buckingham A     4914.5400    eV        0.000 12.000
                            Buckingham rho  0.25700000    Ang       
                            Buckingham C     0.0000000    eV*Ang^6  
--------------------------------------------------------------------------------
O    s Ca   s Buckingham    Buckingham A     1090.4000    eV        0.000 12.000
                            Buckingham rho  0.34370000    Ang       
                            Buckingham C     0.0000000    eV*Ang^6  
--------------------------------------------------------------------------------
Cl   s Ca   s Buckingham    Buckingham A     2302.0000    eV        0.000 12.000
                            Buckingham rho  0.34020000    Ang       
                            Buckingham C     0.0000000    eV*Ang^6  
--------------------------------------------------------------------------------
O    s Sr   s Buckingham    Buckingham A     959.10000    eV        0.000 12.000
                            Buckingham rho  0.37210000    Ang       
                            Buckingham C     0.0000000    eV*Ang^6  
--------------------------------------------------------------------------------
Cl   s Sr   s Buckingham    Buckingham A     2191.0900    eV        0.000 12.000
                            Buckingham rho  0.34570000    Ang       
                            Buckingham C     0.0000000    eV*Ang^6  
--------------------------------------------------------------------------------
O    s Ba   s Buckingham    Buckingham A     905.70000    eV        0.000 12.000
                            Buckingham rho  0.39760000    Ang       
                            Buckingham C     0.0000000    eV*Ang^6  
--------------------------------------------------------------------------------
Cl   s Ba   s Buckingham    Buckingham A     2704.5500    eV        0.000 12.000
                            Buckingham rho  0.35280000    Ang       
                            Buckingham C     0.0000000    eV*Ang^6  
--------------------------------------------------------------------------------

********************************************************************************
*  Output for configuration   1                                                *
********************************************************************************


  Components of energy : 

--------------------------------------------------------------------------------
  Interatomic potentials     =           5.13022605 eV    
  Monopole - monopole (real) =         -10.03624526 eV    
  Monopole - monopole (recip)=         -29.53581274 eV    
  Monopole - monopole (total)=         -39.57205800 eV    
--------------------------------------------------------------------------------
  Total lattice energy       =         -34.44183194 eV    
--------------------------------------------------------------------------------
  Total lattice energy       =           -3323.1103 kJ/(mole unit cells)
--------------------------------------------------------------------------------


  Number of variables =        1

  Maximum number of calculations  =          1000
  Maximum Hessian update interval =            10
  Maximum step size               =   1.000000000
  Maximum parameter tolerance     =   0.000010000
  Maximum function  tolerance     =   0.000010000
  Maximum gradient  tolerance     =   0.001000000
  Maximum gradient  component     =   0.010000000

  Symmetry constrained optimisation

  Symmetry used for second derivatives

  Cell parameters to be optimised using strains

  Newton-Raphson optimiser to be used

  BFGS hessian update to be used

  Lower half triangular hessian to be used

  Start of bulk optimisation :

  Cycle:      0 Energy:       -34.441832  Gnorm:      0.196570  CPU:    0.008
  ** Hessian calculated **
  Cycle:      1 Energy:       -34.441914  Gnorm:      0.000103  CPU:    0.009


  **** Optimisation achieved ****


  Final energy =     -34.44191447 eV
  Final Gnorm  =       0.00000000

  Components of energy : 

--------------------------------------------------------------------------------
  Interatomic potentials     =           5.09689708 eV    
  Monopole - monopole (real) =         -10.02781331 eV    
  Monopole - monopole (recip)=         -29.51099824 eV    
  Monopole - monopole (total)=         -39.53881155 eV    
--------------------------------------------------------------------------------
  Total lattice energy       =         -34.44191447 eV    
--------------------------------------------------------------------------------
  Total lattice energy       =           -3323.1183 kJ/(mole unit cells)
--------------------------------------------------------------------------------

  Final asymmetric unit coordinates :

--------------------------------------------------------------------------------
   No.  Atomic        x           y           z         Radius
        Label       (Frac)      (Frac)      (Frac)       (Angs) 
--------------------------------------------------------------------------------
     1  Cl    c     0.000000    0.000000    0.000000    0.000000
     2  O     c     0.500000    0.500000    0.500000    0.000000
     3  Na    c     0.500000    0.500000    0.000000    0.000000
     4  Cl    s     0.000000    0.000000    0.000000    0.000000
     5  O     s     0.500000    0.500000    0.500000    0.000000
--------------------------------------------------------------------------------

  Final Cartesian lattice vectors (Angstroms) :

        4.507787    0.000000    0.000000
        0.000000    4.507787    0.000000
        0.000000    0.000000    4.507787


  Final cell parameters and derivatives :

--------------------------------------------------------------------------------
       a            4.507787 Angstrom     dE/de1(xx)     0.000000 eV/strain
       b            4.507787 Angstrom     dE/de2(yy)     0.000000 eV/strain
       c            4.507787 Angstrom     dE/de3(zz)     0.000000 eV/strain
       alpha       90.000000 Degrees      dE/de4(yz)     0.000000 eV/strain
       beta        90.000000 Degrees      dE/de5(xz)     0.000000 eV/strain
       gamma       90.000000 Degrees      dE/de6(xy)     0.000000 eV/strain
--------------------------------------------------------------------------------

  Primitive cell volume =            91.598892 Angs**3

  Density of cell =      2.183054 g/cm**3

  Non-primitive cell volume =            91.598892 Angs**3


  Final internal derivatives :

--------------------------------------------------------------------------------
   No.  Atomic          a             b             c           Radius
        Label          (eV)          (eV)          (eV)        (eV/Angs)
--------------------------------------------------------------------------------
      1 Cl    c       0.000000      0.000000      0.000000      0.000000
      2 O     c       0.000000      0.000000      0.000000      0.000000
      3 Na    c       0.000000      0.000000      0.000000      0.000000
      4 Cl    s       0.000000      0.000000      0.000000      0.000000
      5 O     s       0.000000      0.000000      0.000000      0.000000
--------------------------------------------------------------------------------
  Maximum abs         0.000000      0.000000      0.000000      0.000000
--------------------------------------------------------------------------------

  Comparison of initial and final structures : 

--------------------------------------------------------------------------------
  Parameter   Initial value   Final value   Difference    Units      Percent
--------------------------------------------------------------------------------
    Volume        91.368216     91.598892     0.230676    Angs**3      0.25
    a              4.504000      4.507787     0.003787    Angstroms    0.08
    b              4.504000      4.507787     0.003787    Angstroms    0.08
    c              4.504000      4.507787     0.003787    Angstroms    0.08
    alpha         90.000000     90.000000     0.000000    Degrees      0.00
    beta          90.000000     90.000000     0.000000    Degrees      0.00
    gamma         90.000000     90.000000     0.000000    Degrees      0.00
      1 x          0.000000      0.000000     0.000000    Fractional   0.00
      1 y          0.000000      0.000000     0.000000    Fractional   0.00
      1 z          0.000000      0.000000     0.000000    Fractional   0.00
      2 x          0.500000      0.500000     0.000000    Fractional   0.00
      2 y          0.500000      0.500000     0.000000    Fractional   0.00
      2 z          0.500000      0.500000     0.000000    Fractional   0.00
      3 x          0.500000      0.500000     0.000000    Fractional   0.00
      3 y          0.500000      0.500000     0.000000    Fractional   0.00
      3 z          0.000000      0.000000     0.000000    Fractional   0.00
      4 x          0.000000      0.000000     0.000000    Fractional   0.00
      4 y          0.000000      0.000000     0.000000    Fractional   0.00
      4 z          0.000000      0.000000     0.000000    Fractional   0.00
      5 x          0.500000      0.500000     0.000000    Fractional   0.00
      5 y          0.500000      0.500000     0.000000    Fractional   0.00
      5 z          0.500000      0.500000     0.000000    Fractional   0.00
--------------------------------------------------------------------------------


  Born effective charge tensors : 

-------------------------------------------------------------------------------
  Atom             x           y             z
-------------------------------------------------------------------------------
    1 Cl    x      -1.0181     -0.0000      0.0000
            y      -0.0000     -1.0181      0.0000
            z       0.0000      0.0000     -1.0181
-------------------------------------------------------------------------------
    2 O     x      -2.2647      0.0000     -0.0000
            y       0.0000     -2.2647     -0.0000
            z      -0.0000     -0.0000     -2.2647
-------------------------------------------------------------------------------
    3 Na    x       1.2258     -0.0000      0.0000
            y      -0.0000      1.2258     -0.0000
            z       0.0000     -0.0000      0.8313
-------------------------------------------------------------------------------




  Elastic Constant Matrix: (Units=GPa)

-------------------------------------------------------------------------------
  Indices      1         2         3         4         5         6    
-------------------------------------------------------------------------------
       1     95.8177   20.0737   20.0737   -0.0000   -0.0000    0.0000
       2     20.0737   95.8177   20.0737   -0.0000   -0.0000    0.0000
       3     20.0737   20.0737   95.8177   -0.0000   -0.0000    0.0000
       4     -0.0000   -0.0000   -0.0000   20.0737   -0.0000    0.0000
       5     -0.0000   -0.0000   -0.0000   -0.0000   20.0737    0.0000
       6      0.0000    0.0000    0.0000    0.0000    0.0000   20.0737
-------------------------------------------------------------------------------


  Elastic Compliance Matrix: (Units=1/GPa)

-------------------------------------------------------------------------------
  Indices      1         2         3         4         5         6    
-------------------------------------------------------------------------------
       1    0.011253 -0.001949 -0.001949  0.000000  0.000000 -0.000000
       2   -0.001949  0.011253 -0.001949  0.000000  0.000000  0.000000
       3   -0.001949 -0.001949  0.011253  0.000000  0.000000 -0.000000
       4    0.000000  0.000000  0.000000  0.049816  0.000000 -0.000000
       5    0.000000  0.000000  0.000000  0.000000  0.049816 -0.000000
       6   -0.000000  0.000000 -0.000000 -0.000000 -0.000000  0.049816
-------------------------------------------------------------------------------

  Mechanical properties :

-------------------------------------------------------------------------------
  Convention :                    Reuss         Voigt         Hill
-------------------------------------------------------------------------------
  Bulk  Modulus (GPa)     =      45.32174      45.32174      45.32174
  Shear Modulus (GPa)     =      24.72085      27.19304      25.95695
-------------------------------------------------------------------------------
  Velocity S-wave (km/s)  =       3.36511       3.52937       3.44822
  Velocity P-wave (km/s)  =       5.98827       6.11304       6.05098
-------------------------------------------------------------------------------
  Compressibility (1/GPa) =    0.02206447
-------------------------------------------------------------------------------
  Stress axis :                     x             y             z
-------------------------------------------------------------------------------
  Youngs Moduli (GPa)     =      88.86373      88.86373      88.86373
-------------------------------------------------------------------------------
  Poissons Ratio (x)      =                     0.17321       0.17321
  Poissons Ratio (y)      =       0.17321                     0.17321
  Poissons Ratio (z)      =       0.17321       0.17321
-------------------------------------------------------------------------------


  Piezoelectric Strain Matrix: (Units=C/m**2)

-------------------------------------------------------------------------------
  Indices      1         2         3         4         5         6    
-------------------------------------------------------------------------------
       x    -0.00000  -0.00000  -0.00000   0.00000  -0.00000  -0.00000
       y    -0.00000  -0.00000   0.00000  -0.00000   0.00000   0.00000
       z    -0.00000  -0.00000  -0.00000  -0.00000   0.00000   0.00000
-------------------------------------------------------------------------------


  Piezoelectric Stress Matrix: (Units=10**-11 C/N)

-------------------------------------------------------------------------------
  Indices      1         2         3         4         5         6    
-------------------------------------------------------------------------------
       x    -0.00000   0.00000   0.00000   0.00000  -0.00000  -0.00000
       y    -0.00000  -0.00000   0.00000  -0.00000   0.00000   0.00000
       z     0.00000   0.00000  -0.00000  -0.00000   0.00000   0.00000
-------------------------------------------------------------------------------


  Static dielectric constant tensor : 

-------------------------------------------------------------------------------
              x         y         z
-------------------------------------------------------------------------------
       x    22.84729   0.00000   0.00000
       y     0.00000  22.84729  -0.00000
       z     0.00000  -0.00000  22.84729
--------------------------------------------------------------------------------

  High frequency dielectric constant tensor : 

-------------------------------------------------------------------------------
              x         y         z
-------------------------------------------------------------------------------
       x     1.47557   0.00000  -0.00000
       y     0.00000   1.47557  -0.00000
       z    -0.00000  -0.00000   1.47557
-------------------------------------------------------------------------------

  Static refractive indices : 

-------------------------------------------------------------------------------
    1 =    4.77988      2 =    4.77988      3 =    4.77988
-------------------------------------------------------------------------------

  High frequency refractive indices : 

-------------------------------------------------------------------------------
    1 =    1.21473      2 =    1.21473      3 =    1.21473
-------------------------------------------------------------------------------


  Time to end of optimisation =       0.0125 seconds

********************************************************************************
*  Defect calculation for configuration   1 :                                  *
********************************************************************************

  Total number of defects =      3

  Total charge on defect  =  -1.00

  Defect centre is at   0.5000   0.2500   0.2500  Frac

  Region 1 radius =  12.0000      Number of ions =    543

  Number of symmetry inequivalent region 1 ions  =    315

  Region 2 radius =  16.0000      Number of ions =    766

  Number of symmetry inequivalent region 2a ions =    417

  Region 2a mode = 4 : screened electrostatics due to region 1 
                       neglect correction to region 1 forces from 2a
                       region 2a displacements based on defects only

  Region 2a ions will only interact with defects in region 1

  Vacancies:

--------------------------------------------------------------------------------
    Specification type     Symbol/Number         x          y          z
--------------------------------------------------------------------------------
    Fractional                               0.500000   0.500000   0.000000
    Fractional                               0.500000   0.000000   0.500000
--------------------------------------------------------------------------------

  Interstitials:

--------------------------------------------------------------------------------
    Specification type     Symbol/Number         x          y          z
--------------------------------------------------------------------------------
    Atom/Fractional         Na               0.500000   0.000000   0.500000
--------------------------------------------------------------------------------


  Symmetry reduced region 1 (Relative to defect centre) :

--------------------------------------------------------------------------------
   No.   Atomic       x            y             z       Radius  Multiplicity   
         Label      (Angs)       (Angs)        (Angs)    (Angs)     
--------------------------------------------------------------------------------
     1  O     c      0.0000       1.1269 *     1.1269 *  0.0000     1          
     2  Na    c      0.0000      -1.1269       1.1269    0.0000     1          
     3  Cl    c      2.2539 *    -1.1269 *    -1.1269 *  0.0000     2          
     4  Na    c      2.2539 *     1.1269 *     1.1269 *  0.0000     2          
     5  O     c      0.0000       1.1269 *    -3.3808 *  0.0000     1          
     6  O     c      0.0000      -3.3808 *     1.1269 *  0.0000     1          
     7  Na    c      0.0000       1.1269 *     3.3808 *  0.0000     1          
     8  Na    c      0.0000      -3.3808 *    -1.1269 *  0.0000     1          
     9  Na    c      0.0000      -1.1269 *    -3.3808 *  0.0000     1          
    10  Na    c      0.0000       3.3808 *     1.1269 *  0.0000     1          
    11  Cl    c      2.2539 *    -1.1269 *     3.3808 *  0.0000     2          
    12  Cl    c      2.2539 *     3.3808 *    -1.1269 *  0.0000     2          
    13  Na    c      2.2539 *     1.1269 *    -3.3808 *  0.0000     2          
    14  Na    c      2.2539 *    -3.3808 *     1.1269 *  0.0000     2          
    15  O     c     -4.5078 *     1.1269 *     1.1269 *  0.0000     2          
    16  Na    c     -4.5078 *     1.1269 *    -1.1269 *  0.0000     2          
    17  Na    c     -4.5078 *    -1.1269 *     1.1269 *  0.0000     2          
    18  O     c      0.0000      -3.3808 *    -3.3808 *  0.0000     1          
    19  Na    c      0.0000      -3.3808 *     3.3808 *  0.0000     1          
    20  Na    c      0.0000       3.3808 *    -3.3808 *  0.0000     1          
    21  Cl    c      2.2539 *     3.3808 *     3.3808 *  0.0000     2          
    22  Na    c      2.2539 *    -3.3808 *    -3.3808 *  0.0000     2          
    23  O     c      0.0000       1.1269 *     5.6347 *  0.0000     1          
    24  O     c      0.0000       5.6347 *     1.1269 *  0.0000     1          
    25  Na    c      0.0000       1.1269 *    -5.6347 *  0.0000     1          
    26  Na    c      0.0000       5.6347 *    -1.1269 *  0.0000     1          
    27  Na    c      0.0000      -1.1269 *     5.6347 *  0.0000     1          
    28  Na    c      0.0000      -5.6347 *     1.1269 *  0.0000     1          
    29  O     c     -4.5078 *     1.1269 *    -3.3808 *  0.0000     2          
    30  O     c     -4.5078 *    -3.3808 *     1.1269 *  0.0000     2          
    31  Na    c     -4.5078 *     1.1269 *     3.3808 *  0.0000     2          
    32  Na    c     -4.5078 *    -3.3808 *    -1.1269 *  0.0000     2          
    33  Na    c     -4.5078 *    -1.1269 *    -3.3808 *  0.0000     2          
    34  Na    c     -4.5078 *     3.3808 *     1.1269 *  0.0000     2          
    35  Cl    c      2.2539 *    -1.1269 *    -5.6347 *  0.0000     2          
    36  Cl    c      2.2539 *    -5.6347 *    -1.1269 *  0.0000     2          
    37  Na    c      2.2539 *     1.1269 *     5.6347 *  0.0000     2          
    38  Na    c      2.2539 *     5.6347 *     1.1269 *  0.0000     2          
    39  O     c      0.0000       5.6347 *    -3.3808 *  0.0000     1          
    40  O     c      0.0000      -3.3808 *     5.6347 *  0.0000     1          
    41  Na    c      0.0000       5.6347 *     3.3808 *  0.0000     1          
    42  Na    c      0.0000      -3.3808 *    -5.6347 *  0.0000     1          
    43  Na    c      0.0000       3.3808 *     5.6347 *  0.0000     1          
    44  Na    c      0.0000      -5.6347 *    -3.3808 *  0.0000     1          
    45  O     c      4.5078 *    -3.3808 *    -3.3808 *  0.0000     2          
    46  Na    c      4.5078 *    -3.3808 *     3.3808 *  0.0000     2          
    47  Na    c      4.5078 *     3.3808 *    -3.3808 *  0.0000     2          
    48  Cl    c      2.2539 *     3.3808 *    -5.6347 *  0.0000     2          
    49  Cl    c      2.2539 *    -5.6347 *     3.3808 *  0.0000     2          
    50  Na    c      2.2539 *     5.6347 *    -3.3808 *  0.0000     2          
    51  Na    c      2.2539 *    -3.3808 *     5.6347 *  0.0000     2          
    52  Cl    c      6.7617 *    -1.1269 *    -1.1269 *  0.0000     2          
    53  Na    c      6.7617 *     1.1269 *     1.1269 *  0.0000     2          
    54  O     c     -4.5078 *     1.1269 *     5.6347 *  0.0000     2          
    55  Na    c     -4.5078 *     1.1269 *    -5.6347 *  0.0000     2          
    56  Na    c     -4.5078 *    -1.1269 *     5.6347 *  0.0000     2          
    57  O     c      4.5078 *     5.6347 *     1.1269 *  0.0000     2          
    58  Na    c      4.5078 *     5.6347 *    -1.1269 *  0.0000     2          
    59  Na    c      4.5078 *    -5.6347 *     1.1269 *  0.0000     2          
    60  Cl    c      6.7617 *    -1.1269 *     3.3808 *  0.0000     2          
    61  Na    c      6.7617 *     1.1269 *    -3.3808 *  0.0000     2          
    62  Cl    c      6.7617 *     3.3808 *    -1.1269 *  0.0000     2          
    63  Na    c      6.7617 *    -3.3808 *     1.1269 *  0.0000     2          
    64  O     c      0.0000       5.6347 *     5.6347 *  0.0000     1          
    65  Na    c      0.0000       5.6347 *    -5.6347 *  0.0000     1          
    66  Na    c      0.0000      -5.6347 *     5.6347 *  0.0000     1          
    67  O     c     -4.5078 *    -3.3808 *     5.6347 *  0.0000     2          
    68  Na    c     -4.5078 *    -3.3808 *    -5.6347 *  0.0000     2          
    69  Na    c     -4.5078 *     3.3808 *     5.6347 *  0.0000     2          
    70  O     c      0.0000       1.1269 *    -7.8886 *  0.0000     1          
    71  O     c      0.0000      -7.8886 *     1.1269 *  0.0000     1          
    72  O     c      4.5078 *     5.6347 *    -3.3808 *  0.0000     2          
    73  Na    c      0.0000       1.1269 *     7.8886 *  0.0000     1          
    74  Na    c      0.0000      -7.8886 *    -1.1269 *  0.0000     1          
    75  Na    c      4.5078 *     5.6347 *     3.3808 *  0.0000     2          
    76  Na    c      0.0000      -1.1269 *    -7.8886 *  0.0000     1          
    77  Na    c      0.0000       7.8886 *     1.1269 *  0.0000     1          
    78  Na    c      4.5078 *    -5.6347 *    -3.3808 *  0.0000     2          
    79  Cl    c      2.2539 *    -5.6347 *    -5.6347 *  0.0000     2          
    80  Na    c      2.2539 *     5.6347 *     5.6347 *  0.0000     2          
    81  Cl    c      2.2539 *    -1.1269 *     7.8886 *  0.0000     2          
    82  Na    c      2.2539 *     1.1269 *    -7.8886 *  0.0000     2          
    83  Cl    c      2.2539 *     7.8886 *    -1.1269 *  0.0000     2          
    84  Cl    c      6.7617 *     3.3808 *     3.3808 *  0.0000     2          
    85  Na    c      2.2539 *    -7.8886 *     1.1269 *  0.0000     2          
    86  Na    c      6.7617 *    -3.3808 *    -3.3808 *  0.0000     2          
    87  O     c      0.0000      -3.3808 *    -7.8886 *  0.0000     1          
    88  O     c      0.0000      -7.8886 *    -3.3808 *  0.0000     1          
    89  Na    c      0.0000      -3.3808 *     7.8886 *  0.0000     1          
    90  Na    c      0.0000      -7.8886 *     3.3808 *  0.0000     1          
    91  Na    c      0.0000       3.3808 *    -7.8886 *  0.0000     1          
    92  Na    c      0.0000       7.8886 *    -3.3808 *  0.0000     1          
    93  Cl    c      2.2539 *     3.3808 *     7.8886 *  0.0000     2          
    94  Cl    c      6.7617 *    -1.1269 *    -5.6347 *  0.0000     2          
    95  Na    c      2.2539 *    -3.3808 *    -7.8886 *  0.0000     2          
    96  Na    c      6.7617 *     1.1269 *     5.6347 *  0.0000     2          
    97  Cl    c      2.2539 *     7.8886 *     3.3808 *  0.0000     2          
    98  Cl    c      6.7617 *    -5.6347 *    -1.1269 *  0.0000     2          
    99  Na    c      2.2539 *    -7.8886 *    -3.3808 *  0.0000     2          
   100  Na    c      6.7617 *     5.6347 *     1.1269 *  0.0000     2          
   101  O     c      4.5078 *     5.6347 *     5.6347 *  0.0000     2          
   102  O     c      4.5078 *    -7.8886 *     1.1269 *  0.0000     2          
   103  O     c      9.0156 *     1.1269 *     1.1269 *  0.0000     2          
   104  O     c     -4.5078 *     1.1269 *    -7.8886 *  0.0000     2          
   105  Na    c      4.5078 *     5.6347 *    -5.6347 *  0.0000     2          
   106  Na    c      4.5078 *    -7.8886 *    -1.1269 *  0.0000     2          
   107  Na    c      9.0156 *     1.1269 *    -1.1269 *  0.0000     2          
   108  Na    c     -4.5078 *     1.1269 *     7.8886 *  0.0000     2          
   109  Na    c      4.5078 *     7.8886 *     1.1269 *  0.0000     2          
   110  Na    c      4.5078 *    -5.6347 *     5.6347 *  0.0000     2          
   111  Na    c      9.0156 *    -1.1269 *     1.1269 *  0.0000     2          
   112  Na    c     -4.5078 *    -1.1269 *    -7.8886 *  0.0000     2          
   113  Cl    c      6.7617 *     3.3808 *    -5.6347 *  0.0000     2          
   114  Na    c      6.7617 *    -3.3808 *     5.6347 *  0.0000     2          
   115  Cl    c      6.7617 *    -5.6347 *     3.3808 *  0.0000     2          
   116  Na    c      6.7617 *     5.6347 *    -3.3808 *  0.0000     2          
   117  O     c      0.0000       5.6347 *    -7.8886 *  0.0000     1          
   118  O     c      0.0000      -7.8886 *     5.6347 *  0.0000     1          
   119  O     c      9.0156 *    -3.3808 *     1.1269 *  0.0000     2          
   120  O     c     -4.5078 *    -3.3808 *    -7.8886 *  0.0000     2          
   121  Na    c      0.0000       5.6347 *     7.8886 *  0.0000     1          
   122  Na    c      0.0000      -7.8886 *    -5.6347 *  0.0000     1          
   123  Na    c      9.0156 *    -3.3808 *    -1.1269 *  0.0000     2          
   124  Na    c     -4.5078 *    -3.3808 *     7.8886 *  0.0000     2          
   125  Na    c      0.0000       7.8886 *     5.6347 *  0.0000     1          
   126  Na    c      0.0000      -5.6347 *    -7.8886 *  0.0000     1          
   127  Na    c      9.0156 *     3.3808 *     1.1269 *  0.0000     2          
   128  Na    c     -4.5078 *     3.3808 *    -7.8886 *  0.0000     2          
   129  O     c      4.5078 *    -7.8886 *    -3.3808 *  0.0000     2          
   130  O     c      9.0156 *     1.1269 *    -3.3808 *  0.0000     2          
   131  Na    c      4.5078 *    -7.8886 *     3.3808 *  0.0000     2          
   132  Na    c      9.0156 *     1.1269 *     3.3808 *  0.0000     2          
   133  Na    c      4.5078 *     7.8886 *    -3.3808 *  0.0000     2          
   134  Na    c      9.0156 *    -1.1269 *    -3.3808 *  0.0000     2          
   135  Cl    c      2.2539 *     7.8886 *    -5.6347 *  0.0000     2          
   136  Cl    c      2.2539 *    -5.6347 *     7.8886 *  0.0000     2          
   137  Na    c      2.2539 *     5.6347 *    -7.8886 *  0.0000     2          
   138  Na    c      2.2539 *    -7.8886 *     5.6347 *  0.0000     2          
   139  O     c      0.0000      10.1425 *     1.1269 *  0.0000     1          
   140  Na    c      0.0000      10.1425 *    -1.1269 *  0.0000     1          
   141  Na    c      0.0000     -10.1425 *     1.1269 *  0.0000     1          
   142  O     c      0.0000       1.1269 *    10.1425 *  0.0000     1          
   143  O     c      9.0156 *    -3.3808 *    -3.3808 *  0.0000     2          
   144  Na    c      0.0000       1.1269 *   -10.1425 *  0.0000     1          
   145  Na    c      9.0156 *    -3.3808 *     3.3808 *  0.0000     2          
   146  Na    c      0.0000      -1.1269 *    10.1425 *  0.0000     1          
   147  Na    c      9.0156 *     3.3808 *    -3.3808 *  0.0000     2          
   148  Cl    c      6.7617 *    -5.6347 *    -5.6347 *  0.0000     2          
   149  Na    c      6.7617 *     5.6347 *     5.6347 *  0.0000     2          
   150  Cl    c      2.2539 *    -1.1269 *   -10.1425 *  0.0000     2          
   151  Cl    c      2.2539 *   -10.1425 *    -1.1269 *  0.0000     2          
   152  Cl    c      6.7617 *    -1.1269 *     7.8886 *  0.0000     2          
   153  Cl    c      6.7617 *     7.8886 *    -1.1269 *  0.0000     2          
   154  Na    c      2.2539 *     1.1269 *    10.1425 *  0.0000     2          
   155  Na    c      2.2539 *    10.1425 *     1.1269 *  0.0000     2          
   156  Na    c      6.7617 *     1.1269 *    -7.8886 *  0.0000     2          
   157  Na    c      6.7617 *    -7.8886 *     1.1269 *  0.0000     2          
   158  O     c      4.5078 *     5.6347 *    -7.8886 *  0.0000     2          
   159  O     c      4.5078 *    -7.8886 *     5.6347 *  0.0000     2          
   160  O     c      9.0156 *     1.1269 *     5.6347 *  0.0000     2          
   161  O     c      9.0156 *     5.6347 *     1.1269 *  0.0000     2          
   162  Na    c      4.5078 *     5.6347 *     7.8886 *  0.0000     2          
   163  Na    c      4.5078 *    -7.8886 *    -5.6347 *  0.0000     2          
   164  Na    c      9.0156 *     1.1269 *    -5.6347 *  0.0000     2          
   165  Na    c      9.0156 *     5.6347 *    -1.1269 *  0.0000     2          
   166  Na    c      4.5078 *     7.8886 *     5.6347 *  0.0000     2          
   167  Na    c      4.5078 *    -5.6347 *    -7.8886 *  0.0000     2          
   168  Na    c      9.0156 *    -1.1269 *     5.6347 *  0.0000     2          
   169  Na    c      9.0156 *    -5.6347 *     1.1269 *  0.0000     2          
   170  O     c      0.0000      10.1425 *    -3.3808 *  0.0000     1          
   171  O     c      0.0000      -3.3808 *    10.1425 *  0.0000     1          
   172  Na    c      0.0000      10.1425 *     3.3808 *  0.0000     1          
   173  Na    c      0.0000      -3.3808 *   -10.1425 *  0.0000     1          
   174  Na    c      0.0000       3.3808 *    10.1425 *  0.0000     1          
   175  Na    c      0.0000     -10.1425 *    -3.3808 *  0.0000     1          
   176  Cl    c      2.2539 *     3.3808 *   -10.1425 *  0.0000     2          
   177  Cl    c      2.2539 *   -10.1425 *     3.3808 *  0.0000     2          
   178  Cl    c      6.7617 *     7.8886 *     3.3808 *  0.0000     2          
   179  Na    c      2.2539 *    10.1425 *    -3.3808 *  0.0000     2          
   180  Na    c      2.2539 *    -3.3808 *    10.1425 *  0.0000     2          
   181  Na    c      6.7617 *    -7.8886 *    -3.3808 *  0.0000     2          
   182  Cl    c      6.7617 *     3.3808 *     7.8886 *  0.0000     2          
   183  Na    c      6.7617 *    -3.3808 *    -7.8886 *  0.0000     2          
   184  O     c      9.0156 *    -3.3808 *     5.6347 *  0.0000     2          
   185  O     c     -4.5078 *    10.1425 *     1.1269 *  0.0000     2          
   186  Na    c      9.0156 *    -3.3808 *    -5.6347 *  0.0000     2          
   187  Na    c     -4.5078 *    10.1425 *    -1.1269 *  0.0000     2          
   188  Na    c      9.0156 *     3.3808 *     5.6347 *  0.0000     2          
   189  Na    c     -4.5078 *   -10.1425 *     1.1269 *  0.0000     2          
   190  O     c      0.0000      -7.8886 *    -7.8886 *  0.0000     1          
   191  O     c      4.5078 *     1.1269 *    10.1425 *  0.0000     2          
   192  O     c      9.0156 *     5.6347 *    -3.3808 *  0.0000     2          
   193  Na    c      0.0000      -7.8886 *     7.8886 *  0.0000     1          
   194  Na    c      4.5078 *     1.1269 *   -10.1425 *  0.0000     2          
   195  Na    c      9.0156 *     5.6347 *     3.3808 *  0.0000     2          
   196  Na    c      0.0000       7.8886 *    -7.8886 *  0.0000     1          
   197  Na    c      4.5078 *    -1.1269 *    10.1425 *  0.0000     2          
   198  Na    c      9.0156 *    -5.6347 *    -3.3808 *  0.0000     2          
   199  Cl    c     11.2695 *    -1.1269 *    -1.1269 *  0.0000     2          
   200  Na    c     11.2695 *     1.1269 *     1.1269 *  0.0000     2          
   201  Cl    c      2.2539 *     7.8886 *     7.8886 *  0.0000     2          
   202  Na    c      2.2539 *    -7.8886 *    -7.8886 *  0.0000     2          
   203  O     c      0.0000       5.6347 *    10.1425 *  0.0000     1          
   204  O     c      0.0000      10.1425 *     5.6347 *  0.0000     1          
   205  O     c     -4.5078 *    10.1425 *    -3.3808 *  0.0000     2          
   206  Na    c      0.0000       5.6347 *   -10.1425 *  0.0000     1          
   207  Na    c      0.0000      10.1425 *    -5.6347 *  0.0000     1          
   208  Na    c     -4.5078 *    10.1425 *     3.3808 *  0.0000     2          
   209  Na    c      0.0000      -5.6347 *    10.1425 *  0.0000     1          
   210  Na    c      0.0000     -10.1425 *     5.6347 *  0.0000     1          
   211  Na    c     -4.5078 *   -10.1425 *    -3.3808 *  0.0000     2          
   212  O     c      4.5078 *    -3.3808 *    10.1425 *  0.0000     2          
   213  Na    c      4.5078 *    -3.3808 *   -10.1425 *  0.0000     2          
   214  Na    c      4.5078 *     3.3808 *    10.1425 *  0.0000     2          
   215  Cl    c     11.2695 *    -1.1269 *     3.3808 *  0.0000     2          
   216  Cl    c     11.2695 *     3.3808 *    -1.1269 *  0.0000     2          
   217  Na    c     11.2695 *     1.1269 *    -3.3808 *  0.0000     2          
   218  Na    c     11.2695 *    -3.3808 *     1.1269 *  0.0000     2          
   219  Cl    c      2.2539 *    -5.6347 *   -10.1425 *  0.0000     2          
   220  Cl    c      2.2539 *   -10.1425 *    -5.6347 *  0.0000     2          
   221  Cl    c      6.7617 *     7.8886 *    -5.6347 *  0.0000     2          
   222  Na    c      2.2539 *     5.6347 *    10.1425 *  0.0000     2          
   223  Na    c      2.2539 *    10.1425 *     5.6347 *  0.0000     2          
   224  Na    c      6.7617 *    -7.8886 *     5.6347 *  0.0000     2          
   225  Cl    c      6.7617 *    -5.6347 *     7.8886 *  0.0000     2          
   226  Na    c      6.7617 *     5.6347 *    -7.8886 *  0.0000     2          
   227  O     s      0.0000       1.1269 *     1.1269 *  0.0000     1          
   228  Cl    s      2.2539 *    -1.1269 *    -1.1269 *  0.0000     2          
   229  O     s      0.0000       1.1269 *    -3.3808 *  0.0000     1          
   230  O     s      0.0000      -3.3808 *     1.1269 *  0.0000     1          
   231  Cl    s      2.2539 *    -1.1269 *     3.3808 *  0.0000     2          
   232  Cl    s      2.2539 *     3.3808 *    -1.1269 *  0.0000     2          
   233  O     s     -4.5078 *     1.1269 *     1.1269 *  0.0000     2          
   234  O     s      0.0000      -3.3808 *    -3.3808 *  0.0000     1          
   235  Cl    s      2.2539 *     3.3808 *     3.3808 *  0.0000     2          
   236  O     s      0.0000       1.1269 *     5.6347 *  0.0000     1          
   237  O     s      0.0000       5.6347 *     1.1269 *  0.0000     1          
   238  O     s     -4.5078 *     1.1269 *    -3.3808 *  0.0000     2          
   239  O     s     -4.5078 *    -3.3808 *     1.1269 *  0.0000     2          
   240  Cl    s      2.2539 *    -1.1269 *    -5.6347 *  0.0000     2          
   241  Cl    s      2.2539 *    -5.6347 *    -1.1269 *  0.0000     2          
   242  O     s      0.0000       5.6347 *    -3.3808 *  0.0000     1          
   243  O     s      0.0000      -3.3808 *     5.6347 *  0.0000     1          
   244  O     s      4.5078 *    -3.3808 *    -3.3808 *  0.0000     2          
   245  Cl    s      2.2539 *     3.3808 *    -5.6347 *  0.0000     2          
   246  Cl    s      2.2539 *    -5.6347 *     3.3808 *  0.0000     2          
   247  Cl    s      6.7617 *    -1.1269 *    -1.1269 *  0.0000     2          
   248  O     s     -4.5078 *     1.1269 *     5.6347 *  0.0000     2          
   249  O     s      4.5078 *     5.6347 *     1.1269 *  0.0000     2          
   250  Cl    s      6.7617 *    -1.1269 *     3.3808 *  0.0000     2          
   251  Cl    s      6.7617 *     3.3808 *    -1.1269 *  0.0000     2          
   252  O     s      0.0000       5.6347 *     5.6347 *  0.0000     1          
   253  O     s     -4.5078 *    -3.3808 *     5.6347 *  0.0000     2          
   254  O     s      0.0000       1.1269 *    -7.8886 *  0.0000     1          
   255  O     s      0.0000      -7.8886 *     1.1269 *  0.0000     1          
   256  O     s      4.5078 *     5.6347 *    -3.3808 *  0.0000     2          
   257  Cl    s      2.2539 *    -5.6347 *    -5.6347 *  0.0000     2          
   258  Cl    s      2.2539 *    -1.1269 *     7.8886 *  0.0000     2          
   259  Cl    s      2.2539 *     7.8886 *    -1.1269 *  0.0000     2          
   260  Cl    s      6.7617 *     3.3808 *     3.3808 *  0.0000     2          
   261  O     s      0.0000      -3.3808 *    -7.8886 *  0.0000     1          
   262  O     s      0.0000      -7.8886 *    -3.3808 *  0.0000     1          
   263  Cl    s      2.2539 *     3.3808 *     7.8886 *  0.0000     2          
   264  Cl    s      6.7617 *    -1.1269 *    -5.6347 *  0.0000     2          
   265  Cl    s      2.2539 *     7.8886 *     3.3808 *  0.0000     2          
   266  Cl    s      6.7617 *    -5.6347 *    -1.1269 *  0.0000     2          
   267  O     s      4.5078 *     5.6347 *     5.6347 *  0.0000     2          
   268  O     s      4.5078 *    -7.8886 *     1.1269 *  0.0000     2          
   269  O     s      9.0156 *     1.1269 *     1.1269 *  0.0000     2          
   270  O     s     -4.5078 *     1.1269 *    -7.8886 *  0.0000     2          
   271  Cl    s      6.7617 *     3.3808 *    -5.6347 *  0.0000     2          
   272  Cl    s      6.7617 *    -5.6347 *     3.3808 *  0.0000     2          
   273  O     s      0.0000       5.6347 *    -7.8886 *  0.0000     1          
   274  O     s      0.0000      -7.8886 *     5.6347 *  0.0000     1          
   275  O     s      9.0156 *    -3.3808 *     1.1269 *  0.0000     2          
   276  O     s     -4.5078 *    -3.3808 *    -7.8886 *  0.0000     2          
   277  O     s      4.5078 *    -7.8886 *    -3.3808 *  0.0000     2          
   278  O     s      9.0156 *     1.1269 *    -3.3808 *  0.0000     2          
   279  Cl    s      2.2539 *     7.8886 *    -5.6347 *  0.0000     2          
   280  Cl    s      2.2539 *    -5.6347 *     7.8886 *  0.0000     2          
   281  O     s      0.0000      10.1425 *     1.1269 *  0.0000     1          
   282  O     s      0.0000       1.1269 *    10.1425 *  0.0000     1          
   283  O     s      9.0156 *    -3.3808 *    -3.3808 *  0.0000     2          
   284  Cl    s      6.7617 *    -5.6347 *    -5.6347 *  0.0000     2          
   285  Cl    s      2.2539 *    -1.1269 *   -10.1425 *  0.0000     2          
   286  Cl    s      2.2539 *   -10.1425 *    -1.1269 *  0.0000     2          
   287  Cl    s      6.7617 *    -1.1269 *     7.8886 *  0.0000     2          
   288  Cl    s      6.7617 *     7.8886 *    -1.1269 *  0.0000     2          
   289  O     s      4.5078 *     5.6347 *    -7.8886 *  0.0000     2          
   290  O     s      4.5078 *    -7.8886 *     5.6347 *  0.0000     2          
   291  O     s      9.0156 *     1.1269 *     5.6347 *  0.0000     2          
   292  O     s      9.0156 *     5.6347 *     1.1269 *  0.0000     2          
   293  O     s      0.0000      10.1425 *    -3.3808 *  0.0000     1          
   294  O     s      0.0000      -3.3808 *    10.1425 *  0.0000     1          
   295  Cl    s      2.2539 *     3.3808 *   -10.1425 *  0.0000     2          
   296  Cl    s      2.2539 *   -10.1425 *     3.3808 *  0.0000     2          
   297  Cl    s      6.7617 *     7.8886 *     3.3808 *  0.0000     2          
   298  Cl    s      6.7617 *     3.3808 *     7.8886 *  0.0000     2          
   299  O     s      9.0156 *    -3.3808 *     5.6347 *  0.0000     2          
   300  O     s     -4.5078 *    10.1425 *     1.1269 *  0.0000     2          
   301  O     s      0.0000      -7.8886 *    -7.8886 *  0.0000     1          
   302  O     s      4.5078 *     1.1269 *    10.1425 *  0.0000     2          
   303  O     s      9.0156 *     5.6347 *    -3.3808 *  0.0000     2          
   304  Cl    s     11.2695 *    -1.1269 *    -1.1269 *  0.0000     2          
   305  Cl    s      2.2539 *     7.8886 *     7.8886 *  0.0000     2          
   306  O     s      0.0000       5.6347 *    10.1425 *  0.0000     1          
   307  O     s      0.0000      10.1425 *     5.6347 *  0.0000     1          
   308  O     s     -4.5078 *    10.1425 *    -3.3808 *  0.0000     2          
   309  O     s      4.5078 *    -3.3808 *    10.1425 *  0.0000     2          
   310  Cl    s     11.2695 *    -1.1269 *     3.3808 *  0.0000     2          
   311  Cl    s     11.2695 *     3.3808 *    -1.1269 *  0.0000     2          
   312  Cl    s      2.2539 *    -5.6347 *   -10.1425 *  0.0000     2          
   313  Cl    s      2.2539 *   -10.1425 *    -5.6347 *  0.0000     2          
   314  Cl    s      6.7617 *     7.8886 *    -5.6347 *  0.0000     2          
   315  Cl    s      6.7617 *    -5.6347 *     7.8886 *  0.0000     2          
--------------------------------------------------------------------------------

  Components of defect energy : 

--------------------------------------------------------------------------------
  Region 1 - region 1                   =      8.70914283 eV
  Region 1 - region 2a (unrelaxed)      =     -0.14444981 eV
  Region 1 - 2a (relaxed - correction)  =     -0.29457772 eV
  Region 1 (Total)                      =      8.27011531 eV
  Region 2a                             =      0.14721292 eV
  Region 2b                             =     -0.43461752 eV
--------------------------------------------------------------------------------
  Total defect energy                   =      7.98271071 eV
--------------------------------------------------------------------------------

  Largest displacement in region 2 =   0.0230 Angstroms


  Number of variables =      856

  Maximum number of calculations  =        1000
  Maximum Hessian update interval =          10
  Maximum step size               =   1.0000000
  Maximum parameter tolerance     =   0.0000100
  Maximum function  tolerance     =   0.0000100
  Maximum gradient  tolerance     =   0.0010000

  Symmetry adapted optimisation

  Symmetry to be used for second derivatives

  Newton-Raphson optimiser to be used

  BFGS hessian update to be used

  Lower half triangular hessian to be used

  Start of defect optimisation :

  Cycle:      0 Defect Energy:   7.982711  Gnorm:     0.020226  CPU:    1.263
  ** Hessian calculated **
  Cycle:      1 Defect Energy:   7.177818  Gnorm:     0.017107  CPU:    7.016
  ** Hessian calculated **
  Cycle:      2 Defect Energy:   6.368268  Gnorm:     0.013229  CPU:   12.783
  Cycle:      3 Defect Energy:   6.010159  Gnorm:     0.010009  CPU:   17.598
  ** Hessian calculated **
  Cycle:      4 Defect Energy:   5.478857  Gnorm:     0.003320  CPU:   22.580
  Cycle:      5 Defect Energy:   5.415650  Gnorm:     0.002196  CPU:   23.510
  Cycle:      6 Defect Energy:   5.344261  Gnorm:     0.001749  CPU:   24.231
  Cycle:      7 Defect Energy:   5.263469  Gnorm:     0.001353  CPU:   25.135
  Cycle:      8 Defect Energy:   5.179585  Gnorm:     0.001185  CPU:   26.154
  Cycle:      9 Defect Energy:   5.117158  Gnorm:     0.001120  CPU:   27.187
  Cycle:     10 Defect Energy:   5.068515  Gnorm:     0.001261  CPU:   28.183
  Cycle:     11 Defect Energy:   5.022034  Gnorm:     0.001512  CPU:   29.230
  Cycle:     12 Defect Energy:   4.972854  Gnorm:     0.001530  CPU:   30.117
  Cycle:     13 Defect Energy:   4.918988  Gnorm:     0.001747  CPU:   31.070
  ** Hessian calculated **
  Cycle:     14 Defect Energy:   4.900175  Gnorm:     0.001454  CPU:   33.406
  Cycle:     15 Defect Energy:   4.877529  Gnorm:     0.001369  CPU:   34.391
  Cycle:     16 Defect Energy:   4.850404  Gnorm:     0.001253  CPU:   35.254
  Cycle:     17 Defect Energy:   4.816950  Gnorm:     0.001220  CPU:   36.130
  Cycle:     18 Defect Energy:   4.780504  Gnorm:     0.001265  CPU:   37.045
  Cycle:     19 Defect Energy:   4.746251  Gnorm:     0.001328  CPU:   37.923
  Cycle:     20 Defect Energy:   4.714443  Gnorm:     0.001445  CPU:   38.841
  Cycle:     21 Defect Energy:   4.685927  Gnorm:     0.001534  CPU:   39.386
  Cycle:     22 Defect Energy:   4.659642  Gnorm:     0.001539  CPU:   41.266
  Cycle:     23 Defect Energy:   4.631527  Gnorm:     0.001541  CPU:   44.690
  ** Hessian calculated **
  Cycle:     24 Defect Energy:   4.616330  Gnorm:     0.001376  CPU:   47.438
  Cycle:     25 Defect Energy:   4.598116  Gnorm:     0.001348  CPU:   48.554
  Cycle:     26 Defect Energy:   4.575200  Gnorm:     0.001234  CPU:   49.778
  Cycle:     27 Defect Energy:   4.552176  Gnorm:     0.001225  CPU:   50.849
  Cycle:     28 Defect Energy:   4.531656  Gnorm:     0.001227  CPU:   51.931
  Cycle:     29 Defect Energy:   4.510499  Gnorm:     0.001269  CPU:   52.958
  Cycle:     30 Defect Energy:   4.485914  Gnorm:     0.001346  CPU:   54.015
  Cycle:     31 Defect Energy:   4.458004  Gnorm:     0.001430  CPU:   55.177
  Cycle:     32 Defect Energy:   4.432760  Gnorm:     0.001473  CPU:   56.140
  Cycle:     33 Defect Energy:   4.410903  Gnorm:     0.001488  CPU:   57.114
  ** Hessian calculated **
  Cycle:     34 Defect Energy:   4.332240  Gnorm:     0.001298  CPU:   59.816
  Cycle:     35 Defect Energy:   4.232850  Gnorm:     0.000879  CPU:   60.797
  Cycle:     36 Defect Energy:   4.196803  Gnorm:     0.000568  CPU:   61.806
  Cycle:     37 Defect Energy:   4.181962  Gnorm:     0.000399  CPU:   62.900
  Cycle:     38 Defect Energy:   4.174682  Gnorm:     0.000251  CPU:   63.998
  Cycle:     39 Defect Energy:   4.170809  Gnorm:     0.000085  CPU:   64.924
  Cycle:     40 Defect Energy:   4.169944  Gnorm:     0.000044  CPU:   65.833
  Cycle:     41 Defect Energy:   4.169719  Gnorm:     0.000022  CPU:   66.720
  Cycle:     42 Defect Energy:   4.169703  Gnorm:     0.000015  CPU:   67.615


  **** Optimisation achieved ****


  Final defect energy  =        4.16970074
  Final defect Gnorm   =        0.00000998

  Components of defect energy : 

--------------------------------------------------------------------------------
  Region 1 - region 1                   =      5.67715140 eV
  Region 1 - region 2a (unrelaxed)      =     -0.96494739 eV
  Region 1 - 2a (relaxed - correction)  =     -0.22141106 eV
  Region 1 (Total)                      =      4.49079295 eV
  Region 2a                             =      0.11062034 eV
  Region 2b                             =     -0.43171256 eV
--------------------------------------------------------------------------------
  Total defect energy                   =      4.16970074 eV
--------------------------------------------------------------------------------

  Largest displacement in region 2 =   0.0230 Angstroms

  Final coordinates of region 1 :

--------------------------------------------------------------------------------
   No.  Atomic        x           y           z          Radius      Charge
        Label       (Angs)      (Angs)      (Angs)       (Angs)       (e) 
--------------------------------------------------------------------------------
     1  O     c     2.253894    2.250996    2.383548    0.000000    0.183000
     2  Na    c     2.253894   -0.000000    2.253894    0.000000    1.000000
     3  Cl    c     4.662924   -0.126999    0.032162    0.000000    1.485000
     4  Cl    c    -0.155137   -0.126999    0.032162    0.000000    1.485000
     5  Na    c     4.416292    2.204731    1.871429    0.000000    1.000000
     6  Na    c     0.091496    2.204731    1.871429    0.000000    1.000000
     7  O     c     2.253894    2.292741   -2.414517    0.000000    0.183000
     8  O     c     2.253894   -2.266714    2.171669    0.000000    0.183000
     9  Na    c     2.253894    2.629710    4.535438    0.000000    1.000000
    10  Na    c     2.253894   -1.806148   -0.049265    0.000000    1.000000
    11  Na    c     2.253894    0.071431   -2.594404    0.000000    1.000000
    12  Na    c     2.253894    4.410487    1.780719    0.000000    1.000000
    13  Cl    c     4.599630   -0.115045    4.587214    0.000000    1.485000
    14  Cl    c    -0.091843   -0.115045    4.587214    0.000000    1.485000
    15  Cl    c     4.584132    4.618008    0.004953    0.000000    1.485000
    16  Cl    c    -0.076344    4.618008    0.004953    0.000000    1.485000
    17  Na    c     4.395425    2.216165   -1.804851    0.000000    1.000000
    18  Na    c     0.112362    2.216165   -1.804851    0.000000    1.000000
    19  Na    c     4.518919   -2.323003    2.124538    0.000000    1.000000
    20  Na    c    -0.011132   -2.323003    2.124538    0.000000    1.000000
    21  O     c    -2.213726    2.228575    2.236063    0.000000    0.183000
    22  O     c     6.721513    2.228575    2.236063    0.000000    0.183000
    23  Na    c    -2.496133    1.876040    0.007922    0.000000    1.000000
    24  Na    c     7.003920    1.876040    0.007922    0.000000    1.000000
    25  Na    c    -2.108455   -0.018182    2.570270    0.000000    1.000000
    26  Na    c     6.616243   -0.018182    2.570270    0.000000    1.000000
    27  O     c     2.253894   -2.230033   -2.249861    0.000000    0.183000
    28  Na    c     2.253894   -2.545821    4.444850    0.000000    1.000000
    29  Na    c     2.253894    4.434905   -1.794807    0.000000    1.000000
    30  Cl    c     4.547741    4.607899    4.639624    0.000000    1.485000
    31  Cl    c    -0.039954    4.607899    4.639624    0.000000    1.485000
    32  Na    c     4.515788   -2.291236   -2.173338    0.000000    1.000000
    33  Na    c    -0.008001   -2.291236   -2.173338    0.000000    1.000000
    34  O     c     2.253894    2.221237    6.786861    0.000000    0.183000
    35  O     c     2.253894    6.698992    2.254722    0.000000    0.183000
    36  Na    c     2.253894    2.707751   -4.556402    0.000000    1.000000
    37  Na    c     2.253894    7.093806    0.008381    0.000000    1.000000
    38  Na    c     2.253894    0.005985    6.263903    0.000000    1.000000
    39  Na    c     2.253894   -4.506162    1.834932    0.000000    1.000000
    40  O     c    -2.196206    2.223869   -2.217677    0.000000    0.183000
    41  O     c     6.703993    2.223869   -2.217677    0.000000    0.183000
    42  O     c    -2.270889   -2.270638    2.258684    0.000000    0.183000
    43  O     c     6.778677   -2.270638    2.258684    0.000000    0.183000
    44  Na    c    -1.937640    2.538701    4.474679    0.000000    1.000000
    45  Na    c     6.445427    2.538701    4.474679    0.000000    1.000000
    46  Na    c    -2.374702   -1.924556    0.003146    0.000000    1.000000
    47  Na    c     6.882489   -1.924556    0.003146    0.000000    1.000000
    48  Na    c    -2.097591   -0.012834   -2.572009    0.000000    1.000000
    49  Na    c     6.605378   -0.012834   -2.572009    0.000000    1.000000
    50  Na    c    -2.273845    4.479683    1.906694    0.000000    1.000000
    51  Na    c     6.781632    4.479683    1.906694    0.000000    1.000000
    52  Cl    c     4.565488   -0.111866   -4.591214    0.000000    1.485000
    53  Cl    c    -0.057701   -0.111866   -4.591214    0.000000    1.485000
    54  Cl    c     4.530258   -4.534769   -0.019909    0.000000    1.485000
    55  Cl    c    -0.022471   -4.534769   -0.019909    0.000000    1.485000
    56  Na    c     4.502948    2.126596    6.870728    0.000000    1.000000
    57  Na    c     0.004839    2.126596    6.870728    0.000000    1.000000
    58  Na    c     4.506370    6.640595    2.340648    0.000000    1.000000
    59  Na    c     0.001417    6.640595    2.340648    0.000000    1.000000
    60  O     c     2.253894    6.709964   -2.241780    0.000000    0.183000
    61  O     c     2.253894   -2.222527    6.726267    0.000000    0.183000
    62  Na    c     2.253894    6.343432    4.501941    0.000000    1.000000
    63  Na    c     2.253894   -2.555969   -4.487119    0.000000    1.000000
    64  Na    c     2.253894    4.486700    7.110686    0.000000    1.000000
    65  Na    c     2.253894   -4.489628   -1.906048    0.000000    1.000000
    66  O     c     6.774907   -2.259232   -2.256200    0.000000    0.183000
    67  O     c    -2.267120   -2.259232   -2.256200    0.000000    0.183000
    68  Na    c     6.613760   -2.583406    4.496742    0.000000    1.000000
    69  Na    c    -2.105973   -2.583406    4.496742    0.000000    1.000000
    70  Na    c     6.793835    4.484311   -1.928819    0.000000    1.000000
    71  Na    c    -2.286048    4.484311   -1.928819    0.000000    1.000000
    72  Cl    c     4.553878    4.634135   -4.653960    0.000000    1.485000
    73  Cl    c    -0.046090    4.634135   -4.653960    0.000000    1.485000
    74  Cl    c     4.505670   -4.553241    4.505930    0.000000    1.485000
    75  Cl    c     0.002117   -4.553241    4.505930    0.000000    1.485000
    76  Na    c     4.501442    6.637008   -2.323380    0.000000    1.000000
    77  Na    c     0.006345    6.637008   -2.323380    0.000000    1.000000
    78  Na    c     4.513549   -2.110649    6.765643    0.000000    1.000000
    79  Na    c    -0.005762   -2.110649    6.765643    0.000000    1.000000
    80  Cl    c     9.105450   -0.033035   -0.021770    0.000000    1.485000
    81  Cl    c    -4.597663   -0.033035   -0.021770    0.000000    1.485000
    82  Na    c     8.980675    2.206780    2.532142    0.000000    1.000000
    83  Na    c    -4.472888    2.206780    2.532142    0.000000    1.000000
    84  O     c    -2.244731    2.245174    6.729197    0.000000    0.183000
    85  O     c     6.752518    2.245174    6.729197    0.000000    0.183000
    86  Na    c    -1.917759    2.517009   -4.455875    0.000000    1.000000
    87  Na    c     6.425546    2.517009   -4.455875    0.000000    1.000000
    88  Na    c    -2.370755   -0.009329    6.419647    0.000000    1.000000
    89  Na    c     6.878542   -0.009329    6.419647    0.000000    1.000000
    90  O     c     6.764067    6.739817    2.254006    0.000000    0.183000
    91  O     c    -2.256280    6.739817    2.254006    0.000000    0.183000
    92  Na    c     6.605292    7.052348    0.007090    0.000000    1.000000
    93  Na    c    -2.097505    7.052348    0.007090    0.000000    1.000000
    94  Na    c     6.860988   -4.509482    1.927749    0.000000    1.000000
    95  Na    c    -2.353201   -4.509482    1.927749    0.000000    1.000000
    96  Cl    c     9.091671   -0.014856    4.510183    0.000000    1.485000
    97  Cl    c    -4.583884   -0.014856    4.510183    0.000000    1.485000
    98  Na    c     8.968028    2.170861   -2.501496    0.000000    1.000000
    99  Na    c    -4.460240    2.170861   -2.501496    0.000000    1.000000
   100  Cl    c     9.026775    4.551501   -0.009062    0.000000    1.485000
   101  Cl    c    -4.518988    4.551501   -0.009062    0.000000    1.485000
   102  Na    c     9.019817   -2.164719    2.424511    0.000000    1.000000
   103  Na    c    -4.512030   -2.164719    2.424511    0.000000    1.000000
   104  O     c     2.253894    6.745890    6.749828    0.000000    0.183000
   105  Na    c     2.253894    6.426638   -4.504230    0.000000    1.000000
   106  Na    c     2.253894   -4.469972    7.006564    0.000000    1.000000
   107  O     c    -2.267899   -2.266954    6.744877    0.000000    0.183000
   108  O     c     6.775687   -2.266954    6.744877    0.000000    0.183000
   109  Na    c    -2.180959   -2.576880   -4.497721    0.000000    1.000000
   110  Na    c     6.688747   -2.576880   -4.497721    0.000000    1.000000
   111  Na    c    -2.121567    4.492075    7.026638    0.000000    1.000000
   112  Na    c     6.629354    4.492075    7.026638    0.000000    1.000000
   113  O     c     2.253894    2.250281   -6.791914    0.000000    0.183000
   114  O     c     2.253894   -6.743070    2.232679    0.000000    0.183000
   115  O     c     6.756521    6.751031   -2.240547    0.000000    0.183000
   116  O     c    -2.248734    6.751031   -2.240547    0.000000    0.183000
   117  Na    c     2.253894    1.916235    9.022887    0.000000    1.000000
   118  Na    c     2.253894   -7.114327   -0.006539    0.000000    1.000000
   119  Na    c     6.878808    6.442751    4.507374    0.000000    1.000000
   120  Na    c    -2.371020    6.442751    4.507374    0.000000    1.000000
   121  Na    c     2.253894    0.011242   -6.389859    0.000000    1.000000
   122  Na    c     2.253894    8.969592    2.529485    0.000000    1.000000
   123  Na    c     6.851488   -4.502962   -1.930806    0.000000    1.000000
   124  Na    c    -2.343701   -4.502962   -1.930806    0.000000    1.000000
   125  Cl    c     4.504108   -4.548891   -4.537108    0.000000    1.485000
   126  Cl    c     0.003679   -4.548891   -4.537108    0.000000    1.485000
   127  Na    c     4.511314    6.784558    6.620254    0.000000    1.000000
   128  Na    c    -0.003527    6.784558    6.620254    0.000000    1.000000
   129  Cl    c     4.532438   -0.015123    9.065759    0.000000    1.485000
   130  Cl    c    -0.024651   -0.015123    9.065759    0.000000    1.485000
   131  Na    c     4.496466    2.155341   -6.862392    0.000000    1.000000
   132  Na    c     0.011321    2.155341   -6.862392    0.000000    1.000000
   133  Cl    c     4.504674    9.062796    0.000510    0.000000    1.485000
   134  Cl    c     0.003113    9.062796    0.000510    0.000000    1.485000
   135  Cl    c     9.063341    4.497549    4.511756    0.000000    1.485000
   136  Cl    c    -4.555554    4.497549    4.511756    0.000000    1.485000
   137  Na    c     4.509687   -6.671841    2.280778    0.000000    1.000000
   138  Na    c    -0.001900   -6.671841    2.280778    0.000000    1.000000
   139  Na    c     9.016889   -2.129794   -2.363564    0.000000    1.000000
   140  Na    c    -4.509102   -2.129794   -2.363564    0.000000    1.000000
   141  O     c     2.253894   -2.239311   -6.745851    0.000000    0.183000
   142  O     c     2.253894   -6.740812   -2.244987    0.000000    0.183000
   143  Na    c     2.253894   -1.952847    8.982310    0.000000    1.000000
   144  Na    c     2.253894   -6.452554    4.487587    0.000000    1.000000
   145  Na    c     2.253894    4.511068   -7.079336    0.000000    1.000000
   146  Na    c     2.253894    8.978365   -2.498121    0.000000    1.000000
   147  Cl    c     4.517731    4.494979    9.064548    0.000000    1.485000
   148  Cl    c    -0.009944    4.494979    9.064548    0.000000    1.485000
   149  Cl    c     9.076774   -0.015221   -4.504352    0.000000    1.485000
   150  Cl    c    -4.568987   -0.015221   -4.504352    0.000000    1.485000
   151  Na    c     4.508996   -2.144702   -6.724542    0.000000    1.000000
   152  Na    c    -0.001209   -2.144702   -6.724542    0.000000    1.000000
   153  Na    c     9.007036    2.396824    6.577060    0.000000    1.000000
   154  Na    c    -4.499248    2.396824    6.577060    0.000000    1.000000
   155  Cl    c     4.514880    9.070943    4.542207    0.000000    1.485000
   156  Cl    c    -0.007092    9.070943    4.542207    0.000000    1.485000
   157  Cl    c     9.057985   -4.562145   -0.006133    0.000000    1.485000
   158  Cl    c    -4.550198   -4.562145   -0.006133    0.000000    1.485000
   159  Na    c     4.510152   -6.664342   -2.278361    0.000000    1.000000
   160  Na    c    -0.002365   -6.664342   -2.278361    0.000000    1.000000
   161  Na    c     9.011250    6.764205    2.091927    0.000000    1.000000
   162  Na    c    -4.503463    6.764205    2.091927    0.000000    1.000000
   163  O     c     6.770427    6.743649    6.767387    0.000000    0.183000
   164  O     c    -2.262640    6.743649    6.767387    0.000000    0.183000
   165  O     c     6.763265   -6.757756    2.239648    0.000000    0.183000
   166  O     c    -2.255478   -6.757756    2.239648    0.000000    0.183000
   167  O     c    11.244655    2.247202    2.252658    0.000000    0.183000
   168  O     c    -6.736868    2.247202    2.252658    0.000000    0.183000
   169  O     c    -2.230017    2.248864   -6.714499    0.000000    0.183000
   170  O     c     6.737804    2.248864   -6.714499    0.000000    0.183000
   171  Na    c     6.833370    6.541881   -4.499652    0.000000    1.000000
   172  Na    c    -2.325583    6.541881   -4.499652    0.000000    1.000000
   173  Na    c     6.695031   -7.064137   -0.000820    0.000000    1.000000
   174  Na    c    -2.187244   -7.064137   -0.000820    0.000000    1.000000
   175  Na    c    11.018148    2.486514    0.006361    0.000000    1.000000
   176  Na    c    -6.510361    2.486514    0.006361    0.000000    1.000000
   177  Na    c    -2.374486    2.010923    8.986809    0.000000    1.000000
   178  Na    c     6.882273    2.010923    8.986809    0.000000    1.000000
   179  Na    c     6.755520    8.992428    2.514345    0.000000    1.000000
   180  Na    c    -2.247733    8.992428    2.514345    0.000000    1.000000
   181  Na    c     6.668114   -4.498045    7.003907    0.000000    1.000000
   182  Na    c    -2.160326   -4.498045    7.003907    0.000000    1.000000
   183  Na    c    11.274667    0.002807    1.961120    0.000000    1.000000
   184  Na    c    -6.766880    0.002807    1.961120    0.000000    1.000000
   185  Na    c    -2.356013   -0.007459   -6.474782    0.000000    1.000000
   186  Na    c     6.863800   -0.007459   -6.474782    0.000000    1.000000
   187  Cl    c     9.063972    4.498295   -4.506394    0.000000    1.485000
   188  Cl    c    -4.556184    4.498295   -4.506394    0.000000    1.485000
   189  Na    c     9.020040   -2.369089    6.622123    0.000000    1.000000
   190  Na    c    -4.512253   -2.369089    6.622123    0.000000    1.000000
   191  Cl    c     9.042432   -4.532826    4.514750    0.000000    1.485000
   192  Cl    c    -4.534645   -4.532826    4.514750    0.000000    1.485000
   193  Na    c     9.007742    6.804535   -2.133321    0.000000    1.000000
   194  Na    c    -4.499955    6.804535   -2.133321    0.000000    1.000000
   195  O     c     2.253894    6.754546   -6.760692    0.000000    0.183000
   196  O     c     2.253894   -6.737064    6.744432    0.000000    0.183000
   197  O     c    11.271640   -2.245719    2.244587    0.000000    0.183000
   198  O     c    -6.763853   -2.245719    2.244587    0.000000    0.183000
   199  O     c    -2.256328   -2.270354   -6.748021    0.000000    0.183000
   200  O     c     6.764115   -2.270354   -6.748021    0.000000    0.183000
   201  Na    c     2.253894    6.971246    8.996690    0.000000    1.000000
   202  Na    c     2.253894   -6.526892   -4.502018    0.000000    1.000000
   203  Na    c    11.149308   -2.483440   -0.002048    0.000000    1.000000
   204  Na    c    -6.641521   -2.483440   -0.002048    0.000000    1.000000
   205  Na    c    -2.344939   -2.046415    8.998161    0.000000    1.000000
   206  Na    c     6.852726   -2.046415    8.998161    0.000000    1.000000
   207  Na    c     2.253894    8.998655    6.535771    0.000000    1.000000
   208  Na    c     2.253894   -4.488902   -6.961059    0.000000    1.000000
   209  Na    c    11.238396    4.499163    2.487078    0.000000    1.000000
   210  Na    c    -6.730609    4.499163    2.487078    0.000000    1.000000
   211  Na    c    -2.147369    4.500674   -6.900182    0.000000    1.000000
   212  Na    c     6.655156    4.500674   -6.900182    0.000000    1.000000
   213  O     c     6.763344   -6.755445   -2.240356    0.000000    0.183000
   214  O     c    -2.255556   -6.755445   -2.240356    0.000000    0.183000
   215  O     c    11.236014    2.261919   -2.243519    0.000000    0.183000
   216  O     c    -6.728227    2.261919   -2.243519    0.000000    0.183000
   217  Na    c     6.814736   -6.543372    4.501091    0.000000    1.000000
   218  Na    c    -2.306948   -6.543372    4.501091    0.000000    1.000000
   219  Na    c    11.411780    1.998596    4.495658    0.000000    1.000000
   220  Na    c    -6.903992    1.998596    4.495658    0.000000    1.000000
   221  Na    c     6.710415    8.999173   -2.458030    0.000000    1.000000
   222  Na    c    -2.202628    8.999173   -2.458030    0.000000    1.000000
   223  Na    c    11.307788    0.008608   -2.032922    0.000000    1.000000
   224  Na    c    -6.800001    0.008608   -2.032922    0.000000    1.000000
   225  Cl    c     4.506601    9.068517   -4.519003    0.000000    1.485000
   226  Cl    c     0.001187    9.068517   -4.519003    0.000000    1.485000
   227  Cl    c     4.514828   -4.546332    9.038721    0.000000    1.485000
   228  Cl    c    -0.007041   -4.546332    9.038721    0.000000    1.485000
   229  Na    c     4.512446    6.789631   -6.669452    0.000000    1.000000
   230  Na    c    -0.004659    6.789631   -6.669452    0.000000    1.000000
   231  Na    c     4.502890   -6.777411    6.695245    0.000000    1.000000
   232  Na    c     0.004897   -6.777411    6.695245    0.000000    1.000000
   233  O     c     2.253894   11.244787    2.264875    0.000000    0.183000
   234  Na    c     2.253894   11.117236   -0.001266    0.000000    1.000000
   235  Na    c     2.253894   -9.001477    2.435825    0.000000    1.000000
   236  O     c     2.253894    2.234343   11.261528    0.000000    0.183000
   237  O     c    11.269948   -2.251559   -2.246868    0.000000    0.183000
   238  O     c    -6.762161   -2.251559   -2.246868    0.000000    0.183000
   239  Na    c     2.253894    2.071831   -9.030878    0.000000    1.000000
   240  Na    c    11.392522   -2.081532    4.499738    0.000000    1.000000
   241  Na    c    -6.884735   -2.081532    4.499738    0.000000    1.000000
   242  Na    c     2.253894   -0.001959   11.448923    0.000000    1.000000
   243  Na    c    11.174464    4.507831   -2.398896    0.000000    1.000000
   244  Na    c    -6.666677    4.507831   -2.398896    0.000000    1.000000
   245  Cl    c     9.048473   -4.521813   -4.522311    0.000000    1.485000
   246  Cl    c    -4.540685   -4.521813   -4.522311    0.000000    1.485000
   247  Na    c     9.013891    6.672809    6.865614    0.000000    1.000000
   248  Na    c    -4.506104    6.672809    6.865614    0.000000    1.000000
   249  Cl    c     4.500011   -0.004503   -9.106356    0.000000    1.485000
   250  Cl    c     0.007776   -0.004503   -9.106356    0.000000    1.485000
   251  Cl    c     4.519333   -9.022765   -0.004176    0.000000    1.485000
   252  Cl    c    -0.011545   -9.022765   -0.004176    0.000000    1.485000
   253  Cl    c     9.062391   -0.021498    9.063955    0.000000    1.485000
   254  Cl    c    -4.554604   -0.021498    9.063955    0.000000    1.485000
   255  Cl    c     9.029821    9.014407    0.006285    0.000000    1.485000
   256  Cl    c    -4.522033    9.014407    0.006285    0.000000    1.485000
   257  Na    c     4.514976    2.344962   11.205340    0.000000    1.000000
   258  Na    c    -0.007189    2.344962   11.205340    0.000000    1.000000
   259  Na    c     4.504926   11.228382    2.159251    0.000000    1.000000
   260  Na    c     0.002861   11.228382    2.159251    0.000000    1.000000
   261  Na    c     8.999691    2.319438   -6.615336    0.000000    1.000000
   262  Na    c    -4.491904    2.319438   -6.615336    0.000000    1.000000
   263  Na    c     9.014109   -6.790754    2.212427    0.000000    1.000000
   264  Na    c    -4.506322   -6.790754    2.212427    0.000000    1.000000
   265  O     c     6.775695    6.755390   -6.764950    0.000000    0.183000
   266  O     c    -2.267908    6.755390   -6.764950    0.000000    0.183000
   267  O     c     6.754836   -6.745010    6.764131    0.000000    0.183000
   268  O     c    -2.247049   -6.745010    6.764131    0.000000    0.183000
[...]
    235 y          4.507787      4.618153     0.110366    Cartesian    2.45
    235 z          4.507787      4.647556     0.139768    Cartesian    3.10
    236 x          2.253894      2.253894     0.000000    Cartesian    0.00
    236 y          2.253894      2.221205    -0.032689    Cartesian   -1.45
    236 z          6.761681      6.786896     0.025216    Cartesian    0.37
    237 x          2.253894      2.253894     0.000000    Cartesian    0.00
    237 y          6.761681      6.699033    -0.062647    Cartesian   -0.93
    237 z          2.253894      2.254742     0.000848    Cartesian    0.04
    238 x         -2.253894     -2.196276     0.057618    Cartesian   -2.56
    238 y          2.253894      2.223835    -0.030059    Cartesian   -1.33
    238 z         -2.253894     -2.217683     0.036211    Cartesian   -1.61
    239 x         -2.253894     -2.270884    -0.016990    Cartesian    0.75
    239 y         -2.253894     -2.270645    -0.016751    Cartesian    0.74
    239 z          2.253894      2.258707     0.004813    Cartesian    0.21
    240 x          4.507787      4.573811     0.066024    Cartesian    1.46
    240 y          0.000000     -0.120306    -0.120306    Cartesian    0.00
    240 z         -4.507787     -4.600349    -0.092562    Cartesian    2.05
    241 x          4.507787      4.525088     0.017301    Cartesian    0.38
    241 y         -4.507787     -4.534451    -0.026664    Cartesian    0.59
    241 z          0.000000     -0.020076    -0.020076    Cartesian    0.00
    242 x          2.253894      2.253894     0.000000    Cartesian    0.00
    242 y          6.761681      6.709995    -0.051685    Cartesian   -0.76
    242 z         -2.253894     -2.241792     0.012101    Cartesian   -0.54
    243 x          2.253894      2.253894     0.000000    Cartesian    0.00
    243 y         -2.253894     -2.222509     0.031384    Cartesian   -1.39
    243 z          6.761681      6.726291    -0.035389    Cartesian   -0.52
    244 x          6.761681      6.774910     0.013229    Cartesian    0.20
    244 y         -2.253894     -2.259223    -0.005329    Cartesian    0.24
    244 z         -2.253894     -2.256228    -0.002335    Cartesian    0.10
    245 x          4.507787      4.561524     0.053737    Cartesian    1.19
    245 y          4.507787      4.642523     0.134736    Cartesian    2.99
    245 z         -4.507787     -4.664283    -0.156496    Cartesian    3.47
    246 x          4.507787      4.507788     0.000001    Cartesian    0.00
    246 y         -4.507787     -4.555497    -0.047709    Cartesian    1.06
    246 z          4.507787      4.505762    -0.002025    Cartesian   -0.04
    247 x          9.015574      9.103047     0.087473    Cartesian    0.97
    247 y          0.000000     -0.031590    -0.031590    Cartesian    0.00
    247 z          0.000000     -0.022361    -0.022361    Cartesian    0.00
    248 x         -2.253894     -2.244695     0.009199    Cartesian   -0.41
    248 y          2.253894      2.245197    -0.008697    Cartesian   -0.39
    248 z          6.761681      6.729223    -0.032458    Cartesian   -0.48
    249 x          6.761681      6.764071     0.002390    Cartesian    0.04
    249 y          6.761681      6.739831    -0.021850    Cartesian   -0.32
    249 z          2.253894      2.253981     0.000087    Cartesian    0.00
    250 x          9.015574      9.091564     0.075989    Cartesian    0.84
    250 y          0.000000     -0.013845    -0.013845    Cartesian    0.00
    250 z          4.507787      4.510417     0.002630    Cartesian    0.06
    251 x          9.015574      9.026214     0.010639    Cartesian    0.12
    251 y          4.507787      4.551248     0.043461    Cartesian    0.96
    251 z          0.000000     -0.009742    -0.009742    Cartesian    0.00
    252 x          2.253894      2.253894     0.000000    Cartesian    0.00
    252 y          6.761681      6.745911    -0.015770    Cartesian   -0.23
    252 z          6.761681      6.749838    -0.011843    Cartesian   -0.18
    253 x         -2.253894     -2.267906    -0.014012    Cartesian    0.62
    253 y         -2.253894     -2.267005    -0.013111    Cartesian    0.58
    253 z          6.761681      6.744869    -0.016811    Cartesian   -0.25
    254 x          2.253894      2.253894     0.000000    Cartesian    0.00
    254 y          2.253894      2.250285    -0.003609    Cartesian   -0.16
    254 z         -6.761681     -6.791971    -0.030290    Cartesian    0.45
    255 x          2.253894      2.253894     0.000000    Cartesian    0.00
    255 y         -6.761681     -6.743069     0.018612    Cartesian   -0.28
    255 z          2.253894      2.232662    -0.021232    Cartesian   -0.94
    256 x          6.761681      6.756514    -0.005167    Cartesian   -0.08
    256 y          6.761681      6.751073    -0.010608    Cartesian   -0.16
    256 z         -2.253894     -2.240538     0.013356    Cartesian   -0.59
    257 x          4.507787      4.504348    -0.003440    Cartesian   -0.08
    257 y         -4.507787     -4.550088    -0.042301    Cartesian    0.94
    257 z         -4.507787     -4.539404    -0.031616    Cartesian    0.70
    258 x          4.507787      4.527890     0.020102    Cartesian    0.45
    258 y          0.000000     -0.015270    -0.015270    Cartesian    0.00
    258 z          9.015574      9.067597     0.052022    Cartesian    0.58
    259 x          4.507787      4.507280    -0.000508    Cartesian   -0.01
    259 y          9.015574      9.063713     0.048139    Cartesian    0.53
    259 z          0.000000      0.000771     0.000771    Cartesian    0.00
    260 x          9.015574      9.066776     0.051202    Cartesian    0.57
    260 y          4.507787      4.496147    -0.011640    Cartesian   -0.26
    260 z          4.507787      4.512525     0.004738    Cartesian    0.11
    261 x          2.253894      2.253894     0.000000    Cartesian    0.00
    261 y         -2.253894     -2.239325     0.014568    Cartesian   -0.65
    261 z         -6.761681     -6.745851     0.015830    Cartesian   -0.23
    262 x          2.253894      2.253894     0.000000    Cartesian    0.00
    262 y         -6.761681     -6.740822     0.020859    Cartesian   -0.31
    262 z         -2.253894     -2.244981     0.008912    Cartesian   -0.40
    263 x          4.507787      4.519984     0.012197    Cartesian    0.27
    263 y          4.507787      4.493158    -0.014629    Cartesian   -0.32
    263 z          9.015574      9.064654     0.049080    Cartesian    0.54
    264 x          9.015574      9.076371     0.060796    Cartesian    0.67
    264 y          0.000000     -0.014453    -0.014453    Cartesian    0.00
    264 z         -4.507787     -4.502635     0.005152    Cartesian   -0.11
    265 x          4.507787      4.513717     0.005930    Cartesian    0.13
    265 y          9.015574      9.076506     0.060932    Cartesian    0.68
    265 z          4.507787      4.545981     0.038194    Cartesian    0.85
    266 x          9.015574      9.054280     0.038705    Cartesian    0.43
    266 y         -4.507787     -4.563041    -0.055254    Cartesian    1.23
    266 z          0.000000     -0.007053    -0.007053    Cartesian    0.00
    267 x          6.761681      6.770439     0.008758    Cartesian    0.13
    267 y          6.761681      6.743639    -0.018042    Cartesian   -0.27
    267 z          6.761681      6.767428     0.005748    Cartesian    0.09
    268 x          6.761681      6.763276     0.001595    Cartesian    0.02
    268 y         -6.761681     -6.757782     0.003899    Cartesian   -0.06
    268 z          2.253894      2.239617    -0.014277    Cartesian   -0.63
    269 x         11.269468     11.244670    -0.024798    Cartesian   -0.22
    269 y          2.253894      2.247199    -0.006695    Cartesian   -0.30
    269 z          2.253894      2.252682    -0.001211    Cartesian   -0.05
    270 x         -2.253894     -2.229970     0.023924    Cartesian   -1.06
    270 y          2.253894      2.248900    -0.004994    Cartesian   -0.22
    270 z         -6.761681     -6.714528     0.047153    Cartesian   -0.70
    271 x          9.015574      9.070659     0.055085    Cartesian    0.61
    271 y          4.507787      4.497562    -0.010225    Cartesian   -0.23
    271 z         -4.507787     -4.505205     0.002582    Cartesian   -0.06
    272 x          9.015574      9.041771     0.026196    Cartesian    0.29
    272 y         -4.507787     -4.534650    -0.026863    Cartesian    0.60
    272 z          4.507787      4.517287     0.009499    Cartesian    0.21
    273 x          2.253894      2.253894     0.000000    Cartesian    0.00
    273 y          6.761681      6.754545    -0.007136    Cartesian   -0.11
    273 z         -6.761681     -6.760728     0.000952    Cartesian   -0.01
    274 x          2.253894      2.253894     0.000000    Cartesian    0.00
    274 y         -6.761681     -6.737074     0.024607    Cartesian   -0.36
    274 z          6.761681      6.744457    -0.017224    Cartesian   -0.25
    275 x         11.269468     11.271649     0.002181    Cartesian    0.02
    275 y         -2.253894     -2.245730     0.008164    Cartesian   -0.36
    275 z          2.253894      2.244580    -0.009314    Cartesian   -0.41
    276 x         -2.253894     -2.256329    -0.002436    Cartesian    0.11
    276 y         -2.253894     -2.270401    -0.016508    Cartesian    0.73
    276 z         -6.761681     -6.748028     0.013653    Cartesian   -0.20
    277 x          6.761681      6.763354     0.001673    Cartesian    0.02
    277 y         -6.761681     -6.755476     0.006205    Cartesian   -0.09
    277 z         -2.253894     -2.240329     0.013564    Cartesian   -0.60
    278 x         11.269468     11.236023    -0.033445    Cartesian   -0.30
    278 y          2.253894      2.261946     0.008052    Cartesian    0.36
    278 z         -2.253894     -2.243553     0.010341    Cartesian   -0.46
    279 x          4.507787      4.505366    -0.002421    Cartesian   -0.05
    279 y          9.015574      9.074451     0.058876    Cartesian    0.65
    279 z         -4.507787     -4.517490    -0.009703    Cartesian    0.22
    280 x          4.507787      4.517562     0.009774    Cartesian    0.22
    280 y         -4.507787     -4.550682    -0.042895    Cartesian    0.95
    280 z          9.015574      9.037281     0.021706    Cartesian    0.24
    281 x          2.253894      2.253894     0.000000    Cartesian    0.00
    281 y         11.269468     11.244803    -0.024665    Cartesian   -0.22
    281 z          2.253894      2.264906     0.011013    Cartesian    0.49
    282 x          2.253894      2.253894     0.000000    Cartesian    0.00
    282 y          2.253894      2.234298    -0.019595    Cartesian   -0.87
    282 z         11.269468     11.261524    -0.007944    Cartesian   -0.07
    283 x         11.269468     11.269939     0.000471    Cartesian    0.00
    283 y         -2.253894     -2.251581     0.002313    Cartesian   -0.10
    283 z         -2.253894     -2.246878     0.007015    Cartesian   -0.31
    284 x          9.015574      9.048081     0.032507    Cartesian    0.36
    284 y         -4.507787     -4.523383    -0.015596    Cartesian    0.35
    284 z         -4.507787     -4.523543    -0.015756    Cartesian    0.35
    285 x          4.507787      4.495778    -0.012010    Cartesian   -0.27
    285 y          0.000000     -0.004272    -0.004272    Cartesian    0.00
    285 z         -9.015574     -9.115154    -0.099579    Cartesian    1.10
    286 x          4.507787      4.522318     0.014531    Cartesian    0.32
    286 y         -9.015574     -9.013613     0.001962    Cartesian   -0.02
    286 z          0.000000     -0.004571    -0.004571    Cartesian    0.00
    287 x          9.015574      9.062965     0.047390    Cartesian    0.53
    287 y          0.000000     -0.022425    -0.022425    Cartesian    0.00
    287 z          9.015574      9.067371     0.051796    Cartesian    0.57
    288 x          9.015574      9.029027     0.013453    Cartesian    0.15
    288 y          9.015574      9.012265    -0.003309    Cartesian   -0.04
    288 z          0.000000      0.006628     0.006628    Cartesian    0.00
    289 x          6.761681      6.775713     0.014032    Cartesian    0.21
    289 y          6.761681      6.755363    -0.006317    Cartesian   -0.09
    289 z         -6.761681     -6.764989    -0.003308    Cartesian    0.05
    290 x          6.761681      6.754832    -0.006849    Cartesian   -0.10
    290 y         -6.761681     -6.744974     0.016707    Cartesian   -0.25
    290 z          6.761681      6.764185     0.002505    Cartesian    0.04
    291 x         11.269468     11.271039     0.001571    Cartesian    0.01
    291 y          2.253894      2.240267    -0.013627    Cartesian   -0.60
    291 z          6.761681      6.745526    -0.016155    Cartesian   -0.24
    292 x         11.269468     11.268750    -0.000718    Cartesian   -0.01
    292 y          6.761681      6.754605    -0.007075    Cartesian   -0.10
    292 z          2.253894      2.258917     0.005024    Cartesian    0.22
    293 x          2.253894      2.253894     0.000000    Cartesian    0.00
    293 y         11.269468     11.252517    -0.016951    Cartesian   -0.15
    293 z         -2.253894     -2.262793    -0.008899    Cartesian    0.39
    294 x          2.253894      2.253894     0.000000    Cartesian    0.00
    294 y         -2.253894     -2.238919     0.014975    Cartesian   -0.66
    294 z         11.269468     11.247754    -0.021714    Cartesian   -0.19
    295 x          4.507787      4.540276     0.032489    Cartesian    0.72
    295 y          4.507787      4.494432    -0.013356    Cartesian   -0.30
    295 z         -9.015574     -9.033035    -0.017461    Cartesian    0.19
    296 x          4.507787      4.493818    -0.013969    Cartesian   -0.31
    296 y         -9.015574     -9.108027    -0.092452    Cartesian    1.03
    296 z          4.507787      4.508457     0.000670    Cartesian    0.01
    297 x          9.015574      9.060111     0.044536    Cartesian    0.49
    297 y          9.015574      9.046823     0.031249    Cartesian    0.35
    297 z          4.507787      4.519592     0.011805    Cartesian    0.26
    298 x          9.015574      9.017295     0.001721    Cartesian    0.02
    298 y          4.507787      4.511787     0.004000    Cartesian    0.09
    298 z          9.015574      9.031264     0.015690    Cartesian    0.17
    299 x         11.269468     11.270984     0.001516    Cartesian    0.01
    299 y         -2.253894     -2.252942     0.000952    Cartesian   -0.04
    299 z          6.761681      6.760031    -0.001650    Cartesian   -0.02
    300 x         -2.253894     -2.254259    -0.000366    Cartesian    0.02
    300 y         11.269468     11.256473    -0.012995    Cartesian   -0.12
    300 z          2.253894      2.272867     0.018973    Cartesian    0.84
    301 x          2.253894      2.253894     0.000000    Cartesian    0.00
    301 y         -6.761681     -6.750181     0.011499    Cartesian   -0.17
    301 z         -6.761681     -6.758940     0.002741    Cartesian   -0.04
    302 x          6.761681      6.770955     0.009274    Cartesian    0.14
    302 y          2.253894      2.234417    -0.019476    Cartesian   -0.86
    302 z         11.269468     11.254150    -0.015318    Cartesian   -0.14
    303 x         11.269468     11.272509     0.003041    Cartesian    0.03
    303 y          6.761681      6.756510    -0.005171    Cartesian   -0.08
    303 z         -2.253894     -2.253183     0.000710    Cartesian   -0.03
    304 x         13.523362     13.595674     0.072312    Cartesian    0.53
    304 y          0.000000      0.016822     0.016822    Cartesian    0.00
    304 z          0.000000      0.003988     0.003988    Cartesian    0.00
    305 x          4.507787      4.516068     0.008281    Cartesian    0.18
    305 y          9.015574      9.035269     0.019694    Cartesian    0.22
    305 z          9.015574      9.067092     0.051517    Cartesian    0.57
    306 x          2.253894      2.253894     0.000000    Cartesian    0.00
    306 y          6.761681      6.763061     0.001380    Cartesian    0.02
    306 z         11.269468     11.258197    -0.011271    Cartesian   -0.10
    307 x          2.253894      2.253894     0.000000    Cartesian    0.00
    307 y         11.269468     11.262962    -0.006506    Cartesian   -0.06
    307 z          6.761681      6.759138    -0.002543    Cartesian   -0.04
    308 x         -2.253894     -2.258328    -0.004434    Cartesian    0.20
    308 y         11.269468     11.255954    -0.013514    Cartesian   -0.12
    308 z         -2.253894     -2.260110    -0.006217    Cartesian    0.28
    309 x          6.761681      6.764107     0.002426    Cartesian    0.04
    309 y         -2.253894     -2.249653     0.004240    Cartesian   -0.19
    309 z         11.269468     11.267225    -0.002243    Cartesian   -0.02
    310 x         13.523362     13.564008     0.040647    Cartesian    0.30
    310 y          0.000000     -0.012598    -0.012598    Cartesian    0.00
    310 z          4.507787      4.530692     0.022905    Cartesian    0.51
    311 x         13.523362     13.598790     0.075428    Cartesian    0.56
    311 y          4.507787      4.507950     0.000163    Cartesian    0.00
    311 z          0.000000     -0.001377    -0.001377    Cartesian    0.00
    312 x          4.507787      4.522216     0.014429    Cartesian    0.32
    312 y         -4.507787     -4.561033    -0.053246    Cartesian    1.18
    312 z         -9.015574     -9.026588    -0.011013    Cartesian    0.12
    313 x          4.507787      4.508373     0.000586    Cartesian    0.01
    313 y         -9.015574     -9.099236    -0.083662    Cartesian    0.93
    313 z         -4.507787     -4.504135     0.003653    Cartesian   -0.08
    314 x          9.015574      9.040109     0.024535    Cartesian    0.27
    314 y          9.015574      9.060709     0.045134    Cartesian    0.50
    314 z         -4.507787     -4.510781    -0.002993    Cartesian    0.07
    315 x          9.015574      9.028539     0.012964    Cartesian    0.14
    315 y         -4.507787     -4.549777    -0.041989    Cartesian    0.93
    315 z          9.015574      9.023967     0.008393    Cartesian    0.09
--------------------------------------------------------------------------------


  Time to end of optimisation  =       68.5277 seconds


  Peak dynamic memory used =      91.07 MB 


  Timing analysis for GULP :

--------------------------------------------------------------------------------
  Task / Subroutine                                          Time (Seconds)
--------------------------------------------------------------------------------
  Calculation of reciprocal space energy and derivatives          0.0003
  Calculation of reciprocal space energy using symmetry           0.0003
  Calculation of real space energy and derivatives                0.0014
  Calculation of real space energy using symmetry                 0.0031
  Calculation for region 1 energy and derivatives (2-b)          37.4526
  Calculation for region 2a energy                               28.5847
  Calculation for region 2b energy                                0.0117
  Calculation and manipulation of Hessian matrix                  0.1080
  Calculation of matrix inversion                                 2.1279
  Symmetry generation of equivalent positions                     0.0017
--------------------------------------------------------------------------------
  Total CPU time                                                 68.5278
--------------------------------------------------------------------------------


  Dump file written as Na3OCl.grs


  Job Finished at 12:01.27 13th December   2020                               

