********************************************************************************
*                       GENERAL UTILITY LATTICE PROGRAM                        *
*                                 Julian Gale                                  *
*                       Curtin Institute for Computation                       *
*                    School of Molecular and Life Sciences                     *
*                    Curtin University, Western Australia                      *
********************************************************************************
* Version = 5.2.0 * Last modified =  10th September 2020                       *
********************************************************************************
*  optimise     - perform optimisation run                                     *
*  conp         - constant pressure calculation                                *
*  property     - calculate properties for final geometry                      *
*  defect       - perform defect calculation after bulk run                    *
*  compare      - compare initial and final structures                         *
********************************************************************************

  Job Started  at 12:06.38 13th December   2020                               

  Number of CPUs =     1


  Total number of configurations input =      1

********************************************************************************
*  Input for Configuration =   1                                               *
********************************************************************************

  Formula = ClONa3                                                      

  Number of irreducible atoms/shells =       5


  Total number atoms/shells =       7

  Dimensionality = 3               :  Bulk   


  Symmetry :

  Crystal family                   :  Cubic       
  Crystal class  (Groth - 1921)    :  Cubic Hexakisoctahedral              

  Space group (centrosymmetric)    :  P M 3 M         

  Patterson group                  :  P m -3 m 

  Cartesian lattice vectors (Angstroms) :

        4.504000    0.000000    0.000000
        0.000000    4.504000    0.000000
        0.000000    0.000000    4.504000

  Cell parameters (Angstroms/Degrees):

  a =       4.5040    alpha =  90.0000
  b =       4.5040    beta  =  90.0000
  c =       4.5040    gamma =  90.0000

  Initial cell volume =          91.368216 Angs**3

  Temperature of configuration =   0.00     K 

  Pressure of configuration =         0.000 GPa 

  Fractional coordinates of asymmetric unit :

--------------------------------------------------------------------------------
   No.  Atomic       x           y          z         Charge      Occupancy
        Label      (Frac)      (Frac)     (Frac)        (e)         (Frac)  
--------------------------------------------------------------------------------
      1 Cl    c    0.000000    0.000000    0.000000     1.48500    1.000000    
      2 O     c    0.500000    0.500000    0.500000     0.18300    1.000000    
      3 Na    c    0.500000    0.500000    0.000000     1.00000    1.000000    
      4 Cl    s    0.000000    0.000000    0.000000    -2.48500    1.000000    
      5 O     s    0.500000    0.500000    0.500000    -2.18300    1.000000    
--------------------------------------------------------------------------------


  Constraints : 

--------------------------------------------------------------------------------
  Constraint no.      Unconstrained     Constrained    Coefficient    Offset
                         Variable         Variable
--------------------------------------------------------------------------------
           1              Strain 1        Strain 2       1.00000      0.0000
           2              Strain 1        Strain 3       1.00000      0.0000
--------------------------------------------------------------------------------


********************************************************************************
*  General input information                                                   *
********************************************************************************

  Species output for all configurations : 

--------------------------------------------------------------------------------
  Species    Type    Atomic    Atomic    Charge       Radii (Angs)     Library
                     Number     Mass       (e)     Cova   Ionic  VDW   Symbol
--------------------------------------------------------------------------------
    Na       Core       11      22.99   1.000000   0.970  0.000  2.300          
    O        Core        8      16.00   0.183000   0.730  0.000  1.360          
    O        Shell       8       0.00  -2.183000   0.730  0.000  1.360          
    Cl       Core       17      35.45   1.485000   0.990  0.000  1.650          
    Cl       Shell      17       0.00  -2.485000   0.990  0.000  1.650          
    Mg       Core       12      24.31   0.415000   1.100  0.000  0.000          
    Mg       Shell      12       0.00   1.585000   1.100  0.000  0.000          
    Ca       Core       20      40.08  -1.135000   0.990  0.000  0.000          
    Ca       Shell      20       0.00   3.135000   0.990  0.000  0.000          
    Sr       Core       38      87.62  -1.251000   1.120  0.000  0.000          
    Sr       Shell      38       0.00   3.251000   1.120  0.000  0.000          
    Ba       Core       56     137.33  -7.203000   1.340  0.000  0.000          
    Ba       Shell      56       0.00   9.203000   1.340  0.000  0.000          
--------------------------------------------------------------------------------


  Lattice summation method               =    Ewald          (3-D)
                                         =    Parry          (2-D)
                                         =    Saunders et al (1-D)
  Accuracy factor for lattice sums       =   12.000


  Analytic derivatives to be used

  Time limit = Infinity

  Maximum range for interatomic potentials =    100000.000000 Angstroms

  General interatomic potentials :

--------------------------------------------------------------------------------
Atom  Types   Potential      Parameter       Value         Units   Cutoffs(Ang)
  1     2                                                            Min /  Max 
--------------------------------------------------------------------------------
O    c O    s Spring (c-s)  Spring k 2       593.71600    eV*Ang^-2 0.000  0.800
                            Spring k 4       0.0000000    eV*Ang^-4 
--------------------------------------------------------------------------------
Cl   c Cl   s Spring (c-s)  Spring k 2       29.380000    eV*Ang^-2 0.000  0.800
                            Spring k 4       0.0000000    eV*Ang^-4 
--------------------------------------------------------------------------------
Mg   c Mg   s Spring (c-s)  Spring k 2       361.60000    eV*Ang^-2 0.000  0.800
                            Spring k 4       0.0000000    eV*Ang^-4 
--------------------------------------------------------------------------------
Ca   c Ca   s Spring (c-s)  Spring k 2       110.20000    eV*Ang^-2 0.000  0.800
                            Spring k 4       0.0000000    eV*Ang^-4 
--------------------------------------------------------------------------------
Sr   c Sr   s Spring (c-s)  Spring k 2       71.700000    eV*Ang^-2 0.000  0.800
                            Spring k 4       0.0000000    eV*Ang^-4 
--------------------------------------------------------------------------------
Ba   c Ba   s Spring (c-s)  Spring k 2       495.20000    eV*Ang^-2 0.000  0.800
                            Spring k 4       0.0000000    eV*Ang^-4 
--------------------------------------------------------------------------------
Na   c Na   c Buckingham    Buckingham A     1788.1900    eV        0.000 12.000
                            Buckingham rho  0.15900000    Ang       
                            Buckingham C     0.0000000    eV*Ang^6  
--------------------------------------------------------------------------------
Na   c O    s Buckingham    Buckingham A     1226.8400    eV        0.000 12.000
                            Buckingham rho  0.30700000    Ang       
                            Buckingham C     0.0000000    eV*Ang^6  
--------------------------------------------------------------------------------
Na   c Cl   s Buckingham    Buckingham A     2314.7000    eV        0.000 12.000
                            Buckingham rho  0.29000000    Ang       
                            Buckingham C     0.0000000    eV*Ang^6  
--------------------------------------------------------------------------------
O    s O    s Buckingham    Buckingham A     22764.300    eV        0.000 12.000
                            Buckingham rho  0.14900000    Ang       
                            Buckingham C     13.190000    eV*Ang^6  
--------------------------------------------------------------------------------
O    s Cl   s Buckingham    Buckingham A     8286.9100    eV        0.000 12.000
                            Buckingham rho  0.25900000    Ang       
                            Buckingham C     62.200000    eV*Ang^6  
--------------------------------------------------------------------------------
Cl   s Cl   s Buckingham    Buckingham A     1227.2000    eV        0.000 12.000
                            Buckingham rho  0.32100000    Ang       
                            Buckingham C     14.530000    eV*Ang^6  
--------------------------------------------------------------------------------
O    s Mg   s Buckingham    Buckingham A     1428.5000    eV        0.000 12.000
                            Buckingham rho  0.29450000    Ang       
                            Buckingham C     0.0000000    eV*Ang^6  
--------------------------------------------------------------------------------
Mg   s Cl   s Buckingham    Buckingham A     4914.5400    eV        0.000 12.000
                            Buckingham rho  0.25700000    Ang       
                            Buckingham C     0.0000000    eV*Ang^6  
--------------------------------------------------------------------------------
O    s Ca   s Buckingham    Buckingham A     1090.4000    eV        0.000 12.000
                            Buckingham rho  0.34370000    Ang       
                            Buckingham C     0.0000000    eV*Ang^6  
--------------------------------------------------------------------------------
Cl   s Ca   s Buckingham    Buckingham A     2302.0000    eV        0.000 12.000
                            Buckingham rho  0.34020000    Ang       
                            Buckingham C     0.0000000    eV*Ang^6  
--------------------------------------------------------------------------------
O    s Sr   s Buckingham    Buckingham A     959.10000    eV        0.000 12.000
                            Buckingham rho  0.37210000    Ang       
                            Buckingham C     0.0000000    eV*Ang^6  
--------------------------------------------------------------------------------
Cl   s Sr   s Buckingham    Buckingham A     2191.0900    eV        0.000 12.000
                            Buckingham rho  0.34570000    Ang       
                            Buckingham C     0.0000000    eV*Ang^6  
--------------------------------------------------------------------------------
O    s Ba   s Buckingham    Buckingham A     905.70000    eV        0.000 12.000
                            Buckingham rho  0.39760000    Ang       
                            Buckingham C     0.0000000    eV*Ang^6  
--------------------------------------------------------------------------------
Cl   s Ba   s Buckingham    Buckingham A     2704.5500    eV        0.000 12.000
                            Buckingham rho  0.35280000    Ang       
                            Buckingham C     0.0000000    eV*Ang^6  
--------------------------------------------------------------------------------

********************************************************************************
*  Output for configuration   1                                                *
********************************************************************************


  Components of energy : 

--------------------------------------------------------------------------------
  Interatomic potentials     =           5.13022605 eV    
  Monopole - monopole (real) =         -10.03624526 eV    
  Monopole - monopole (recip)=         -29.53581274 eV    
  Monopole - monopole (total)=         -39.57205800 eV    
--------------------------------------------------------------------------------
  Total lattice energy       =         -34.44183194 eV    
--------------------------------------------------------------------------------
  Total lattice energy       =           -3323.1103 kJ/(mole unit cells)
--------------------------------------------------------------------------------


  Number of variables =        1

  Maximum number of calculations  =          1000
  Maximum Hessian update interval =            10
  Maximum step size               =   1.000000000
  Maximum parameter tolerance     =   0.000010000
  Maximum function  tolerance     =   0.000010000
  Maximum gradient  tolerance     =   0.001000000
  Maximum gradient  component     =   0.010000000

  Symmetry constrained optimisation

  Symmetry used for second derivatives

  Cell parameters to be optimised using strains

  Newton-Raphson optimiser to be used

  BFGS hessian update to be used

  Lower half triangular hessian to be used

  Start of bulk optimisation :

  Cycle:      0 Energy:       -34.441832  Gnorm:      0.196570  CPU:    0.021
  ** Hessian calculated **
  Cycle:      1 Energy:       -34.441914  Gnorm:      0.000103  CPU:    0.027


  **** Optimisation achieved ****


  Final energy =     -34.44191447 eV
  Final Gnorm  =       0.00000000

  Components of energy : 

--------------------------------------------------------------------------------
  Interatomic potentials     =           5.09689708 eV    
  Monopole - monopole (real) =         -10.02781331 eV    
  Monopole - monopole (recip)=         -29.51099824 eV    
  Monopole - monopole (total)=         -39.53881155 eV    
--------------------------------------------------------------------------------
  Total lattice energy       =         -34.44191447 eV    
--------------------------------------------------------------------------------
  Total lattice energy       =           -3323.1183 kJ/(mole unit cells)
--------------------------------------------------------------------------------

  Final asymmetric unit coordinates :

--------------------------------------------------------------------------------
   No.  Atomic        x           y           z         Radius
        Label       (Frac)      (Frac)      (Frac)       (Angs) 
--------------------------------------------------------------------------------
     1  Cl    c     0.000000    0.000000    0.000000    0.000000
     2  O     c     0.500000    0.500000    0.500000    0.000000
     3  Na    c     0.500000    0.500000    0.000000    0.000000
     4  Cl    s     0.000000    0.000000    0.000000    0.000000
     5  O     s     0.500000    0.500000    0.500000    0.000000
--------------------------------------------------------------------------------

  Final Cartesian lattice vectors (Angstroms) :

        4.507787    0.000000    0.000000
        0.000000    4.507787    0.000000
        0.000000    0.000000    4.507787


  Final cell parameters and derivatives :

--------------------------------------------------------------------------------
       a            4.507787 Angstrom     dE/de1(xx)     0.000000 eV/strain
       b            4.507787 Angstrom     dE/de2(yy)     0.000000 eV/strain
       c            4.507787 Angstrom     dE/de3(zz)     0.000000 eV/strain
       alpha       90.000000 Degrees      dE/de4(yz)     0.000000 eV/strain
       beta        90.000000 Degrees      dE/de5(xz)     0.000000 eV/strain
       gamma       90.000000 Degrees      dE/de6(xy)     0.000000 eV/strain
--------------------------------------------------------------------------------

  Primitive cell volume =            91.598892 Angs**3

  Density of cell =      2.183054 g/cm**3

  Non-primitive cell volume =            91.598892 Angs**3


  Final internal derivatives :

--------------------------------------------------------------------------------
   No.  Atomic          a             b             c           Radius
        Label          (eV)          (eV)          (eV)        (eV/Angs)
--------------------------------------------------------------------------------
      1 Cl    c       0.000000      0.000000      0.000000      0.000000
      2 O     c       0.000000      0.000000      0.000000      0.000000
      3 Na    c       0.000000      0.000000      0.000000      0.000000
      4 Cl    s       0.000000      0.000000      0.000000      0.000000
      5 O     s       0.000000      0.000000      0.000000      0.000000
--------------------------------------------------------------------------------
  Maximum abs         0.000000      0.000000      0.000000      0.000000
--------------------------------------------------------------------------------

  Comparison of initial and final structures : 

--------------------------------------------------------------------------------
  Parameter   Initial value   Final value   Difference    Units      Percent
--------------------------------------------------------------------------------
    Volume        91.368216     91.598892     0.230676    Angs**3      0.25
    a              4.504000      4.507787     0.003787    Angstroms    0.08
    b              4.504000      4.507787     0.003787    Angstroms    0.08
    c              4.504000      4.507787     0.003787    Angstroms    0.08
    alpha         90.000000     90.000000     0.000000    Degrees      0.00
    beta          90.000000     90.000000     0.000000    Degrees      0.00
    gamma         90.000000     90.000000     0.000000    Degrees      0.00
      1 x          0.000000      0.000000     0.000000    Fractional   0.00
      1 y          0.000000      0.000000     0.000000    Fractional   0.00
      1 z          0.000000      0.000000     0.000000    Fractional   0.00
      2 x          0.500000      0.500000     0.000000    Fractional   0.00
      2 y          0.500000      0.500000     0.000000    Fractional   0.00
      2 z          0.500000      0.500000     0.000000    Fractional   0.00
      3 x          0.500000      0.500000     0.000000    Fractional   0.00
      3 y          0.500000      0.500000     0.000000    Fractional   0.00
      3 z          0.000000      0.000000     0.000000    Fractional   0.00
      4 x          0.000000      0.000000     0.000000    Fractional   0.00
      4 y          0.000000      0.000000     0.000000    Fractional   0.00
      4 z          0.000000      0.000000     0.000000    Fractional   0.00
      5 x          0.500000      0.500000     0.000000    Fractional   0.00
      5 y          0.500000      0.500000     0.000000    Fractional   0.00
      5 z          0.500000      0.500000     0.000000    Fractional   0.00
--------------------------------------------------------------------------------


  Born effective charge tensors : 

-------------------------------------------------------------------------------
  Atom             x           y             z
-------------------------------------------------------------------------------
    1 Cl    x      -1.0181     -0.0000      0.0000
            y      -0.0000     -1.0181      0.0000
            z       0.0000      0.0000     -1.0181
-------------------------------------------------------------------------------
    2 O     x      -2.2647      0.0000     -0.0000
            y       0.0000     -2.2647     -0.0000
            z      -0.0000     -0.0000     -2.2647
-------------------------------------------------------------------------------
    3 Na    x       1.2258     -0.0000      0.0000
            y      -0.0000      1.2258     -0.0000
            z       0.0000     -0.0000      0.8313
-------------------------------------------------------------------------------




  Elastic Constant Matrix: (Units=GPa)

-------------------------------------------------------------------------------
  Indices      1         2         3         4         5         6    
-------------------------------------------------------------------------------
       1     95.8177   20.0737   20.0737   -0.0000   -0.0000    0.0000
       2     20.0737   95.8177   20.0737   -0.0000   -0.0000    0.0000
       3     20.0737   20.0737   95.8177   -0.0000   -0.0000    0.0000
       4     -0.0000   -0.0000   -0.0000   20.0737   -0.0000    0.0000
       5     -0.0000   -0.0000   -0.0000   -0.0000   20.0737    0.0000
       6      0.0000    0.0000    0.0000    0.0000    0.0000   20.0737
-------------------------------------------------------------------------------


  Elastic Compliance Matrix: (Units=1/GPa)

-------------------------------------------------------------------------------
  Indices      1         2         3         4         5         6    
-------------------------------------------------------------------------------
       1    0.011253 -0.001949 -0.001949  0.000000  0.000000 -0.000000
       2   -0.001949  0.011253 -0.001949  0.000000  0.000000  0.000000
       3   -0.001949 -0.001949  0.011253  0.000000  0.000000 -0.000000
       4    0.000000  0.000000  0.000000  0.049816  0.000000 -0.000000
       5    0.000000  0.000000  0.000000  0.000000  0.049816 -0.000000
       6   -0.000000  0.000000 -0.000000 -0.000000 -0.000000  0.049816
-------------------------------------------------------------------------------

  Mechanical properties :

-------------------------------------------------------------------------------
  Convention :                    Reuss         Voigt         Hill
-------------------------------------------------------------------------------
  Bulk  Modulus (GPa)     =      45.32174      45.32174      45.32174
  Shear Modulus (GPa)     =      24.72085      27.19304      25.95695
-------------------------------------------------------------------------------
  Velocity S-wave (km/s)  =       3.36511       3.52937       3.44822
  Velocity P-wave (km/s)  =       5.98827       6.11304       6.05098
-------------------------------------------------------------------------------
  Compressibility (1/GPa) =    0.02206447
-------------------------------------------------------------------------------
  Stress axis :                     x             y             z
-------------------------------------------------------------------------------
  Youngs Moduli (GPa)     =      88.86373      88.86373      88.86373
-------------------------------------------------------------------------------
  Poissons Ratio (x)      =                     0.17321       0.17321
  Poissons Ratio (y)      =       0.17321                     0.17321
  Poissons Ratio (z)      =       0.17321       0.17321
-------------------------------------------------------------------------------


  Piezoelectric Strain Matrix: (Units=C/m**2)

-------------------------------------------------------------------------------
  Indices      1         2         3         4         5         6    
-------------------------------------------------------------------------------
       x    -0.00000  -0.00000  -0.00000   0.00000  -0.00000  -0.00000
       y    -0.00000  -0.00000   0.00000  -0.00000   0.00000   0.00000
       z    -0.00000  -0.00000  -0.00000  -0.00000   0.00000   0.00000
-------------------------------------------------------------------------------


  Piezoelectric Stress Matrix: (Units=10**-11 C/N)

-------------------------------------------------------------------------------
  Indices      1         2         3         4         5         6    
-------------------------------------------------------------------------------
       x    -0.00000   0.00000   0.00000   0.00000  -0.00000  -0.00000
       y    -0.00000  -0.00000   0.00000  -0.00000   0.00000   0.00000
       z     0.00000   0.00000  -0.00000  -0.00000   0.00000   0.00000
-------------------------------------------------------------------------------


  Static dielectric constant tensor : 

-------------------------------------------------------------------------------
              x         y         z
-------------------------------------------------------------------------------
       x    22.84729   0.00000   0.00000
       y     0.00000  22.84729  -0.00000
       z     0.00000  -0.00000  22.84729
--------------------------------------------------------------------------------

  High frequency dielectric constant tensor : 

-------------------------------------------------------------------------------
              x         y         z
-------------------------------------------------------------------------------
       x     1.47557   0.00000  -0.00000
       y     0.00000   1.47557  -0.00000
       z    -0.00000  -0.00000   1.47557
-------------------------------------------------------------------------------

  Static refractive indices : 

-------------------------------------------------------------------------------
    1 =    4.77988      2 =    4.77988      3 =    4.77988
-------------------------------------------------------------------------------

  High frequency refractive indices : 

-------------------------------------------------------------------------------
    1 =    1.21473      2 =    1.21473      3 =    1.21473
-------------------------------------------------------------------------------


  Time to end of optimisation =       0.0380 seconds

********************************************************************************
*  Defect calculation for configuration   1 :                                  *
********************************************************************************

  Total number of defects =      3

  Total charge on defect  =  -1.00

  Defect centre is at   0.5000   0.2500   0.2500  Frac

  Region 1 radius =  12.0000      Number of ions =    543

  Number of symmetry inequivalent region 1 ions  =    315

  Region 2 radius =  16.0000      Number of ions =    766

  Number of symmetry inequivalent region 2a ions =    417

  Region 2a mode = 4 : screened electrostatics due to region 1 
                       neglect correction to region 1 forces from 2a
                       region 2a displacements based on defects only

  Region 2a ions will only interact with defects in region 1

  Vacancies:

--------------------------------------------------------------------------------
    Specification type     Symbol/Number         x          y          z
--------------------------------------------------------------------------------
    Fractional                               0.500000   0.500000   0.000000
    Fractional                               0.500000   0.000000   0.500000
--------------------------------------------------------------------------------

  Interstitials:

--------------------------------------------------------------------------------
    Specification type     Symbol/Number         x          y          z
--------------------------------------------------------------------------------
    Atom/Fractional         Na               0.500000   0.320000   0.180000
--------------------------------------------------------------------------------


  Symmetry reduced region 1 (Relative to defect centre) :

--------------------------------------------------------------------------------
   No.   Atomic       x            y             z       Radius  Multiplicity   
         Label      (Angs)       (Angs)        (Angs)    (Angs)     
--------------------------------------------------------------------------------
     1  Na    c      0.0000       0.3155      -0.3155    0.0000     1    Defect
     2  O     c      0.0000       1.1269 *     1.1269 *  0.0000     1          
     3  Cl    c      2.2539 *    -1.1269 *    -1.1269 *  0.0000     2          
     4  Na    c      2.2539 *     1.1269 *     1.1269 *  0.0000     2          
     5  O     c      0.0000       1.1269 *    -3.3808 *  0.0000     1          
     6  O     c      0.0000      -3.3808 *     1.1269 *  0.0000     1          
     7  Na    c      0.0000       1.1269 *     3.3808 *  0.0000     1          
     8  Na    c      0.0000      -3.3808 *    -1.1269 *  0.0000     1          
     9  Na    c      0.0000      -1.1269 *    -3.3808 *  0.0000     1          
    10  Na    c      0.0000       3.3808 *     1.1269 *  0.0000     1          
    11  Cl    c      2.2539 *    -1.1269 *     3.3808 *  0.0000     2          
    12  Cl    c      2.2539 *     3.3808 *    -1.1269 *  0.0000     2          
    13  Na    c      2.2539 *     1.1269 *    -3.3808 *  0.0000     2          
    14  Na    c      2.2539 *    -3.3808 *     1.1269 *  0.0000     2          
    15  O     c     -4.5078 *     1.1269 *     1.1269 *  0.0000     2          
    16  Na    c     -4.5078 *     1.1269 *    -1.1269 *  0.0000     2          
    17  Na    c     -4.5078 *    -1.1269 *     1.1269 *  0.0000     2          
    18  O     c      0.0000      -3.3808 *    -3.3808 *  0.0000     1          
    19  Na    c      0.0000      -3.3808 *     3.3808 *  0.0000     1          
    20  Na    c      0.0000       3.3808 *    -3.3808 *  0.0000     1          
    21  Cl    c      2.2539 *     3.3808 *     3.3808 *  0.0000     2          
    22  Na    c      2.2539 *    -3.3808 *    -3.3808 *  0.0000     2          
    23  O     c      0.0000       1.1269 *     5.6347 *  0.0000     1          
    24  O     c      0.0000       5.6347 *     1.1269 *  0.0000     1          
    25  Na    c      0.0000       1.1269 *    -5.6347 *  0.0000     1          
    26  Na    c      0.0000       5.6347 *    -1.1269 *  0.0000     1          
    27  Na    c      0.0000      -1.1269 *     5.6347 *  0.0000     1          
    28  Na    c      0.0000      -5.6347 *     1.1269 *  0.0000     1          
    29  O     c     -4.5078 *     1.1269 *    -3.3808 *  0.0000     2          
    30  O     c     -4.5078 *    -3.3808 *     1.1269 *  0.0000     2          
    31  Na    c     -4.5078 *     1.1269 *     3.3808 *  0.0000     2          
    32  Na    c     -4.5078 *    -3.3808 *    -1.1269 *  0.0000     2          
    33  Na    c     -4.5078 *    -1.1269 *    -3.3808 *  0.0000     2          
    34  Na    c     -4.5078 *     3.3808 *     1.1269 *  0.0000     2          
    35  Cl    c      2.2539 *    -1.1269 *    -5.6347 *  0.0000     2          
    36  Cl    c      2.2539 *    -5.6347 *    -1.1269 *  0.0000     2          
    37  Na    c      2.2539 *     1.1269 *     5.6347 *  0.0000     2          
    38  Na    c      2.2539 *     5.6347 *     1.1269 *  0.0000     2          
    39  O     c      0.0000       5.6347 *    -3.3808 *  0.0000     1          
    40  O     c      0.0000      -3.3808 *     5.6347 *  0.0000     1          
    41  Na    c      0.0000       5.6347 *     3.3808 *  0.0000     1          
    42  Na    c      0.0000      -3.3808 *    -5.6347 *  0.0000     1          
    43  Na    c      0.0000       3.3808 *     5.6347 *  0.0000     1          
    44  Na    c      0.0000      -5.6347 *    -3.3808 *  0.0000     1          
    45  O     c      4.5078 *    -3.3808 *    -3.3808 *  0.0000     2          
    46  Na    c      4.5078 *    -3.3808 *     3.3808 *  0.0000     2          
    47  Na    c      4.5078 *     3.3808 *    -3.3808 *  0.0000     2          
    48  Cl    c      2.2539 *     3.3808 *    -5.6347 *  0.0000     2          
    49  Cl    c      2.2539 *    -5.6347 *     3.3808 *  0.0000     2          
    50  Na    c      2.2539 *     5.6347 *    -3.3808 *  0.0000     2          
    51  Na    c      2.2539 *    -3.3808 *     5.6347 *  0.0000     2          
    52  Cl    c      6.7617 *    -1.1269 *    -1.1269 *  0.0000     2          
    53  Na    c      6.7617 *     1.1269 *     1.1269 *  0.0000     2          
    54  O     c     -4.5078 *     1.1269 *     5.6347 *  0.0000     2          
    55  Na    c     -4.5078 *     1.1269 *    -5.6347 *  0.0000     2          
    56  Na    c     -4.5078 *    -1.1269 *     5.6347 *  0.0000     2          
    57  O     c      4.5078 *     5.6347 *     1.1269 *  0.0000     2          
    58  Na    c      4.5078 *     5.6347 *    -1.1269 *  0.0000     2          
    59  Na    c      4.5078 *    -5.6347 *     1.1269 *  0.0000     2          
    60  Cl    c      6.7617 *    -1.1269 *     3.3808 *  0.0000     2          
    61  Na    c      6.7617 *     1.1269 *    -3.3808 *  0.0000     2          
    62  Cl    c      6.7617 *     3.3808 *    -1.1269 *  0.0000     2          
    63  Na    c      6.7617 *    -3.3808 *     1.1269 *  0.0000     2          
    64  O     c      0.0000       5.6347 *     5.6347 *  0.0000     1          
    65  Na    c      0.0000       5.6347 *    -5.6347 *  0.0000     1          
    66  Na    c      0.0000      -5.6347 *     5.6347 *  0.0000     1          
    67  O     c     -4.5078 *    -3.3808 *     5.6347 *  0.0000     2          
    68  Na    c     -4.5078 *    -3.3808 *    -5.6347 *  0.0000     2          
    69  Na    c     -4.5078 *     3.3808 *     5.6347 *  0.0000     2          
    70  O     c      0.0000       1.1269 *    -7.8886 *  0.0000     1          
    71  O     c      0.0000      -7.8886 *     1.1269 *  0.0000     1          
    72  O     c      4.5078 *     5.6347 *    -3.3808 *  0.0000     2          
    73  Na    c      0.0000       1.1269 *     7.8886 *  0.0000     1          
    74  Na    c      0.0000      -7.8886 *    -1.1269 *  0.0000     1          
    75  Na    c      4.5078 *     5.6347 *     3.3808 *  0.0000     2          
    76  Na    c      0.0000      -1.1269 *    -7.8886 *  0.0000     1          
    77  Na    c      0.0000       7.8886 *     1.1269 *  0.0000     1          
    78  Na    c      4.5078 *    -5.6347 *    -3.3808 *  0.0000     2          
    79  Cl    c      2.2539 *    -5.6347 *    -5.6347 *  0.0000     2          
    80  Na    c      2.2539 *     5.6347 *     5.6347 *  0.0000     2          
    81  Cl    c      2.2539 *    -1.1269 *     7.8886 *  0.0000     2          
    82  Na    c      2.2539 *     1.1269 *    -7.8886 *  0.0000     2          
    83  Cl    c      2.2539 *     7.8886 *    -1.1269 *  0.0000     2          
    84  Cl    c      6.7617 *     3.3808 *     3.3808 *  0.0000     2          
    85  Na    c      2.2539 *    -7.8886 *     1.1269 *  0.0000     2          
    86  Na    c      6.7617 *    -3.3808 *    -3.3808 *  0.0000     2          
    87  O     c      0.0000      -3.3808 *    -7.8886 *  0.0000     1          
    88  O     c      0.0000      -7.8886 *    -3.3808 *  0.0000     1          
    89  Na    c      0.0000      -3.3808 *     7.8886 *  0.0000     1          
    90  Na    c      0.0000      -7.8886 *     3.3808 *  0.0000     1          
    91  Na    c      0.0000       3.3808 *    -7.8886 *  0.0000     1          
    92  Na    c      0.0000       7.8886 *    -3.3808 *  0.0000     1          
    93  Cl    c      2.2539 *     3.3808 *     7.8886 *  0.0000     2          
    94  Cl    c      6.7617 *    -1.1269 *    -5.6347 *  0.0000     2          
    95  Na    c      2.2539 *    -3.3808 *    -7.8886 *  0.0000     2          
    96  Na    c      6.7617 *     1.1269 *     5.6347 *  0.0000     2          
    97  Cl    c      2.2539 *     7.8886 *     3.3808 *  0.0000     2          
    98  Cl    c      6.7617 *    -5.6347 *    -1.1269 *  0.0000     2          
    99  Na    c      2.2539 *    -7.8886 *    -3.3808 *  0.0000     2          
   100  Na    c      6.7617 *     5.6347 *     1.1269 *  0.0000     2          
   101  O     c      4.5078 *     5.6347 *     5.6347 *  0.0000     2          
   102  O     c      4.5078 *    -7.8886 *     1.1269 *  0.0000     2          
   103  O     c      9.0156 *     1.1269 *     1.1269 *  0.0000     2          
   104  O     c     -4.5078 *     1.1269 *    -7.8886 *  0.0000     2          
   105  Na    c      4.5078 *     5.6347 *    -5.6347 *  0.0000     2          
   106  Na    c      4.5078 *    -7.8886 *    -1.1269 *  0.0000     2          
   107  Na    c      9.0156 *     1.1269 *    -1.1269 *  0.0000     2          
   108  Na    c     -4.5078 *     1.1269 *     7.8886 *  0.0000     2          
   109  Na    c      4.5078 *     7.8886 *     1.1269 *  0.0000     2          
   110  Na    c      4.5078 *    -5.6347 *     5.6347 *  0.0000     2          
   111  Na    c      9.0156 *    -1.1269 *     1.1269 *  0.0000     2          
   112  Na    c     -4.5078 *    -1.1269 *    -7.8886 *  0.0000     2          
   113  Cl    c      6.7617 *     3.3808 *    -5.6347 *  0.0000     2          
   114  Na    c      6.7617 *    -3.3808 *     5.6347 *  0.0000     2          
   115  Cl    c      6.7617 *    -5.6347 *     3.3808 *  0.0000     2          
   116  Na    c      6.7617 *     5.6347 *    -3.3808 *  0.0000     2          
   117  O     c      0.0000       5.6347 *    -7.8886 *  0.0000     1          
   118  O     c      0.0000      -7.8886 *     5.6347 *  0.0000     1          
   119  O     c      9.0156 *    -3.3808 *     1.1269 *  0.0000     2          
   120  O     c     -4.5078 *    -3.3808 *    -7.8886 *  0.0000     2          
   121  Na    c      0.0000       5.6347 *     7.8886 *  0.0000     1          
   122  Na    c      0.0000      -7.8886 *    -5.6347 *  0.0000     1          
   123  Na    c      9.0156 *    -3.3808 *    -1.1269 *  0.0000     2          
   124  Na    c     -4.5078 *    -3.3808 *     7.8886 *  0.0000     2          
   125  Na    c      0.0000       7.8886 *     5.6347 *  0.0000     1          
   126  Na    c      0.0000      -5.6347 *    -7.8886 *  0.0000     1          
   127  Na    c      9.0156 *     3.3808 *     1.1269 *  0.0000     2          
   128  Na    c     -4.5078 *     3.3808 *    -7.8886 *  0.0000     2          
   129  O     c      4.5078 *    -7.8886 *    -3.3808 *  0.0000     2          
   130  O     c      9.0156 *     1.1269 *    -3.3808 *  0.0000     2          
   131  Na    c      4.5078 *    -7.8886 *     3.3808 *  0.0000     2          
   132  Na    c      9.0156 *     1.1269 *     3.3808 *  0.0000     2          
   133  Na    c      4.5078 *     7.8886 *    -3.3808 *  0.0000     2          
   134  Na    c      9.0156 *    -1.1269 *    -3.3808 *  0.0000     2          
   135  Cl    c      2.2539 *     7.8886 *    -5.6347 *  0.0000     2          
   136  Cl    c      2.2539 *    -5.6347 *     7.8886 *  0.0000     2          
   137  Na    c      2.2539 *     5.6347 *    -7.8886 *  0.0000     2          
   138  Na    c      2.2539 *    -7.8886 *     5.6347 *  0.0000     2          
   139  O     c      0.0000      10.1425 *     1.1269 *  0.0000     1          
   140  Na    c      0.0000      10.1425 *    -1.1269 *  0.0000     1          
   141  Na    c      0.0000     -10.1425 *     1.1269 *  0.0000     1          
   142  O     c      0.0000       1.1269 *    10.1425 *  0.0000     1          
   143  O     c      9.0156 *    -3.3808 *    -3.3808 *  0.0000     2          
   144  Na    c      0.0000       1.1269 *   -10.1425 *  0.0000     1          
   145  Na    c      9.0156 *    -3.3808 *     3.3808 *  0.0000     2          
   146  Na    c      0.0000      -1.1269 *    10.1425 *  0.0000     1          
   147  Na    c      9.0156 *     3.3808 *    -3.3808 *  0.0000     2          
   148  Cl    c      6.7617 *    -5.6347 *    -5.6347 *  0.0000     2          
   149  Na    c      6.7617 *     5.6347 *     5.6347 *  0.0000     2          
   150  Cl    c      2.2539 *    -1.1269 *   -10.1425 *  0.0000     2          
   151  Cl    c      2.2539 *   -10.1425 *    -1.1269 *  0.0000     2          
   152  Cl    c      6.7617 *    -1.1269 *     7.8886 *  0.0000     2          
   153  Cl    c      6.7617 *     7.8886 *    -1.1269 *  0.0000     2          
   154  Na    c      2.2539 *     1.1269 *    10.1425 *  0.0000     2          
   155  Na    c      2.2539 *    10.1425 *     1.1269 *  0.0000     2          
   156  Na    c      6.7617 *     1.1269 *    -7.8886 *  0.0000     2          
   157  Na    c      6.7617 *    -7.8886 *     1.1269 *  0.0000     2          
   158  O     c      4.5078 *     5.6347 *    -7.8886 *  0.0000     2          
   159  O     c      4.5078 *    -7.8886 *     5.6347 *  0.0000     2          
   160  O     c      9.0156 *     1.1269 *     5.6347 *  0.0000     2          
   161  O     c      9.0156 *     5.6347 *     1.1269 *  0.0000     2          
   162  Na    c      4.5078 *     5.6347 *     7.8886 *  0.0000     2          
   163  Na    c      4.5078 *    -7.8886 *    -5.6347 *  0.0000     2          
   164  Na    c      9.0156 *     1.1269 *    -5.6347 *  0.0000     2          
   165  Na    c      9.0156 *     5.6347 *    -1.1269 *  0.0000     2          
   166  Na    c      4.5078 *     7.8886 *     5.6347 *  0.0000     2          
   167  Na    c      4.5078 *    -5.6347 *    -7.8886 *  0.0000     2          
   168  Na    c      9.0156 *    -1.1269 *     5.6347 *  0.0000     2          
   169  Na    c      9.0156 *    -5.6347 *     1.1269 *  0.0000     2          
   170  O     c      0.0000      10.1425 *    -3.3808 *  0.0000     1          
   171  O     c      0.0000      -3.3808 *    10.1425 *  0.0000     1          
   172  Na    c      0.0000      10.1425 *     3.3808 *  0.0000     1          
   173  Na    c      0.0000      -3.3808 *   -10.1425 *  0.0000     1          
   174  Na    c      0.0000       3.3808 *    10.1425 *  0.0000     1          
   175  Na    c      0.0000     -10.1425 *    -3.3808 *  0.0000     1          
   176  Cl    c      2.2539 *     3.3808 *   -10.1425 *  0.0000     2          
   177  Cl    c      2.2539 *   -10.1425 *     3.3808 *  0.0000     2          
   178  Cl    c      6.7617 *     7.8886 *     3.3808 *  0.0000     2          
   179  Na    c      2.2539 *    10.1425 *    -3.3808 *  0.0000     2          
   180  Na    c      2.2539 *    -3.3808 *    10.1425 *  0.0000     2          
   181  Na    c      6.7617 *    -7.8886 *    -3.3808 *  0.0000     2          
   182  Cl    c      6.7617 *     3.3808 *     7.8886 *  0.0000     2          
   183  Na    c      6.7617 *    -3.3808 *    -7.8886 *  0.0000     2          
   184  O     c      9.0156 *    -3.3808 *     5.6347 *  0.0000     2          
   185  O     c     -4.5078 *    10.1425 *     1.1269 *  0.0000     2          
   186  Na    c      9.0156 *    -3.3808 *    -5.6347 *  0.0000     2          
   187  Na    c     -4.5078 *    10.1425 *    -1.1269 *  0.0000     2          
   188  Na    c      9.0156 *     3.3808 *     5.6347 *  0.0000     2          
   189  Na    c     -4.5078 *   -10.1425 *     1.1269 *  0.0000     2          
   190  O     c      0.0000      -7.8886 *    -7.8886 *  0.0000     1          
   191  O     c      4.5078 *     1.1269 *    10.1425 *  0.0000     2          
   192  O     c      9.0156 *     5.6347 *    -3.3808 *  0.0000     2          
   193  Na    c      0.0000      -7.8886 *     7.8886 *  0.0000     1          
   194  Na    c      4.5078 *     1.1269 *   -10.1425 *  0.0000     2          
   195  Na    c      9.0156 *     5.6347 *     3.3808 *  0.0000     2          
   196  Na    c      0.0000       7.8886 *    -7.8886 *  0.0000     1          
   197  Na    c      4.5078 *    -1.1269 *    10.1425 *  0.0000     2          
   198  Na    c      9.0156 *    -5.6347 *    -3.3808 *  0.0000     2          
   199  Cl    c     11.2695 *    -1.1269 *    -1.1269 *  0.0000     2          
   200  Na    c     11.2695 *     1.1269 *     1.1269 *  0.0000     2          
   201  Cl    c      2.2539 *     7.8886 *     7.8886 *  0.0000     2          
   202  Na    c      2.2539 *    -7.8886 *    -7.8886 *  0.0000     2          
   203  O     c      0.0000       5.6347 *    10.1425 *  0.0000     1          
   204  O     c      0.0000      10.1425 *     5.6347 *  0.0000     1          
   205  O     c     -4.5078 *    10.1425 *    -3.3808 *  0.0000     2          
   206  Na    c      0.0000       5.6347 *   -10.1425 *  0.0000     1          
   207  Na    c      0.0000      10.1425 *    -5.6347 *  0.0000     1          
   208  Na    c     -4.5078 *    10.1425 *     3.3808 *  0.0000     2          
   209  Na    c      0.0000      -5.6347 *    10.1425 *  0.0000     1          
   210  Na    c      0.0000     -10.1425 *     5.6347 *  0.0000     1          
   211  Na    c     -4.5078 *   -10.1425 *    -3.3808 *  0.0000     2          
   212  O     c      4.5078 *    -3.3808 *    10.1425 *  0.0000     2          
   213  Na    c      4.5078 *    -3.3808 *   -10.1425 *  0.0000     2          
   214  Na    c      4.5078 *     3.3808 *    10.1425 *  0.0000     2          
   215  Cl    c     11.2695 *    -1.1269 *     3.3808 *  0.0000     2          
   216  Cl    c     11.2695 *     3.3808 *    -1.1269 *  0.0000     2          
   217  Na    c     11.2695 *     1.1269 *    -3.3808 *  0.0000     2          
   218  Na    c     11.2695 *    -3.3808 *     1.1269 *  0.0000     2          
   219  Cl    c      2.2539 *    -5.6347 *   -10.1425 *  0.0000     2          
   220  Cl    c      2.2539 *   -10.1425 *    -5.6347 *  0.0000     2          
   221  Cl    c      6.7617 *     7.8886 *    -5.6347 *  0.0000     2          
   222  Na    c      2.2539 *     5.6347 *    10.1425 *  0.0000     2          
   223  Na    c      2.2539 *    10.1425 *     5.6347 *  0.0000     2          
   224  Na    c      6.7617 *    -7.8886 *     5.6347 *  0.0000     2          
   225  Cl    c      6.7617 *    -5.6347 *     7.8886 *  0.0000     2          
   226  Na    c      6.7617 *     5.6347 *    -7.8886 *  0.0000     2          
   227  O     s      0.0000       1.1269 *     1.1269 *  0.0000     1          
   228  Cl    s      2.2539 *    -1.1269 *    -1.1269 *  0.0000     2          
   229  O     s      0.0000       1.1269 *    -3.3808 *  0.0000     1          
   230  O     s      0.0000      -3.3808 *     1.1269 *  0.0000     1          
   231  Cl    s      2.2539 *    -1.1269 *     3.3808 *  0.0000     2          
   232  Cl    s      2.2539 *     3.3808 *    -1.1269 *  0.0000     2          
   233  O     s     -4.5078 *     1.1269 *     1.1269 *  0.0000     2          
   234  O     s      0.0000      -3.3808 *    -3.3808 *  0.0000     1          
   235  Cl    s      2.2539 *     3.3808 *     3.3808 *  0.0000     2          
   236  O     s      0.0000       1.1269 *     5.6347 *  0.0000     1          
   237  O     s      0.0000       5.6347 *     1.1269 *  0.0000     1          
   238  O     s     -4.5078 *     1.1269 *    -3.3808 *  0.0000     2          
   239  O     s     -4.5078 *    -3.3808 *     1.1269 *  0.0000     2          
   240  Cl    s      2.2539 *    -1.1269 *    -5.6347 *  0.0000     2          
   241  Cl    s      2.2539 *    -5.6347 *    -1.1269 *  0.0000     2          
   242  O     s      0.0000       5.6347 *    -3.3808 *  0.0000     1          
   243  O     s      0.0000      -3.3808 *     5.6347 *  0.0000     1          
   244  O     s      4.5078 *    -3.3808 *    -3.3808 *  0.0000     2          
   245  Cl    s      2.2539 *     3.3808 *    -5.6347 *  0.0000     2          
   246  Cl    s      2.2539 *    -5.6347 *     3.3808 *  0.0000     2          
   247  Cl    s      6.7617 *    -1.1269 *    -1.1269 *  0.0000     2          
   248  O     s     -4.5078 *     1.1269 *     5.6347 *  0.0000     2          
   249  O     s      4.5078 *     5.6347 *     1.1269 *  0.0000     2          
   250  Cl    s      6.7617 *    -1.1269 *     3.3808 *  0.0000     2          
   251  Cl    s      6.7617 *     3.3808 *    -1.1269 *  0.0000     2          
   252  O     s      0.0000       5.6347 *     5.6347 *  0.0000     1          
   253  O     s     -4.5078 *    -3.3808 *     5.6347 *  0.0000     2          
   254  O     s      0.0000       1.1269 *    -7.8886 *  0.0000     1          
   255  O     s      0.0000      -7.8886 *     1.1269 *  0.0000     1          
   256  O     s      4.5078 *     5.6347 *    -3.3808 *  0.0000     2          
   257  Cl    s      2.2539 *    -5.6347 *    -5.6347 *  0.0000     2          
   258  Cl    s      2.2539 *    -1.1269 *     7.8886 *  0.0000     2          
   259  Cl    s      2.2539 *     7.8886 *    -1.1269 *  0.0000     2          
   260  Cl    s      6.7617 *     3.3808 *     3.3808 *  0.0000     2          
   261  O     s      0.0000      -3.3808 *    -7.8886 *  0.0000     1          
   262  O     s      0.0000      -7.8886 *    -3.3808 *  0.0000     1          
   263  Cl    s      2.2539 *     3.3808 *     7.8886 *  0.0000     2          
   264  Cl    s      6.7617 *    -1.1269 *    -5.6347 *  0.0000     2          
   265  Cl    s      2.2539 *     7.8886 *     3.3808 *  0.0000     2          
   266  Cl    s      6.7617 *    -5.6347 *    -1.1269 *  0.0000     2          
   267  O     s      4.5078 *     5.6347 *     5.6347 *  0.0000     2          
   268  O     s      4.5078 *    -7.8886 *     1.1269 *  0.0000     2          
   269  O     s      9.0156 *     1.1269 *     1.1269 *  0.0000     2          
   270  O     s     -4.5078 *     1.1269 *    -7.8886 *  0.0000     2          
   271  Cl    s      6.7617 *     3.3808 *    -5.6347 *  0.0000     2          
   272  Cl    s      6.7617 *    -5.6347 *     3.3808 *  0.0000     2          
   273  O     s      0.0000       5.6347 *    -7.8886 *  0.0000     1          
   274  O     s      0.0000      -7.8886 *     5.6347 *  0.0000     1          
   275  O     s      9.0156 *    -3.3808 *     1.1269 *  0.0000     2          
   276  O     s     -4.5078 *    -3.3808 *    -7.8886 *  0.0000     2          
   277  O     s      4.5078 *    -7.8886 *    -3.3808 *  0.0000     2          
   278  O     s      9.0156 *     1.1269 *    -3.3808 *  0.0000     2          
   279  Cl    s      2.2539 *     7.8886 *    -5.6347 *  0.0000     2          
   280  Cl    s      2.2539 *    -5.6347 *     7.8886 *  0.0000     2          
   281  O     s      0.0000      10.1425 *     1.1269 *  0.0000     1          
   282  O     s      0.0000       1.1269 *    10.1425 *  0.0000     1          
   283  O     s      9.0156 *    -3.3808 *    -3.3808 *  0.0000     2          
   284  Cl    s      6.7617 *    -5.6347 *    -5.6347 *  0.0000     2          
   285  Cl    s      2.2539 *    -1.1269 *   -10.1425 *  0.0000     2          
   286  Cl    s      2.2539 *   -10.1425 *    -1.1269 *  0.0000     2          
   287  Cl    s      6.7617 *    -1.1269 *     7.8886 *  0.0000     2          
   288  Cl    s      6.7617 *     7.8886 *    -1.1269 *  0.0000     2          
   289  O     s      4.5078 *     5.6347 *    -7.8886 *  0.0000     2          
   290  O     s      4.5078 *    -7.8886 *     5.6347 *  0.0000     2          
   291  O     s      9.0156 *     1.1269 *     5.6347 *  0.0000     2          
   292  O     s      9.0156 *     5.6347 *     1.1269 *  0.0000     2          
   293  O     s      0.0000      10.1425 *    -3.3808 *  0.0000     1          
   294  O     s      0.0000      -3.3808 *    10.1425 *  0.0000     1          
   295  Cl    s      2.2539 *     3.3808 *   -10.1425 *  0.0000     2          
   296  Cl    s      2.2539 *   -10.1425 *     3.3808 *  0.0000     2          
   297  Cl    s      6.7617 *     7.8886 *     3.3808 *  0.0000     2          
   298  Cl    s      6.7617 *     3.3808 *     7.8886 *  0.0000     2          
   299  O     s      9.0156 *    -3.3808 *     5.6347 *  0.0000     2          
   300  O     s     -4.5078 *    10.1425 *     1.1269 *  0.0000     2          
   301  O     s      0.0000      -7.8886 *    -7.8886 *  0.0000     1          
   302  O     s      4.5078 *     1.1269 *    10.1425 *  0.0000     2          
   303  O     s      9.0156 *     5.6347 *    -3.3808 *  0.0000     2          
   304  Cl    s     11.2695 *    -1.1269 *    -1.1269 *  0.0000     2          
   305  Cl    s      2.2539 *     7.8886 *     7.8886 *  0.0000     2          
   306  O     s      0.0000       5.6347 *    10.1425 *  0.0000     1          
   307  O     s      0.0000      10.1425 *     5.6347 *  0.0000     1          
   308  O     s     -4.5078 *    10.1425 *    -3.3808 *  0.0000     2          
   309  O     s      4.5078 *    -3.3808 *    10.1425 *  0.0000     2          
   310  Cl    s     11.2695 *    -1.1269 *     3.3808 *  0.0000     2          
   311  Cl    s     11.2695 *     3.3808 *    -1.1269 *  0.0000     2          
   312  Cl    s      2.2539 *    -5.6347 *   -10.1425 *  0.0000     2          
   313  Cl    s      2.2539 *   -10.1425 *    -5.6347 *  0.0000     2          
   314  Cl    s      6.7617 *     7.8886 *    -5.6347 *  0.0000     2          
   315  Cl    s      6.7617 *    -5.6347 *     7.8886 *  0.0000     2          
--------------------------------------------------------------------------------

  Components of defect energy : 

--------------------------------------------------------------------------------
  Region 1 - region 1                   =     10.31370060 eV
  Region 1 - region 2a (unrelaxed)      =     -0.27746571 eV
  Region 1 - 2a (relaxed - correction)  =     -0.28803398 eV
  Region 1 (Total)                      =      9.74820092 eV
  Region 2a                             =      0.14394700 eV
  Region 2b                             =     -0.43190864 eV
--------------------------------------------------------------------------------
  Total defect energy                   =      9.46023928 eV
--------------------------------------------------------------------------------

  Largest displacement in region 2 =   0.0209 Angstroms


  Number of variables =      856

  Maximum number of calculations  =        1000
  Maximum Hessian update interval =          10
  Maximum step size               =   1.0000000
  Maximum parameter tolerance     =   0.0000100
  Maximum function  tolerance     =   0.0000100
  Maximum gradient  tolerance     =   0.0010000

  Symmetry adapted optimisation

  Symmetry to be used for second derivatives

  Newton-Raphson optimiser to be used

  BFGS hessian update to be used

  Lower half triangular hessian to be used

  Start of defect optimisation :

  Cycle:      0 Defect Energy:   9.460239  Gnorm:     0.022058  CPU:    3.144
  ** Hessian calculated **
  Cycle:      1 Defect Energy:   7.922555  Gnorm:     0.011739  CPU:    7.944
  Cycle:      2 Defect Energy:   7.414989  Gnorm:     0.010761  CPU:   12.474
  Cycle:      3 Defect Energy:   7.212025  Gnorm:     0.008942  CPU:   15.808
  Cycle:      4 Defect Energy:   6.882812  Gnorm:     0.009314  CPU:   20.681
  Cycle:      5 Defect Energy:   6.563956  Gnorm:     0.006734  CPU:   25.269
  Cycle:      6 Defect Energy:   6.210798  Gnorm:     0.007800  CPU:   29.433
  Cycle:      7 Defect Energy:   5.869263  Gnorm:     0.006583  CPU:   32.527
  Cycle:      8 Defect Energy:   5.593523  Gnorm:     0.004440  CPU:   40.178
  Cycle:      9 Defect Energy:   5.526314  Gnorm:     0.003470  CPU:   41.163
  Cycle:     10 Defect Energy:   5.453048  Gnorm:     0.002841  CPU:   42.143
  ** Hessian calculated **
  Cycle:     11 Defect Energy:   5.397247  Gnorm:     0.002659  CPU:   44.701
  Cycle:     12 Defect Energy:   5.362620  Gnorm:     0.002535  CPU:   45.790
  ** Hessian calculated **
  Cycle:     13 Defect Energy:   5.308574  Gnorm:     0.002340  CPU:   48.307
  Cycle:     14 Defect Energy:   5.264588  Gnorm:     0.002168  CPU:   49.258
  ** Hessian calculated **
  Cycle:     15 Defect Energy:   5.115145  Gnorm:     0.001579  CPU:   51.758
  Cycle:     16 Defect Energy:   5.023669  Gnorm:     0.000842  CPU:   52.676
  Cycle:     17 Defect Energy:   4.989457  Gnorm:     0.000598  CPU:   53.598
  Cycle:     18 Defect Energy:   4.967459  Gnorm:     0.000499  CPU:   54.528
  Cycle:     19 Defect Energy:   4.969454  Gnorm:     0.000559  CPU:   55.524
  ** Hessian calculated **
  Cycle:     20 Defect Energy:   4.967506  Gnorm:     0.000399  CPU:   57.817
  Cycle:     21 Defect Energy:   4.966110  Gnorm:     0.000347  CPU:   58.774
  Cycle:     22 Defect Energy:   4.964534  Gnorm:     0.000332  CPU:   59.779
  Cycle:     23 Defect Energy:   4.963031  Gnorm:     0.000334  CPU:   60.348
  Cycle:     24 Defect Energy:   4.961612  Gnorm:     0.000334  CPU:   61.183
  Cycle:     25 Defect Energy:   4.960505  Gnorm:     0.000340  CPU:   65.555
  Cycle:     26 Defect Energy:   4.959395  Gnorm:     0.000343  CPU:   67.047
  Cycle:     27 Defect Energy:   4.958516  Gnorm:     0.000328  CPU:   68.159
  Cycle:     28 Defect Energy:   4.957617  Gnorm:     0.000327  CPU:   69.286
  Cycle:     29 Defect Energy:   4.956801  Gnorm:     0.000319  CPU:   70.403
  ** Hessian calculated **
  Cycle:     30 Defect Energy:   4.956524  Gnorm:     0.000308  CPU:   73.127
  Cycle:     31 Defect Energy:   4.956198  Gnorm:     0.000304  CPU:   74.078
  Cycle:     32 Defect Energy:   4.955749  Gnorm:     0.000299  CPU:   75.033
  Cycle:     33 Defect Energy:   4.955166  Gnorm:     0.000295  CPU:   76.183
  Cycle:     34 Defect Energy:   4.954366  Gnorm:     0.000291  CPU:   77.130
  Cycle:     35 Defect Energy:   4.953409  Gnorm:     0.000291  CPU:   78.053
  Cycle:     36 Defect Energy:   4.952451  Gnorm:     0.000298  CPU:   78.976
  Cycle:     37 Defect Energy:   4.951675  Gnorm:     0.000296  CPU:   79.964
  Cycle:     38 Defect Energy:   4.950843  Gnorm:     0.000303  CPU:   80.980
  Cycle:     39 Defect Energy:   4.949919  Gnorm:     0.000311  CPU:   81.886
  ** Hessian calculated **
  Cycle:     40 Defect Energy:   4.949608  Gnorm:     0.000300  CPU:   84.217
  Cycle:     41 Defect Energy:   4.949190  Gnorm:     0.000297  CPU:   85.127
  Cycle:     42 Defect Energy:   4.948603  Gnorm:     0.000293  CPU:   86.114
  Cycle:     43 Defect Energy:   4.947870  Gnorm:     0.000290  CPU:   87.068
  Cycle:     44 Defect Energy:   4.947051  Gnorm:     0.000289  CPU:   87.959
  Cycle:     45 Defect Energy:   4.946491  Gnorm:     0.000290  CPU:   88.825
  Cycle:     46 Defect Energy:   4.945892  Gnorm:     0.000297  CPU:   89.798
  Cycle:     47 Defect Energy:   4.945341  Gnorm:     0.000302  CPU:   90.825
  Cycle:     48 Defect Energy:   4.944608  Gnorm:     0.000308  CPU:   92.088
  Cycle:     49 Defect Energy:   4.943628  Gnorm:     0.000321  CPU:   95.998
  ** Hessian calculated **
  Cycle:     50 Defect Energy:   4.943220  Gnorm:     0.000312  CPU:   98.586
  Cycle:     51 Defect Energy:   4.942706  Gnorm:     0.000309  CPU:   99.515
  Cycle:     52 Defect Energy:   4.941966  Gnorm:     0.000304  CPU:  100.416
  Cycle:     53 Defect Energy:   4.941010  Gnorm:     0.000300  CPU:  101.439
  Cycle:     54 Defect Energy:   4.939710  Gnorm:     0.000298  CPU:  102.323
  Cycle:     55 Defect Energy:   4.938177  Gnorm:     0.000307  CPU:  103.187
  Cycle:     56 Defect Energy:   4.936635  Gnorm:     0.000320  CPU:  104.028
  Cycle:     57 Defect Energy:   4.935196  Gnorm:     0.000337  CPU:  104.876
  Cycle:     58 Defect Energy:   4.933526  Gnorm:     0.000365  CPU:  105.844
  Cycle:     59 Defect Energy:   4.931045  Gnorm:     0.000408  CPU:  106.447
  ** Hessian calculated **
  Cycle:     60 Defect Energy:   4.924965  Gnorm:     0.000406  CPU:  108.952
  Cycle:     61 Defect Energy:   4.916646  Gnorm:     0.000398  CPU:  109.966
  Cycle:     62 Defect Energy:   4.906466  Gnorm:     0.000365  CPU:  110.969
  Cycle:     63 Defect Energy:   4.908990  Gnorm:     0.000491  CPU:  112.096
  Cycle:     64 Defect Energy:   4.905080  Gnorm:     0.000417  CPU:  113.054
  Cycle:     65 Defect Energy:   4.901547  Gnorm:     0.000278  CPU:  114.017
  Cycle:     66 Defect Energy:   4.899494  Gnorm:     0.000195  CPU:  114.943
  Cycle:     67 Defect Energy:   4.896963  Gnorm:     0.000114  CPU:  115.874
  Cycle:     68 Defect Energy:   4.896894  Gnorm:     0.000105  CPU:  116.829
  ** Hessian calculated **
  Cycle:     69 Defect Energy:   4.896792  Gnorm:     0.000093  CPU:  119.169
  Cycle:     70 Defect Energy:   4.896646  Gnorm:     0.000089  CPU:  120.049
  Cycle:     71 Defect Energy:   4.896435  Gnorm:     0.000090  CPU:  120.927
  Cycle:     72 Defect Energy:   4.896150  Gnorm:     0.000090  CPU:  121.883
  Cycle:     73 Defect Energy:   4.895729  Gnorm:     0.000096  CPU:  122.749
  Cycle:     74 Defect Energy:   4.895159  Gnorm:     0.000110  CPU:  123.606
  Cycle:     75 Defect Energy:   4.894320  Gnorm:     0.000136  CPU:  124.447
  Cycle:     76 Defect Energy:   4.893156  Gnorm:     0.000179  CPU:  125.310
  Cycle:     77 Defect Energy:   4.891456  Gnorm:     0.000253  CPU:  126.149
  Cycle:     78 Defect Energy:   4.889205  Gnorm:     0.000350  CPU:  127.090
  ** Hessian calculated **
  Cycle:     79 Defect Energy:   4.888024  Gnorm:     0.000306  CPU:  128.986
  Cycle:     80 Defect Energy:   4.886608  Gnorm:     0.000290  CPU:  129.906
  Cycle:     81 Defect Energy:   4.884697  Gnorm:     0.000277  CPU:  130.813
  Cycle:     82 Defect Energy:   4.882220  Gnorm:     0.000272  CPU:  131.728
  Cycle:     83 Defect Energy:   4.879058  Gnorm:     0.000275  CPU:  132.667
  Cycle:     84 Defect Energy:   4.875037  Gnorm:     0.000322  CPU:  133.703
  Cycle:     85 Defect Energy:   4.869731  Gnorm:     0.000400  CPU:  134.744
  Cycle:     86 Defect Energy:   4.862322  Gnorm:     0.000510  CPU:  135.745
  Cycle:     87 Defect Energy:   4.851883  Gnorm:     0.000721  CPU:  136.703
  Cycle:     88 Defect Energy:   4.843925  Gnorm:     0.000873  CPU:  137.733
  ** Hessian calculated **
  Cycle:     89 Defect Energy:   4.823393  Gnorm:     0.000834  CPU:  140.155
  ** Hessian calculated **
  Cycle:     90 Defect Energy:   4.758359  Gnorm:     0.000676  CPU:  142.521
  Cycle:     91 Defect Energy:   4.732214  Gnorm:     0.000455  CPU:  143.206
  Cycle:     92 Defect Energy:   4.726256  Gnorm:     0.000393  CPU:  143.986
  ** Hessian calculated **
  Cycle:     93 Defect Energy:   4.725006  Gnorm:     0.000290  CPU:  146.615
  Cycle:     94 Defect Energy:   4.723684  Gnorm:     0.000254  CPU:  147.751
  Cycle:     95 Defect Energy:   4.722356  Gnorm:     0.000236  CPU:  148.865
  Cycle:     96 Defect Energy:   4.721274  Gnorm:     0.000220  CPU:  149.887
  Cycle:     97 Defect Energy:   4.720520  Gnorm:     0.000208  CPU:  150.902
  Cycle:     98 Defect Energy:   4.719922  Gnorm:     0.000206  CPU:  151.890
  Cycle:     99 Defect Energy:   4.719408  Gnorm:     0.000202  CPU:  152.907
  Cycle:    100 Defect Energy:   4.718925  Gnorm:     0.000200  CPU:  153.819
  Cycle:    101 Defect Energy:   4.718468  Gnorm:     0.000199  CPU:  154.654
  Cycle:    102 Defect Energy:   4.718042  Gnorm:     0.000199  CPU:  155.562
  ** Hessian calculated **
  Cycle:    103 Defect Energy:   4.717933  Gnorm:     0.000194  CPU:  157.990
  Cycle:    104 Defect Energy:   4.717801  Gnorm:     0.000192  CPU:  158.540
  Cycle:    105 Defect Energy:   4.717616  Gnorm:     0.000188  CPU:  159.557
  Cycle:    106 Defect Energy:   4.717391  Gnorm:     0.000185  CPU:  160.610
  Cycle:    107 Defect Energy:   4.717108  Gnorm:     0.000183  CPU:  161.629
  Cycle:    108 Defect Energy:   4.716883  Gnorm:     0.000180  CPU:  162.654
  Cycle:    109 Defect Energy:   4.716682  Gnorm:     0.000183  CPU:  163.693
  Cycle:    110 Defect Energy:   4.716480  Gnorm:     0.000179  CPU:  164.813
  Cycle:    111 Defect Energy:   4.716257  Gnorm:     0.000180  CPU:  165.810
  Cycle:    112 Defect Energy:   4.715978  Gnorm:     0.000180  CPU:  166.815
  ** Hessian calculated **
  Cycle:    113 Defect Energy:   4.715861  Gnorm:     0.000176  CPU:  169.486
  Cycle:    114 Defect Energy:   4.715704  Gnorm:     0.000174  CPU:  170.437
  Cycle:    115 Defect Energy:   4.715487  Gnorm:     0.000170  CPU:  171.435
  Cycle:    116 Defect Energy:   4.715243  Gnorm:     0.000167  CPU:  172.413
  Cycle:    117 Defect Energy:   4.715068  Gnorm:     0.000164  CPU:  173.478
  Cycle:    118 Defect Energy:   4.714961  Gnorm:     0.000165  CPU:  174.436
  Cycle:    119 Defect Energy:   4.714814  Gnorm:     0.000164  CPU:  175.372
  Cycle:    120 Defect Energy:   4.714720  Gnorm:     0.000164  CPU:  176.363
  Cycle:    121 Defect Energy:   4.714572  Gnorm:     0.000163  CPU:  177.294
  Cycle:    122 Defect Energy:   4.714399  Gnorm:     0.000164  CPU:  178.151
  ** Hessian calculated **
  Cycle:    123 Defect Energy:   4.714341  Gnorm:     0.000160  CPU:  180.516
  Cycle:    124 Defect Energy:   4.714279  Gnorm:     0.000159  CPU:  181.347
  Cycle:    125 Defect Energy:   4.714181  Gnorm:     0.000156  CPU:  182.263
  Cycle:    126 Defect Energy:   4.714079  Gnorm:     0.000153  CPU:  183.190
  Cycle:    127 Defect Energy:   4.713957  Gnorm:     0.000151  CPU:  183.932
  Cycle:    128 Defect Energy:   4.713909  Gnorm:     0.000150  CPU:  185.416
  Cycle:    129 Defect Energy:   4.713825  Gnorm:     0.000147  CPU:  188.985
  Cycle:    130 Defect Energy:   4.713766  Gnorm:     0.000146  CPU:  190.093
  Cycle:    131 Defect Energy:   4.713662  Gnorm:     0.000146  CPU:  191.190
  Cycle:    132 Defect Energy:   4.713529  Gnorm:     0.000146  CPU:  192.260
  ** Hessian calculated **
  Cycle:    133 Defect Energy:   4.713471  Gnorm:     0.000143  CPU:  195.106
  Cycle:    134 Defect Energy:   4.713386  Gnorm:     0.000142  CPU:  196.187
  Cycle:    135 Defect Energy:   4.713273  Gnorm:     0.000140  CPU:  197.273
  Cycle:    136 Defect Energy:   4.713129  Gnorm:     0.000138  CPU:  198.433
  Cycle:    137 Defect Energy:   4.713023  Gnorm:     0.000137  CPU:  199.440
  Cycle:    138 Defect Energy:   4.712934  Gnorm:     0.000137  CPU:  200.527
  Cycle:    139 Defect Energy:   4.712863  Gnorm:     0.000138  CPU:  201.628
  Cycle:    140 Defect Energy:   4.712782  Gnorm:     0.000138  CPU:  202.741
  Cycle:    141 Defect Energy:   4.712698  Gnorm:     0.000139  CPU:  203.760
  Cycle:    142 Defect Energy:   4.712562  Gnorm:     0.000140  CPU:  204.821
  ** Hessian calculated **
  Cycle:    143 Defect Energy:   4.712535  Gnorm:     0.000138  CPU:  207.218
  Cycle:    144 Defect Energy:   4.712487  Gnorm:     0.000137  CPU:  208.225
  Cycle:    145 Defect Energy:   4.712435  Gnorm:     0.000134  CPU:  209.156
  Cycle:    146 Defect Energy:   4.712354  Gnorm:     0.000132  CPU:  210.077
  Cycle:    147 Defect Energy:   4.712312  Gnorm:     0.000131  CPU:  211.016
  Cycle:    148 Defect Energy:   4.712246  Gnorm:     0.000129  CPU:  211.937
  Cycle:    149 Defect Energy:   4.712228  Gnorm:     0.000129  CPU:  213.050
  Cycle:    150 Defect Energy:   4.712177  Gnorm:     0.000128  CPU:  213.964
  Cycle:    151 Defect Energy:   4.712131  Gnorm:     0.000128  CPU:  214.844
  Cycle:    152 Defect Energy:   4.712042  Gnorm:     0.000128  CPU:  215.735
  ** Hessian calculated **
  Cycle:    153 Defect Energy:   4.711998  Gnorm:     0.000126  CPU:  218.050
  Cycle:    154 Defect Energy:   4.711943  Gnorm:     0.000125  CPU:  218.708
  Cycle:    155 Defect Energy:   4.711858  Gnorm:     0.000124  CPU:  219.433
  Cycle:    156 Defect Energy:   4.711761  Gnorm:     0.000123  CPU:  220.369
  Cycle:    157 Defect Energy:   4.711662  Gnorm:     0.000122  CPU:  221.312
  Cycle:    158 Defect Energy:   4.711612  Gnorm:     0.000123  CPU:  222.265
  Cycle:    159 Defect Energy:   4.711526  Gnorm:     0.000123  CPU:  223.197
  Cycle:    160 Defect Energy:   4.711484  Gnorm:     0.000124  CPU:  224.135
  Cycle:    161 Defect Energy:   4.711406  Gnorm:     0.000125  CPU:  225.091
  Cycle:    162 Defect Energy:   4.711316  Gnorm:     0.000127  CPU:  226.102
  ** Hessian calculated **
  Cycle:    163 Defect Energy:   4.711290  Gnorm:     0.000125  CPU:  228.439
  Cycle:    164 Defect Energy:   4.711260  Gnorm:     0.000124  CPU:  229.333
  Cycle:    165 Defect Energy:   4.711214  Gnorm:     0.000122  CPU:  230.344
  Cycle:    166 Defect Energy:   4.711167  Gnorm:     0.000120  CPU:  231.212
  Cycle:    167 Defect Energy:   4.711109  Gnorm:     0.000119  CPU:  232.079
  Cycle:    168 Defect Energy:   4.711093  Gnorm:     0.000118  CPU:  232.961
  Cycle:    169 Defect Energy:   4.711054  Gnorm:     0.000117  CPU:  233.930
  Cycle:    170 Defect Energy:   4.711038  Gnorm:     0.000117  CPU:  234.889
  Cycle:    171 Defect Energy:   4.710982  Gnorm:     0.000117  CPU:  235.481
  Cycle:    172 Defect Energy:   4.710931  Gnorm:     0.000118  CPU:  238.747
  ** Hessian calculated **
  Cycle:    173 Defect Energy:   4.710895  Gnorm:     0.000116  CPU:  243.130
  Cycle:    174 Defect Energy:   4.710849  Gnorm:     0.000116  CPU:  244.194
  Cycle:    175 Defect Energy:   4.710779  Gnorm:     0.000115  CPU:  245.269
  Cycle:    176 Defect Energy:   4.710695  Gnorm:     0.000113  CPU:  246.421
  Cycle:    177 Defect Energy:   4.710615  Gnorm:     0.000113  CPU:  247.490
  Cycle:    178 Defect Energy:   4.710564  Gnorm:     0.000113  CPU:  248.425
  Cycle:    179 Defect Energy:   4.710503  Gnorm:     0.000114  CPU:  248.990
  Cycle:    180 Defect Energy:   4.710462  Gnorm:     0.000115  CPU:  249.847
  Cycle:    181 Defect Energy:   4.710383  Gnorm:     0.000116  CPU:  250.848
  Cycle:    182 Defect Energy:   4.710317  Gnorm:     0.000118  CPU:  251.966
  ** Hessian calculated **
  Cycle:    183 Defect Energy:   4.710295  Gnorm:     0.000116  CPU:  254.476
  Cycle:    184 Defect Energy:   4.710272  Gnorm:     0.000115  CPU:  255.438
  Cycle:    185 Defect Energy:   4.710234  Gnorm:     0.000114  CPU:  256.487
  Cycle:    186 Defect Energy:   4.710198  Gnorm:     0.000112  CPU:  257.564
  Cycle:    187 Defect Energy:   4.710148  Gnorm:     0.000111  CPU:  258.603
  Cycle:    188 Defect Energy:   4.710139  Gnorm:     0.000110  CPU:  259.664
  Cycle:    189 Defect Energy:   4.710104  Gnorm:     0.000110  CPU:  260.784
  Cycle:    190 Defect Energy:   4.710092  Gnorm:     0.000110  CPU:  261.851
  Cycle:    191 Defect Energy:   4.710051  Gnorm:     0.000110  CPU:  262.856
  Cycle:    192 Defect Energy:   4.710007  Gnorm:     0.000111  CPU:  263.825
  ** Hessian calculated **
  Cycle:    193 Defect Energy:   4.709977  Gnorm:     0.000109  CPU:  266.488
  Cycle:    194 Defect Energy:   4.709935  Gnorm:     0.000109  CPU:  267.358
  Cycle:    195 Defect Energy:   4.709877  Gnorm:     0.000108  CPU:  268.209
  Cycle:    196 Defect Energy:   4.709800  Gnorm:     0.000107  CPU:  269.059
  Cycle:    197 Defect Energy:   4.709734  Gnorm:     0.000107  CPU:  269.908
  Cycle:    198 Defect Energy:   4.709678  Gnorm:     0.000107  CPU:  270.781
  Cycle:    199 Defect Energy:   4.709639  Gnorm:     0.000108  CPU:  271.765
  Cycle:    200 Defect Energy:   4.709579  Gnorm:     0.000109  CPU:  272.270
  Cycle:    201 Defect Energy:   4.709537  Gnorm:     0.000110  CPU:  273.188
  Cycle:    202 Defect Energy:   4.709450  Gnorm:     0.000112  CPU:  274.185
  ** Hessian calculated **
  Cycle:    203 Defect Energy:   4.709441  Gnorm:     0.000110  CPU:  276.806
  Cycle:    204 Defect Energy:   4.709415  Gnorm:     0.000109  CPU:  277.844
  Cycle:    205 Defect Energy:   4.709391  Gnorm:     0.000108  CPU:  279.006
  Cycle:    206 Defect Energy:   4.709349  Gnorm:     0.000106  CPU:  280.027
  Cycle:    207 Defect Energy:   4.709331  Gnorm:     0.000106  CPU:  280.989
  Cycle:    208 Defect Energy:   4.709300  Gnorm:     0.000104  CPU:  281.948
  Cycle:    209 Defect Energy:   4.709294  Gnorm:     0.000104  CPU:  283.042
  Cycle:    210 Defect Energy:   4.709270  Gnorm:     0.000104  CPU:  283.983
  Cycle:    211 Defect Energy:   4.709251  Gnorm:     0.000105  CPU:  284.909
  Cycle:    212 Defect Energy:   4.709203  Gnorm:     0.000106  CPU:  285.839
  ** Hessian calculated **
  Cycle:    213 Defect Energy:   4.709026  Gnorm:     0.000106  CPU:  288.309
  Cycle:    214 Defect Energy:   4.708759  Gnorm:     0.000106  CPU:  289.224
  Cycle:    215 Defect Energy:   4.708355  Gnorm:     0.000105  CPU:  290.131
  Cycle:    216 Defect Energy:   4.707738  Gnorm:     0.000104  CPU:  291.073
  Cycle:    217 Defect Energy:   4.706804  Gnorm:     0.000100  CPU:  291.990
  Cycle:    218 Defect Energy:   4.705430  Gnorm:     0.000093  CPU:  292.891
  Cycle:    219 Defect Energy:   4.703613  Gnorm:     0.000077  CPU:  293.895
  Cycle:    220 Defect Energy:   4.702848  Gnorm:     0.000054  CPU:  294.781
  Cycle:    221 Defect Energy:   4.702612  Gnorm:     0.000043  CPU:  295.642
  Cycle:    222 Defect Energy:   4.702529  Gnorm:     0.000022  CPU:  296.534
  ** Hessian calculated **
  Cycle:    223 Defect Energy:   4.702499  Gnorm:     0.000016  CPU:  298.751


  **** Optimisation achieved ****


  Final defect energy  =        4.70249263
  Final defect Gnorm   =        0.00001108

  Components of defect energy : 

--------------------------------------------------------------------------------
  Region 1 - region 1                   =      6.12467006 eV
  Region 1 - region 2a (unrelaxed)      =     -0.87950405 eV
  Region 1 - 2a (relaxed - correction)  =     -0.22159485 eV
  Region 1 (Total)                      =      5.02357116 eV
  Region 2a                             =      0.11073646 eV
  Region 2b                             =     -0.43181499 eV
--------------------------------------------------------------------------------
  Total defect energy                   =      4.70249263 eV
--------------------------------------------------------------------------------

  Largest displacement in region 2 =   0.0209 Angstroms

  Final coordinates of region 1 :

--------------------------------------------------------------------------------
   No.  Atomic        x           y           z          Radius      Charge
        Label       (Angs)      (Angs)      (Angs)       (Angs)       (e) 
--------------------------------------------------------------------------------
     1  Na    c     2.253894    1.442492    0.811402    0.000000    1.000000
     2  O     c     2.253894    2.454006    2.653493    0.000000    0.183000
     3  Cl    c     4.526825   -0.032672   -0.078905    0.000000    1.485000
     4  Cl    c    -0.019038   -0.032672   -0.078905    0.000000    1.485000
     5  Na    c     4.498208    2.325160    2.699058    0.000000    1.000000
     6  Na    c     0.009580    2.325160    2.699058    0.000000    1.000000
     7  O     c     2.253894    2.259633   -2.175651    0.000000    0.183000
     8  O     c     2.253894   -2.292814    2.292102    0.000000    0.183000
     9  Na    c     2.253894    1.558347    4.633677    0.000000    1.000000
    10  Na    c     2.253894   -2.059253    0.083880    0.000000    1.000000
    11  Na    c     2.253894    0.026815   -2.372272    0.000000    1.000000
    12  Na    c     2.253894    4.605748    2.417048    0.000000    1.000000
    13  Cl    c     4.642182   -0.018422    4.635663    0.000000    1.485000
    14  Cl    c    -0.134395   -0.018422    4.635663    0.000000    1.485000
    15  Cl    c     4.591433    4.683685    0.019055    0.000000    1.485000
    16  Cl    c    -0.083646    4.683685    0.019055    0.000000    1.485000
    17  Na    c     4.467659    2.267686   -2.015606    0.000000    1.000000
    18  Na    c     0.040128    2.267686   -2.015606    0.000000    1.000000
    19  Na    c     4.428866   -1.823661    2.267505    0.000000    1.000000
    20  Na    c     0.078921   -1.823661    2.267505    0.000000    1.000000
    21  O     c    -2.252180    2.281497    2.315794    0.000000    0.183000
    22  O     c     6.759967    2.281497    2.315794    0.000000    0.183000
    23  Na    c    -2.139108    1.864269    0.080633    0.000000    1.000000
    24  Na    c     6.646896    1.864269    0.080633    0.000000    1.000000
    25  Na    c    -2.410105    0.033665    2.686496    0.000000    1.000000
    26  Na    c     6.917892    0.033665    2.686496    0.000000    1.000000
    27  O     c     2.253894   -2.253596   -2.205368    0.000000    0.183000
    28  Na    c     2.253894   -1.870318    4.479040    0.000000    1.000000
    29  Na    c     2.253894    4.429496   -1.633304    0.000000    1.000000
    30  Cl    c     4.683524    4.585560    4.613613    0.000000    1.485000
    31  Cl    c    -0.175737    4.585560    4.613613    0.000000    1.485000
    32  Na    c     4.507452   -2.261046   -2.177964    0.000000    1.000000
    33  Na    c     0.000336   -2.261046   -2.177964    0.000000    1.000000
    34  O     c     2.253894    2.203552    6.815318    0.000000    0.183000
    35  O     c     2.253894    6.848702    2.296665    0.000000    0.183000
    36  Na    c     2.253894    2.602463   -4.409255    0.000000    1.000000
    37  Na    c     2.253894    6.938252    0.029461    0.000000    1.000000
    38  Na    c     2.253894   -0.006972    7.339484    0.000000    1.000000
    39  Na    c     2.253894   -4.492627    2.344855    0.000000    1.000000
    40  O     c    -2.233257    2.249181   -2.177667    0.000000    0.183000
    41  O     c     6.741044    2.249181   -2.177667    0.000000    0.183000
    42  O     c    -2.210011   -2.205288    2.267586    0.000000    0.183000
    43  O     c     6.717798   -2.205288    2.267586    0.000000    0.183000
    44  Na    c    -2.429551    2.651296    4.555450    0.000000    1.000000
    45  Na    c     6.937338    2.651296    4.555450    0.000000    1.000000
    46  Na    c    -2.259327   -1.867231    0.021616    0.000000    1.000000
    47  Na    c     6.767114   -1.867231    0.021616    0.000000    1.000000
    48  Na    c    -2.162867    0.010294   -2.608675    0.000000    1.000000
    49  Na    c     6.670655    0.010294   -2.608675    0.000000    1.000000
    50  Na    c    -2.167304    4.524938    1.921384    0.000000    1.000000
    51  Na    c     6.675091    4.524938    1.921384    0.000000    1.000000
    52  Cl    c     4.518854   -0.056104   -4.540516    0.000000    1.485000
    53  Cl    c    -0.011067   -0.056104   -4.540516    0.000000    1.485000
    54  Cl    c     4.519682   -4.620917   -0.096168    0.000000    1.485000
    55  Cl    c    -0.011895   -4.620917   -0.096168    0.000000    1.485000
    56  Na    c     4.523249    2.221931    6.708040    0.000000    1.000000
    57  Na    c    -0.015461    2.221931    6.708040    0.000000    1.000000
    58  Na    c     4.518507    6.793024    2.305915    0.000000    1.000000
    59  Na    c    -0.010720    6.793024    2.305915    0.000000    1.000000
    60  O     c     2.253894    6.682113   -2.219135    0.000000    0.183000
    61  O     c     2.253894   -2.210958    6.772860    0.000000    0.183000
    62  Na    c     2.253894    7.116527    4.522078    0.000000    1.000000
    63  Na    c     2.253894   -2.489662   -4.459224    0.000000    1.000000
    64  Na    c     2.253894    4.438668    6.255051    0.000000    1.000000
    65  Na    c     2.253894   -4.495248   -1.973681    0.000000    1.000000
    66  O     c     6.766491   -2.239792   -2.231833    0.000000    0.183000
    67  O     c    -2.258704   -2.239792   -2.231833    0.000000    0.183000
    68  Na    c     6.666676   -2.583997    4.500710    0.000000    1.000000
    69  Na    c    -2.158888   -2.583997    4.500710    0.000000    1.000000
    70  Na    c     6.823128    4.503982   -1.856614    0.000000    1.000000
    71  Na    c    -2.315340    4.503982   -1.856614    0.000000    1.000000
    72  Cl    c     4.560176    4.543327   -4.590682    0.000000    1.485000
    73  Cl    c    -0.052389    4.543327   -4.590682    0.000000    1.485000
    74  Cl    c     4.580238   -4.602850    4.608114    0.000000    1.485000
    75  Cl    c    -0.072450   -4.602850    4.608114    0.000000    1.485000
    76  Na    c     4.507297    6.603554   -2.273268    0.000000    1.000000
    77  Na    c     0.000490    6.603554   -2.273268    0.000000    1.000000
[...]
    235 y          4.507787      4.589764     0.081977    Cartesian    1.82
    235 z          4.507787      4.622440     0.114653    Cartesian    2.54
    236 x          2.253894      2.253894     0.000000    Cartesian    0.00
    236 y          2.253894      2.203498    -0.050396    Cartesian   -2.24
    236 z          6.761681      6.815329     0.053648    Cartesian    0.79
    237 x          2.253894      2.253894     0.000000    Cartesian    0.00
    237 y          6.761681      6.848771     0.087090    Cartesian    1.29
    237 z          2.253894      2.296701     0.042807    Cartesian    1.90
    238 x         -2.253894     -2.233269     0.020624    Cartesian   -0.92
    238 y          2.253894      2.249168    -0.004725    Cartesian   -0.21
    238 z         -2.253894     -2.177656     0.076238    Cartesian   -3.38
    239 x         -2.253894     -2.210065     0.043829    Cartesian   -1.94
    239 y         -2.253894     -2.205287     0.048606    Cartesian   -2.16
    239 z          2.253894      2.267608     0.013715    Cartesian    0.61
    240 x          4.507787      4.525152     0.017365    Cartesian    0.39
    240 y          0.000000     -0.060618    -0.060618    Cartesian    0.00
    240 z         -4.507787     -4.550990    -0.043203    Cartesian    0.96
    241 x          4.507787      4.531985     0.024198    Cartesian    0.54
    241 y         -4.507787     -4.631841    -0.124053    Cartesian    2.75
    241 z          0.000000     -0.109869    -0.109869    Cartesian    0.00
    242 x          2.253894      2.253894     0.000000    Cartesian    0.00
    242 y          6.761681      6.682132    -0.079549    Cartesian   -1.18
    242 z         -2.253894     -2.219096     0.034798    Cartesian   -1.54
    243 x          2.253894      2.253894     0.000000    Cartesian    0.00
    243 y         -2.253894     -2.210952     0.042942    Cartesian   -1.91
    243 z          6.761681      6.772940     0.011260    Cartesian    0.17
    244 x          6.761681      6.766497     0.004816    Cartesian    0.07
    244 y         -2.253894     -2.239789     0.014104    Cartesian   -0.63
    244 z         -2.253894     -2.231848     0.022046    Cartesian   -0.98
    245 x          4.507787      4.563989     0.056202    Cartesian    1.25
    245 y          4.507787      4.548561     0.040774    Cartesian    0.90
    245 z         -4.507787     -4.599334    -0.091547    Cartesian    2.03
    246 x          4.507787      4.593396     0.085609    Cartesian    1.90
    246 y         -4.507787     -4.610967    -0.103180    Cartesian    2.29
    246 z          4.507787      4.622191     0.114404    Cartesian    2.54
    247 x          9.015574      9.031779     0.016205    Cartesian    0.18
    247 y          0.000000      0.042423     0.042423    Cartesian    0.00
    247 z          0.000000      0.052787     0.052787    Cartesian    0.00
    248 x         -2.253894     -2.279384    -0.025491    Cartesian    1.13
    248 y          2.253894      2.263177     0.009283    Cartesian    0.41
    248 z          6.761681      6.788805     0.027124    Cartesian    0.40
    249 x          6.761681      6.774665     0.012984    Cartesian    0.19
    249 y          6.761681      6.772590     0.010909    Cartesian    0.16
    249 z          2.253894      2.259970     0.006076    Cartesian    0.27
    250 x          9.015574      9.094460     0.078885    Cartesian    0.87
    250 y          0.000000      0.030900     0.030900    Cartesian    0.00
    250 z          4.507787      4.570902     0.063114    Cartesian    1.40
    251 x          9.015574      9.060580     0.045006    Cartesian    0.50
    251 y          4.507787      4.520385     0.012597    Cartesian    0.28
    251 z          0.000000      0.035809     0.035809    Cartesian    0.00
    252 x          2.253894      2.253894     0.000000    Cartesian    0.00
    252 y          6.761681      6.716772    -0.044909    Cartesian   -0.66
    252 z          6.761681      6.728696    -0.032984    Cartesian   -0.49
    253 x         -2.253894     -2.260218    -0.006324    Cartesian    0.28
    253 y         -2.253894     -2.255803    -0.001909    Cartesian    0.08
    253 z          6.761681      6.752482    -0.009199    Cartesian   -0.14
    254 x          2.253894      2.253894     0.000000    Cartesian    0.00
    254 y          2.253894      2.255734     0.001840    Cartesian    0.08
    254 z         -6.761681     -6.700158     0.061523    Cartesian   -0.91
    255 x          2.253894      2.253894     0.000000    Cartesian    0.00
    255 y         -6.761681     -6.781131    -0.019450    Cartesian    0.29
    255 z          2.253894      2.271390     0.017496    Cartesian    0.78
    256 x          6.761681      6.766682     0.005002    Cartesian    0.07
    256 y          6.761681      6.757047    -0.004634    Cartesian   -0.07
    256 z         -2.253894     -2.239838     0.014055    Cartesian   -0.62
    257 x          4.507787      4.510034     0.002247    Cartesian    0.05
    257 y         -4.507787     -4.522236    -0.014449    Cartesian    0.32
    257 z         -4.507787     -4.569975    -0.062188    Cartesian    1.38
    258 x          4.507787      4.561321     0.053534    Cartesian    1.19
    258 y          0.000000     -0.029515    -0.029515    Cartesian    0.00
    258 z          9.015574      9.100677     0.085102    Cartesian    0.94
    259 x          4.507787      4.467953    -0.039834    Cartesian   -0.88
    259 y          9.015574      9.060073     0.044498    Cartesian    0.49
    259 z          0.000000      0.041861     0.041861    Cartesian    0.00
    260 x          9.015574      9.107721     0.092147    Cartesian    1.02
    260 y          4.507787      4.525283     0.017495    Cartesian    0.39
    260 z          4.507787      4.525851     0.018064    Cartesian    0.40
    261 x          2.253894      2.253894     0.000000    Cartesian    0.00
    261 y         -2.253894     -2.237972     0.015921    Cartesian   -0.71
    261 z         -6.761681     -6.730217     0.031464    Cartesian   -0.47
    262 x          2.253894      2.253894     0.000000    Cartesian    0.00
    262 y         -6.761681     -6.741347     0.020333    Cartesian   -0.30
    262 z         -2.253894     -2.256684    -0.002790    Cartesian    0.12
    263 x          4.507787      4.531037     0.023250    Cartesian    0.52
    263 y          4.507787      4.533785     0.025997    Cartesian    0.58
    263 z          9.015574      9.097227     0.081653    Cartesian    0.91
    264 x          9.015574      9.052145     0.036571    Cartesian    0.41
    264 y          0.000000      0.002676     0.002676    Cartesian    0.00
    264 z         -4.507787     -4.465580     0.042207    Cartesian   -0.94
    265 x          4.507787      4.499326    -0.008461    Cartesian   -0.19
    265 y          9.015574      9.059444     0.043870    Cartesian    0.49
    265 z          4.507787      4.529081     0.021294    Cartesian    0.47
    266 x          9.015574      9.075676     0.060101    Cartesian    0.67
    266 y         -4.507787     -4.494396     0.013391    Cartesian   -0.30
    266 z          0.000000      0.015071     0.015071    Cartesian    0.00
    267 x          6.761681      6.775864     0.014183    Cartesian    0.21
    267 y          6.761681      6.747555    -0.014126    Cartesian   -0.21
    267 z          6.761681      6.784124     0.022443    Cartesian    0.33
    268 x          6.761681      6.744122    -0.017558    Cartesian   -0.26
    268 y         -6.761681     -6.726315     0.035365    Cartesian   -0.52
    268 z          2.253894      2.242004    -0.011890    Cartesian   -0.53
    269 x         11.269468     11.264951    -0.004517    Cartesian   -0.04
    269 y          2.253894      2.249248    -0.004645    Cartesian   -0.21
    269 z          2.253894      2.254727     0.000833    Cartesian    0.04
    270 x         -2.253894     -2.247909     0.005985    Cartesian   -0.27
    270 y          2.253894      2.252728    -0.001165    Cartesian   -0.05
    270 z         -6.761681     -6.708410     0.053270    Cartesian   -0.79
    271 x          9.015574      9.057067     0.041493    Cartesian    0.46
    271 y          4.507787      4.520868     0.013080    Cartesian    0.29
    271 z         -4.507787     -4.538727    -0.030940    Cartesian    0.69
    272 x          9.015574      9.067597     0.052023    Cartesian    0.58
    272 y         -4.507787     -4.478956     0.028832    Cartesian   -0.64
    272 z          4.507787      4.531041     0.023254    Cartesian    0.52
    273 x          2.253894      2.253894     0.000000    Cartesian    0.00
    273 y          6.761681      6.742647    -0.019034    Cartesian   -0.28
    273 z         -6.761681     -6.734060     0.027620    Cartesian   -0.41
    274 x          2.253894      2.253894     0.000000    Cartesian    0.00
    274 y         -6.761681     -6.744740     0.016941    Cartesian   -0.25
    274 z          6.761681      6.741109    -0.020572    Cartesian   -0.30
    275 x         11.269468     11.244481    -0.024987    Cartesian   -0.22
    275 y         -2.253894     -2.251417     0.002476    Cartesian   -0.11
    275 z          2.253894      2.256676     0.002782    Cartesian    0.12
    276 x         -2.253894     -2.252643     0.001251    Cartesian   -0.06
    276 y         -2.253894     -2.260566    -0.006672    Cartesian    0.30
    276 z         -6.761681     -6.731159     0.030521    Cartesian   -0.45
    277 x          6.761681      6.772180     0.010499    Cartesian    0.16
    277 y         -6.761681     -6.751169     0.010512    Cartesian   -0.16
    277 z         -2.253894     -2.244405     0.009488    Cartesian   -0.42
    278 x         11.269468     11.265971    -0.003497    Cartesian   -0.03
    278 y          2.253894      2.250205    -0.003689    Cartesian   -0.16
    278 z         -2.253894     -2.244838     0.009055    Cartesian   -0.40
    279 x          4.507787      4.519681     0.011894    Cartesian    0.26
    279 y          9.015574      9.086195     0.070621    Cartesian    0.78
    279 z         -4.507787     -4.510571    -0.002784    Cartesian    0.06
    280 x          4.507787      4.518607     0.010819    Cartesian    0.24
    280 y         -4.507787     -4.520609    -0.012821    Cartesian    0.28
    280 z          9.015574      9.075742     0.060168    Cartesian    0.67
    281 x          2.253894      2.253894     0.000000    Cartesian    0.00
    281 y         11.269468     11.291208     0.021740    Cartesian    0.19
    281 z          2.253894      2.246554    -0.007340    Cartesian   -0.33
    282 x          2.253894      2.253894     0.000000    Cartesian    0.00
    282 y          2.253894      2.281125     0.027231    Cartesian    1.21
    282 z         11.269468     11.261652    -0.007817    Cartesian   -0.07
    283 x         11.269468     11.270105     0.000637    Cartesian    0.01
    283 y         -2.253894     -2.237954     0.015939    Cartesian   -0.71
    283 z         -2.253894     -2.255433    -0.001539    Cartesian    0.07
    284 x          9.015574      9.058338     0.042763    Cartesian    0.47
    284 y         -4.507787     -4.501123     0.006664    Cartesian   -0.15
    284 z         -4.507787     -4.535613    -0.027826    Cartesian    0.62
    285 x          4.507787      4.510758     0.002970    Cartesian    0.07
    285 y          0.000000     -0.001702    -0.001702    Cartesian    0.00
    285 z         -9.015574     -9.124060    -0.108486    Cartesian    1.20
    286 x          4.507787      4.492045    -0.015742    Cartesian   -0.35
    286 y         -9.015574     -9.021685    -0.006110    Cartesian    0.07
    286 z          0.000000      0.028934     0.028934    Cartesian    0.00
    287 x          9.015574      9.026504     0.010930    Cartesian    0.12
    287 y          0.000000      0.019446     0.019446    Cartesian    0.00
    287 z          9.015574      9.060258     0.044684    Cartesian    0.50
    288 x          9.015574      9.060426     0.044852    Cartesian    0.50
    288 y          9.015574      9.013661    -0.001914    Cartesian   -0.02
    288 z          0.000000     -0.004010    -0.004010    Cartesian    0.00
    289 x          6.761681      6.765377     0.003696    Cartesian    0.05
    289 y          6.761681      6.749017    -0.012664    Cartesian   -0.19
    289 z         -6.761681     -6.761076     0.000605    Cartesian   -0.01
    290 x          6.761681      6.768225     0.006544    Cartesian    0.10
    290 y         -6.761681     -6.749300     0.012381    Cartesian   -0.18
    290 z          6.761681      6.775869     0.014188    Cartesian    0.21
    291 x         11.269468     11.275625     0.006157    Cartesian    0.05
    291 y          2.253894      2.253837    -0.000056    Cartesian   -0.00
    291 z          6.761681      6.769269     0.007589    Cartesian    0.11
    292 x         11.269468     11.280052     0.010584    Cartesian    0.09
    292 y          6.761681      6.760762    -0.000919    Cartesian   -0.01
    292 z          2.253894      2.246480    -0.007413    Cartesian   -0.33
    293 x          2.253894      2.253894     0.000000    Cartesian    0.00
    293 y         11.269468     11.256475    -0.012994    Cartesian   -0.12
    293 z         -2.253894     -2.264851    -0.010957    Cartesian    0.49
    294 x          2.253894      2.253894     0.000000    Cartesian    0.00
    294 y         -2.253894     -2.283443    -0.029550    Cartesian    1.31
    294 z         11.269468     11.251105    -0.018363    Cartesian   -0.16
    295 x          4.507787      4.535520     0.027733    Cartesian    0.62
    295 y          4.507787      4.519318     0.011531    Cartesian    0.26
    295 z         -9.015574     -9.020004    -0.004429    Cartesian    0.05
    296 x          4.507787      4.500284    -0.007503    Cartesian   -0.17
    296 y         -9.015574     -9.049586    -0.034012    Cartesian    0.38
    296 z          4.507787      4.497811    -0.009976    Cartesian   -0.22
    297 x          9.015574      9.021122     0.005548    Cartesian    0.06
    297 y          9.015574      9.076641     0.061066    Cartesian    0.68
    297 z          4.507787      4.530816     0.023028    Cartesian    0.51
    298 x          9.015574      9.069453     0.053879    Cartesian    0.60
    298 y          4.507787      4.511861     0.004074    Cartesian    0.09
    298 z          9.015574      9.017893     0.002319    Cartesian    0.03
    299 x         11.269468     11.275092     0.005624    Cartesian    0.05
    299 y         -2.253894     -2.257481    -0.003587    Cartesian    0.16
    299 z          6.761681      6.761757     0.000076    Cartesian    0.00
    300 x         -2.253894     -2.260326    -0.006432    Cartesian    0.29
    300 y         11.269468     11.265048    -0.004420    Cartesian   -0.04
    300 z          2.253894      2.276527     0.022633    Cartesian    1.00
    301 x          2.253894      2.253894     0.000000    Cartesian    0.00
    301 y         -6.761681     -6.756261     0.005420    Cartesian   -0.08
    301 z         -6.761681     -6.761546     0.000135    Cartesian   -0.00
    302 x          6.761681      6.763105     0.001424    Cartesian    0.02
    302 y          2.253894      2.228379    -0.025515    Cartesian   -1.13
    302 z         11.269468     11.273485     0.004017    Cartesian    0.04
    303 x         11.269468     11.268608    -0.000860    Cartesian   -0.01
    303 y          6.761681      6.766895     0.005214    Cartesian    0.08
    303 z         -2.253894     -2.252822     0.001072    Cartesian   -0.05
    304 x         13.523362     13.564041     0.040679    Cartesian    0.30
    304 y          0.000000     -0.005755    -0.005755    Cartesian    0.00
    304 z          0.000000     -0.002161    -0.002161    Cartesian    0.00
    305 x          4.507787      4.520531     0.012744    Cartesian    0.28
    305 y          9.015574      9.044536     0.028961    Cartesian    0.32
    305 z          9.015574      9.046026     0.030452    Cartesian    0.34
    306 x          2.253894      2.253894     0.000000    Cartesian    0.00
    306 y          6.761681      6.744923    -0.016758    Cartesian   -0.25
    306 z         11.269468     11.272005     0.002537    Cartesian    0.02
    307 x          2.253894      2.253894     0.000000    Cartesian    0.00
    307 y         11.269468     11.245810    -0.023658    Cartesian   -0.21
    307 z          6.761681      6.782071     0.020391    Cartesian    0.30
    308 x         -2.253894     -2.255370    -0.001476    Cartesian    0.07
    308 y         11.269468     11.252480    -0.016988    Cartesian   -0.15
    308 z         -2.253894     -2.260004    -0.006111    Cartesian    0.27
    309 x          6.761681      6.770661     0.008980    Cartesian    0.13
    309 y         -2.253894     -2.246795     0.007099    Cartesian   -0.31
    309 z         11.269468     11.278704     0.009236    Cartesian    0.08
    310 x         13.523362     13.597974     0.074612    Cartesian    0.55
    310 y          0.000000     -0.009278    -0.009278    Cartesian    0.00
    310 z          4.507787      4.497334    -0.010453    Cartesian   -0.23
    311 x         13.523362     13.545885     0.022523    Cartesian    0.17
    311 y          4.507787      4.541692     0.033904    Cartesian    0.75
    311 z          0.000000     -0.010989    -0.010989    Cartesian    0.00
    312 x          4.507787      4.529377     0.021590    Cartesian    0.48
    312 y         -4.507787     -4.551451    -0.043663    Cartesian    0.97
    312 z         -9.015574     -9.023869    -0.008295    Cartesian    0.09
    313 x          4.507787      4.529555     0.021768    Cartesian    0.48
    313 y         -9.015574     -9.086290    -0.070716    Cartesian    0.78
    313 z         -4.507787     -4.510786    -0.002999    Cartesian    0.07
    314 x          9.015574      9.038312     0.022738    Cartesian    0.25
    314 y          9.015574      9.058465     0.042891    Cartesian    0.48
    314 z         -4.507787     -4.502561     0.005226    Cartesian   -0.12
    315 x          9.015574      9.037372     0.021798    Cartesian    0.24
    315 y         -4.507787     -4.528732    -0.020945    Cartesian    0.46
    315 z          9.015574      9.037524     0.021950    Cartesian    0.24
--------------------------------------------------------------------------------


  Time to end of optimisation  =      299.5676 seconds


  Peak dynamic memory used =      91.07 MB 


  Timing analysis for GULP :

--------------------------------------------------------------------------------
  Task / Subroutine                                          Time (Seconds)
--------------------------------------------------------------------------------
  Calculation of reciprocal space energy and derivatives          0.0008
  Calculation of reciprocal space energy using symmetry           0.0011
  Calculation of real space energy and derivatives                0.0044
  Calculation of real space energy using symmetry                 0.0112
  Calculation for region 1 energy and derivatives (2-b)         164.6635
  Calculation for region 2a energy                              122.9674
  Calculation for region 2b energy                                0.0527
  Calculation and manipulation of Hessian matrix                  0.3513
  Calculation of matrix inversion                                10.5153
  Symmetry generation of equivalent positions                     0.0060
--------------------------------------------------------------------------------
  Total CPU time                                                299.5677
--------------------------------------------------------------------------------


  Dump file written as Na3OCl.grs


  Job Finished at 12:11.52 13th December   2020                               

