********************************************************************************
*                       GENERAL UTILITY LATTICE PROGRAM                        *
*                                 Julian Gale                                  *
*                       Curtin Institute for Computation                       *
*                    School of Molecular and Life Sciences                     *
*                    Curtin University, Western Australia                      *
********************************************************************************
* Version = 5.2.0 * Last modified =  10th September 2020                       *
********************************************************************************
*  optimise     - perform optimisation run                                     *
*  conp         - constant pressure calculation                                *
*  property     - calculate properties for final geometry                      *
*  defect       - perform defect calculation after bulk run                    *
*  compare      - compare initial and final structures                         *
********************************************************************************

  Job Started  at 12:06.44 13th December   2020                               

  Number of CPUs =     1


  Total number of configurations input =      1

********************************************************************************
*  Input for Configuration =   1                                               *
********************************************************************************

  Formula = ClONa3                                                      

  Number of irreducible atoms/shells =       5


  Total number atoms/shells =       7

  Dimensionality = 3               :  Bulk   


  Symmetry :

  Crystal family                   :  Cubic       
  Crystal class  (Groth - 1921)    :  Cubic Hexakisoctahedral              

  Space group (centrosymmetric)    :  P M 3 M         

  Patterson group                  :  P m -3 m 

  Cartesian lattice vectors (Angstroms) :

        4.504000    0.000000    0.000000
        0.000000    4.504000    0.000000
        0.000000    0.000000    4.504000

  Cell parameters (Angstroms/Degrees):

  a =       4.5040    alpha =  90.0000
  b =       4.5040    beta  =  90.0000
  c =       4.5040    gamma =  90.0000

  Initial cell volume =          91.368216 Angs**3

  Temperature of configuration =   0.00     K 

  Pressure of configuration =         0.000 GPa 

  Fractional coordinates of asymmetric unit :

--------------------------------------------------------------------------------
   No.  Atomic       x           y          z         Charge      Occupancy
        Label      (Frac)      (Frac)     (Frac)        (e)         (Frac)  
--------------------------------------------------------------------------------
      1 Cl    c    0.000000    0.000000    0.000000     1.48500    1.000000    
      2 O     c    0.500000    0.500000    0.500000     0.18300    1.000000    
      3 Na    c    0.500000    0.500000    0.000000     1.00000    1.000000    
      4 Cl    s    0.000000    0.000000    0.000000    -2.48500    1.000000    
      5 O     s    0.500000    0.500000    0.500000    -2.18300    1.000000    
--------------------------------------------------------------------------------


  Constraints : 

--------------------------------------------------------------------------------
  Constraint no.      Unconstrained     Constrained    Coefficient    Offset
                         Variable         Variable
--------------------------------------------------------------------------------
           1              Strain 1        Strain 2       1.00000      0.0000
           2              Strain 1        Strain 3       1.00000      0.0000
--------------------------------------------------------------------------------


********************************************************************************
*  General input information                                                   *
********************************************************************************

  Species output for all configurations : 

--------------------------------------------------------------------------------
  Species    Type    Atomic    Atomic    Charge       Radii (Angs)     Library
                     Number     Mass       (e)     Cova   Ionic  VDW   Symbol
--------------------------------------------------------------------------------
    Na       Core       11      22.99   1.000000   0.970  0.000  2.300          
    O        Core        8      16.00   0.183000   0.730  0.000  1.360          
    O        Shell       8       0.00  -2.183000   0.730  0.000  1.360          
    Cl       Core       17      35.45   1.485000   0.990  0.000  1.650          
    Cl       Shell      17       0.00  -2.485000   0.990  0.000  1.650          
    Mg       Core       12      24.31   0.415000   1.100  0.000  0.000          
    Mg       Shell      12       0.00   1.585000   1.100  0.000  0.000          
    Ca       Core       20      40.08  -1.135000   0.990  0.000  0.000          
    Ca       Shell      20       0.00   3.135000   0.990  0.000  0.000          
    Sr       Core       38      87.62  -1.251000   1.120  0.000  0.000          
    Sr       Shell      38       0.00   3.251000   1.120  0.000  0.000          
    Ba       Core       56     137.33  -7.203000   1.340  0.000  0.000          
    Ba       Shell      56       0.00   9.203000   1.340  0.000  0.000          
--------------------------------------------------------------------------------


  Lattice summation method               =    Ewald          (3-D)
                                         =    Parry          (2-D)
                                         =    Saunders et al (1-D)
  Accuracy factor for lattice sums       =   12.000


  Analytic derivatives to be used

  Time limit = Infinity

  Maximum range for interatomic potentials =    100000.000000 Angstroms

  General interatomic potentials :

--------------------------------------------------------------------------------
Atom  Types   Potential      Parameter       Value         Units   Cutoffs(Ang)
  1     2                                                            Min /  Max 
--------------------------------------------------------------------------------
O    c O    s Spring (c-s)  Spring k 2       593.71600    eV*Ang^-2 0.000  0.800
                            Spring k 4       0.0000000    eV*Ang^-4 
--------------------------------------------------------------------------------
Cl   c Cl   s Spring (c-s)  Spring k 2       29.380000    eV*Ang^-2 0.000  0.800
                            Spring k 4       0.0000000    eV*Ang^-4 
--------------------------------------------------------------------------------
Mg   c Mg   s Spring (c-s)  Spring k 2       361.60000    eV*Ang^-2 0.000  0.800
                            Spring k 4       0.0000000    eV*Ang^-4 
--------------------------------------------------------------------------------
Ca   c Ca   s Spring (c-s)  Spring k 2       110.20000    eV*Ang^-2 0.000  0.800
                            Spring k 4       0.0000000    eV*Ang^-4 
--------------------------------------------------------------------------------
Sr   c Sr   s Spring (c-s)  Spring k 2       71.700000    eV*Ang^-2 0.000  0.800
                            Spring k 4       0.0000000    eV*Ang^-4 
--------------------------------------------------------------------------------
Ba   c Ba   s Spring (c-s)  Spring k 2       495.20000    eV*Ang^-2 0.000  0.800
                            Spring k 4       0.0000000    eV*Ang^-4 
--------------------------------------------------------------------------------
Na   c Na   c Buckingham    Buckingham A     1788.1900    eV        0.000 12.000
                            Buckingham rho  0.15900000    Ang       
                            Buckingham C     0.0000000    eV*Ang^6  
--------------------------------------------------------------------------------
Na   c O    s Buckingham    Buckingham A     1226.8400    eV        0.000 12.000
                            Buckingham rho  0.30700000    Ang       
                            Buckingham C     0.0000000    eV*Ang^6  
--------------------------------------------------------------------------------
Na   c Cl   s Buckingham    Buckingham A     2314.7000    eV        0.000 12.000
                            Buckingham rho  0.29000000    Ang       
                            Buckingham C     0.0000000    eV*Ang^6  
--------------------------------------------------------------------------------
O    s O    s Buckingham    Buckingham A     22764.300    eV        0.000 12.000
                            Buckingham rho  0.14900000    Ang       
                            Buckingham C     13.190000    eV*Ang^6  
--------------------------------------------------------------------------------
O    s Cl   s Buckingham    Buckingham A     8286.9100    eV        0.000 12.000
                            Buckingham rho  0.25900000    Ang       
                            Buckingham C     62.200000    eV*Ang^6  
--------------------------------------------------------------------------------
Cl   s Cl   s Buckingham    Buckingham A     1227.2000    eV        0.000 12.000
                            Buckingham rho  0.32100000    Ang       
                            Buckingham C     14.530000    eV*Ang^6  
--------------------------------------------------------------------------------
O    s Mg   s Buckingham    Buckingham A     1428.5000    eV        0.000 12.000
                            Buckingham rho  0.29450000    Ang       
                            Buckingham C     0.0000000    eV*Ang^6  
--------------------------------------------------------------------------------
Mg   s Cl   s Buckingham    Buckingham A     4914.5400    eV        0.000 12.000
                            Buckingham rho  0.25700000    Ang       
                            Buckingham C     0.0000000    eV*Ang^6  
--------------------------------------------------------------------------------
O    s Ca   s Buckingham    Buckingham A     1090.4000    eV        0.000 12.000
                            Buckingham rho  0.34370000    Ang       
                            Buckingham C     0.0000000    eV*Ang^6  
--------------------------------------------------------------------------------
Cl   s Ca   s Buckingham    Buckingham A     2302.0000    eV        0.000 12.000
                            Buckingham rho  0.34020000    Ang       
                            Buckingham C     0.0000000    eV*Ang^6  
--------------------------------------------------------------------------------
O    s Sr   s Buckingham    Buckingham A     959.10000    eV        0.000 12.000
                            Buckingham rho  0.37210000    Ang       
                            Buckingham C     0.0000000    eV*Ang^6  
--------------------------------------------------------------------------------
Cl   s Sr   s Buckingham    Buckingham A     2191.0900    eV        0.000 12.000
                            Buckingham rho  0.34570000    Ang       
                            Buckingham C     0.0000000    eV*Ang^6  
--------------------------------------------------------------------------------
O    s Ba   s Buckingham    Buckingham A     905.70000    eV        0.000 12.000
                            Buckingham rho  0.39760000    Ang       
                            Buckingham C     0.0000000    eV*Ang^6  
--------------------------------------------------------------------------------
Cl   s Ba   s Buckingham    Buckingham A     2704.5500    eV        0.000 12.000
                            Buckingham rho  0.35280000    Ang       
                            Buckingham C     0.0000000    eV*Ang^6  
--------------------------------------------------------------------------------

********************************************************************************
*  Output for configuration   1                                                *
********************************************************************************


  Components of energy : 

--------------------------------------------------------------------------------
  Interatomic potentials     =           5.13022605 eV    
  Monopole - monopole (real) =         -10.03624526 eV    
  Monopole - monopole (recip)=         -29.53581274 eV    
  Monopole - monopole (total)=         -39.57205800 eV    
--------------------------------------------------------------------------------
  Total lattice energy       =         -34.44183194 eV    
--------------------------------------------------------------------------------
  Total lattice energy       =           -3323.1103 kJ/(mole unit cells)
--------------------------------------------------------------------------------


  Number of variables =        1

  Maximum number of calculations  =          1000
  Maximum Hessian update interval =            10
  Maximum step size               =   1.000000000
  Maximum parameter tolerance     =   0.000010000
  Maximum function  tolerance     =   0.000010000
  Maximum gradient  tolerance     =   0.001000000
  Maximum gradient  component     =   0.010000000

  Symmetry constrained optimisation

  Symmetry used for second derivatives

  Cell parameters to be optimised using strains

  Newton-Raphson optimiser to be used

  BFGS hessian update to be used

  Lower half triangular hessian to be used

  Start of bulk optimisation :

  Cycle:      0 Energy:       -34.441832  Gnorm:      0.196570  CPU:    0.016
  ** Hessian calculated **
  Cycle:      1 Energy:       -34.441914  Gnorm:      0.000103  CPU:    0.020


  **** Optimisation achieved ****


  Final energy =     -34.44191447 eV
  Final Gnorm  =       0.00000000

  Components of energy : 

--------------------------------------------------------------------------------
  Interatomic potentials     =           5.09689708 eV    
  Monopole - monopole (real) =         -10.02781331 eV    
  Monopole - monopole (recip)=         -29.51099824 eV    
  Monopole - monopole (total)=         -39.53881155 eV    
--------------------------------------------------------------------------------
  Total lattice energy       =         -34.44191447 eV    
--------------------------------------------------------------------------------
  Total lattice energy       =           -3323.1183 kJ/(mole unit cells)
--------------------------------------------------------------------------------

  Final asymmetric unit coordinates :

--------------------------------------------------------------------------------
   No.  Atomic        x           y           z         Radius
        Label       (Frac)      (Frac)      (Frac)       (Angs) 
--------------------------------------------------------------------------------
     1  Cl    c     0.000000    0.000000    0.000000    0.000000
     2  O     c     0.500000    0.500000    0.500000    0.000000
     3  Na    c     0.500000    0.500000    0.000000    0.000000
     4  Cl    s     0.000000    0.000000    0.000000    0.000000
     5  O     s     0.500000    0.500000    0.500000    0.000000
--------------------------------------------------------------------------------

  Final Cartesian lattice vectors (Angstroms) :

        4.507787    0.000000    0.000000
        0.000000    4.507787    0.000000
        0.000000    0.000000    4.507787


  Final cell parameters and derivatives :

--------------------------------------------------------------------------------
       a            4.507787 Angstrom     dE/de1(xx)     0.000000 eV/strain
       b            4.507787 Angstrom     dE/de2(yy)     0.000000 eV/strain
       c            4.507787 Angstrom     dE/de3(zz)     0.000000 eV/strain
       alpha       90.000000 Degrees      dE/de4(yz)     0.000000 eV/strain
       beta        90.000000 Degrees      dE/de5(xz)     0.000000 eV/strain
       gamma       90.000000 Degrees      dE/de6(xy)     0.000000 eV/strain
--------------------------------------------------------------------------------

  Primitive cell volume =            91.598892 Angs**3

  Density of cell =      2.183054 g/cm**3

  Non-primitive cell volume =            91.598892 Angs**3


  Final internal derivatives :

--------------------------------------------------------------------------------
   No.  Atomic          a             b             c           Radius
        Label          (eV)          (eV)          (eV)        (eV/Angs)
--------------------------------------------------------------------------------
      1 Cl    c       0.000000      0.000000      0.000000      0.000000
      2 O     c       0.000000      0.000000      0.000000      0.000000
      3 Na    c       0.000000      0.000000      0.000000      0.000000
      4 Cl    s       0.000000      0.000000      0.000000      0.000000
      5 O     s       0.000000      0.000000      0.000000      0.000000
--------------------------------------------------------------------------------
  Maximum abs         0.000000      0.000000      0.000000      0.000000
--------------------------------------------------------------------------------

  Comparison of initial and final structures : 

--------------------------------------------------------------------------------
  Parameter   Initial value   Final value   Difference    Units      Percent
--------------------------------------------------------------------------------
    Volume        91.368216     91.598892     0.230676    Angs**3      0.25
    a              4.504000      4.507787     0.003787    Angstroms    0.08
    b              4.504000      4.507787     0.003787    Angstroms    0.08
    c              4.504000      4.507787     0.003787    Angstroms    0.08
    alpha         90.000000     90.000000     0.000000    Degrees      0.00
    beta          90.000000     90.000000     0.000000    Degrees      0.00
    gamma         90.000000     90.000000     0.000000    Degrees      0.00
      1 x          0.000000      0.000000     0.000000    Fractional   0.00
      1 y          0.000000      0.000000     0.000000    Fractional   0.00
      1 z          0.000000      0.000000     0.000000    Fractional   0.00
      2 x          0.500000      0.500000     0.000000    Fractional   0.00
      2 y          0.500000      0.500000     0.000000    Fractional   0.00
      2 z          0.500000      0.500000     0.000000    Fractional   0.00
      3 x          0.500000      0.500000     0.000000    Fractional   0.00
      3 y          0.500000      0.500000     0.000000    Fractional   0.00
      3 z          0.000000      0.000000     0.000000    Fractional   0.00
      4 x          0.000000      0.000000     0.000000    Fractional   0.00
      4 y          0.000000      0.000000     0.000000    Fractional   0.00
      4 z          0.000000      0.000000     0.000000    Fractional   0.00
      5 x          0.500000      0.500000     0.000000    Fractional   0.00
      5 y          0.500000      0.500000     0.000000    Fractional   0.00
      5 z          0.500000      0.500000     0.000000    Fractional   0.00
--------------------------------------------------------------------------------


  Born effective charge tensors : 

-------------------------------------------------------------------------------
  Atom             x           y             z
-------------------------------------------------------------------------------
    1 Cl    x      -1.0181     -0.0000      0.0000
            y      -0.0000     -1.0181      0.0000
            z       0.0000      0.0000     -1.0181
-------------------------------------------------------------------------------
    2 O     x      -2.2647      0.0000     -0.0000
            y       0.0000     -2.2647     -0.0000
            z      -0.0000     -0.0000     -2.2647
-------------------------------------------------------------------------------
    3 Na    x       1.2258     -0.0000      0.0000
            y      -0.0000      1.2258     -0.0000
            z       0.0000     -0.0000      0.8313
-------------------------------------------------------------------------------




  Elastic Constant Matrix: (Units=GPa)

-------------------------------------------------------------------------------
  Indices      1         2         3         4         5         6    
-------------------------------------------------------------------------------
       1     95.8177   20.0737   20.0737   -0.0000   -0.0000    0.0000
       2     20.0737   95.8177   20.0737   -0.0000   -0.0000    0.0000
       3     20.0737   20.0737   95.8177   -0.0000   -0.0000    0.0000
       4     -0.0000   -0.0000   -0.0000   20.0737   -0.0000    0.0000
       5     -0.0000   -0.0000   -0.0000   -0.0000   20.0737    0.0000
       6      0.0000    0.0000    0.0000    0.0000    0.0000   20.0737
-------------------------------------------------------------------------------


  Elastic Compliance Matrix: (Units=1/GPa)

-------------------------------------------------------------------------------
  Indices      1         2         3         4         5         6    
-------------------------------------------------------------------------------
       1    0.011253 -0.001949 -0.001949  0.000000  0.000000 -0.000000
       2   -0.001949  0.011253 -0.001949  0.000000  0.000000  0.000000
       3   -0.001949 -0.001949  0.011253  0.000000  0.000000 -0.000000
       4    0.000000  0.000000  0.000000  0.049816  0.000000 -0.000000
       5    0.000000  0.000000  0.000000  0.000000  0.049816 -0.000000
       6   -0.000000  0.000000 -0.000000 -0.000000 -0.000000  0.049816
-------------------------------------------------------------------------------

  Mechanical properties :

-------------------------------------------------------------------------------
  Convention :                    Reuss         Voigt         Hill
-------------------------------------------------------------------------------
  Bulk  Modulus (GPa)     =      45.32174      45.32174      45.32174
  Shear Modulus (GPa)     =      24.72085      27.19304      25.95695
-------------------------------------------------------------------------------
  Velocity S-wave (km/s)  =       3.36511       3.52937       3.44822
  Velocity P-wave (km/s)  =       5.98827       6.11304       6.05098
-------------------------------------------------------------------------------
  Compressibility (1/GPa) =    0.02206447
-------------------------------------------------------------------------------
  Stress axis :                     x             y             z
-------------------------------------------------------------------------------
  Youngs Moduli (GPa)     =      88.86373      88.86373      88.86373
-------------------------------------------------------------------------------
  Poissons Ratio (x)      =                     0.17321       0.17321
  Poissons Ratio (y)      =       0.17321                     0.17321
  Poissons Ratio (z)      =       0.17321       0.17321
-------------------------------------------------------------------------------


  Piezoelectric Strain Matrix: (Units=C/m**2)

-------------------------------------------------------------------------------
  Indices      1         2         3         4         5         6    
-------------------------------------------------------------------------------
       x    -0.00000  -0.00000  -0.00000   0.00000  -0.00000  -0.00000
       y    -0.00000  -0.00000   0.00000  -0.00000   0.00000   0.00000
       z    -0.00000  -0.00000  -0.00000  -0.00000   0.00000   0.00000
-------------------------------------------------------------------------------


  Piezoelectric Stress Matrix: (Units=10**-11 C/N)

-------------------------------------------------------------------------------
  Indices      1         2         3         4         5         6    
-------------------------------------------------------------------------------
       x    -0.00000   0.00000   0.00000   0.00000  -0.00000  -0.00000
       y    -0.00000  -0.00000   0.00000  -0.00000   0.00000   0.00000
       z     0.00000   0.00000  -0.00000  -0.00000   0.00000   0.00000
-------------------------------------------------------------------------------


  Static dielectric constant tensor : 

-------------------------------------------------------------------------------
              x         y         z
-------------------------------------------------------------------------------
       x    22.84729   0.00000   0.00000
       y     0.00000  22.84729  -0.00000
       z     0.00000  -0.00000  22.84729
--------------------------------------------------------------------------------

  High frequency dielectric constant tensor : 

-------------------------------------------------------------------------------
              x         y         z
-------------------------------------------------------------------------------
       x     1.47557   0.00000  -0.00000
       y     0.00000   1.47557  -0.00000
       z    -0.00000  -0.00000   1.47557
-------------------------------------------------------------------------------

  Static refractive indices : 

-------------------------------------------------------------------------------
    1 =    4.77988      2 =    4.77988      3 =    4.77988
-------------------------------------------------------------------------------

  High frequency refractive indices : 

-------------------------------------------------------------------------------
    1 =    1.21473      2 =    1.21473      3 =    1.21473
-------------------------------------------------------------------------------


  Time to end of optimisation =       0.0304 seconds

********************************************************************************
*  Defect calculation for configuration   1 :                                  *
********************************************************************************

  Total number of defects =      3

  Total charge on defect  =  -1.00

  Defect centre is at   0.5000   0.2500   0.2500  Frac

  Region 1 radius =  12.0000      Number of ions =    543

  Number of symmetry inequivalent region 1 ions  =    315

  Region 2 radius =  16.0000      Number of ions =    766

  Number of symmetry inequivalent region 2a ions =    417

  Region 2a mode = 4 : screened electrostatics due to region 1 
                       neglect correction to region 1 forces from 2a
                       region 2a displacements based on defects only

  Region 2a ions will only interact with defects in region 1

  Vacancies:

--------------------------------------------------------------------------------
    Specification type     Symbol/Number         x          y          z
--------------------------------------------------------------------------------
    Fractional                               0.500000   0.500000   0.000000
    Fractional                               0.500000   0.000000   0.500000
--------------------------------------------------------------------------------

  Interstitials:

--------------------------------------------------------------------------------
    Specification type     Symbol/Number         x          y          z
--------------------------------------------------------------------------------
    Atom/Fractional         Na               0.500000   0.330000   0.170000
--------------------------------------------------------------------------------


  Symmetry reduced region 1 (Relative to defect centre) :

--------------------------------------------------------------------------------
   No.   Atomic       x            y             z       Radius  Multiplicity   
         Label      (Angs)       (Angs)        (Angs)    (Angs)     
--------------------------------------------------------------------------------
     1  Na    c      0.0000       0.3606      -0.3606    0.0000     1    Defect
     2  O     c      0.0000       1.1269 *     1.1269 *  0.0000     1          
     3  Cl    c      2.2539 *    -1.1269 *    -1.1269 *  0.0000     2          
     4  Na    c      2.2539 *     1.1269 *     1.1269 *  0.0000     2          
     5  O     c      0.0000       1.1269 *    -3.3808 *  0.0000     1          
     6  O     c      0.0000      -3.3808 *     1.1269 *  0.0000     1          
     7  Na    c      0.0000       1.1269 *     3.3808 *  0.0000     1          
     8  Na    c      0.0000      -3.3808 *    -1.1269 *  0.0000     1          
     9  Na    c      0.0000      -1.1269 *    -3.3808 *  0.0000     1          
    10  Na    c      0.0000       3.3808 *     1.1269 *  0.0000     1          
    11  Cl    c      2.2539 *    -1.1269 *     3.3808 *  0.0000     2          
    12  Cl    c      2.2539 *     3.3808 *    -1.1269 *  0.0000     2          
    13  Na    c      2.2539 *     1.1269 *    -3.3808 *  0.0000     2          
    14  Na    c      2.2539 *    -3.3808 *     1.1269 *  0.0000     2          
    15  O     c     -4.5078 *     1.1269 *     1.1269 *  0.0000     2          
    16  Na    c     -4.5078 *     1.1269 *    -1.1269 *  0.0000     2          
    17  Na    c     -4.5078 *    -1.1269 *     1.1269 *  0.0000     2          
    18  O     c      0.0000      -3.3808 *    -3.3808 *  0.0000     1          
    19  Na    c      0.0000      -3.3808 *     3.3808 *  0.0000     1          
    20  Na    c      0.0000       3.3808 *    -3.3808 *  0.0000     1          
    21  Cl    c      2.2539 *     3.3808 *     3.3808 *  0.0000     2          
    22  Na    c      2.2539 *    -3.3808 *    -3.3808 *  0.0000     2          
    23  O     c      0.0000       1.1269 *     5.6347 *  0.0000     1          
    24  O     c      0.0000       5.6347 *     1.1269 *  0.0000     1          
    25  Na    c      0.0000       1.1269 *    -5.6347 *  0.0000     1          
    26  Na    c      0.0000       5.6347 *    -1.1269 *  0.0000     1          
    27  Na    c      0.0000      -1.1269 *     5.6347 *  0.0000     1          
    28  Na    c      0.0000      -5.6347 *     1.1269 *  0.0000     1          
    29  O     c     -4.5078 *     1.1269 *    -3.3808 *  0.0000     2          
    30  O     c     -4.5078 *    -3.3808 *     1.1269 *  0.0000     2          
    31  Na    c     -4.5078 *     1.1269 *     3.3808 *  0.0000     2          
    32  Na    c     -4.5078 *    -3.3808 *    -1.1269 *  0.0000     2          
    33  Na    c     -4.5078 *    -1.1269 *    -3.3808 *  0.0000     2          
    34  Na    c     -4.5078 *     3.3808 *     1.1269 *  0.0000     2          
    35  Cl    c      2.2539 *    -1.1269 *    -5.6347 *  0.0000     2          
    36  Cl    c      2.2539 *    -5.6347 *    -1.1269 *  0.0000     2          
    37  Na    c      2.2539 *     1.1269 *     5.6347 *  0.0000     2          
    38  Na    c      2.2539 *     5.6347 *     1.1269 *  0.0000     2          
    39  O     c      0.0000       5.6347 *    -3.3808 *  0.0000     1          
    40  O     c      0.0000      -3.3808 *     5.6347 *  0.0000     1          
    41  Na    c      0.0000       5.6347 *     3.3808 *  0.0000     1          
    42  Na    c      0.0000      -3.3808 *    -5.6347 *  0.0000     1          
    43  Na    c      0.0000       3.3808 *     5.6347 *  0.0000     1          
    44  Na    c      0.0000      -5.6347 *    -3.3808 *  0.0000     1          
    45  O     c      4.5078 *    -3.3808 *    -3.3808 *  0.0000     2          
    46  Na    c      4.5078 *    -3.3808 *     3.3808 *  0.0000     2          
    47  Na    c      4.5078 *     3.3808 *    -3.3808 *  0.0000     2          
    48  Cl    c      2.2539 *     3.3808 *    -5.6347 *  0.0000     2          
    49  Cl    c      2.2539 *    -5.6347 *     3.3808 *  0.0000     2          
    50  Na    c      2.2539 *     5.6347 *    -3.3808 *  0.0000     2          
    51  Na    c      2.2539 *    -3.3808 *     5.6347 *  0.0000     2          
    52  Cl    c      6.7617 *    -1.1269 *    -1.1269 *  0.0000     2          
    53  Na    c      6.7617 *     1.1269 *     1.1269 *  0.0000     2          
    54  O     c     -4.5078 *     1.1269 *     5.6347 *  0.0000     2          
    55  Na    c     -4.5078 *     1.1269 *    -5.6347 *  0.0000     2          
    56  Na    c     -4.5078 *    -1.1269 *     5.6347 *  0.0000     2          
    57  O     c      4.5078 *     5.6347 *     1.1269 *  0.0000     2          
    58  Na    c      4.5078 *     5.6347 *    -1.1269 *  0.0000     2          
    59  Na    c      4.5078 *    -5.6347 *     1.1269 *  0.0000     2          
    60  Cl    c      6.7617 *    -1.1269 *     3.3808 *  0.0000     2          
    61  Na    c      6.7617 *     1.1269 *    -3.3808 *  0.0000     2          
    62  Cl    c      6.7617 *     3.3808 *    -1.1269 *  0.0000     2          
    63  Na    c      6.7617 *    -3.3808 *     1.1269 *  0.0000     2          
    64  O     c      0.0000       5.6347 *     5.6347 *  0.0000     1          
    65  Na    c      0.0000       5.6347 *    -5.6347 *  0.0000     1          
    66  Na    c      0.0000      -5.6347 *     5.6347 *  0.0000     1          
    67  O     c     -4.5078 *    -3.3808 *     5.6347 *  0.0000     2          
    68  Na    c     -4.5078 *    -3.3808 *    -5.6347 *  0.0000     2          
    69  Na    c     -4.5078 *     3.3808 *     5.6347 *  0.0000     2          
    70  O     c      0.0000       1.1269 *    -7.8886 *  0.0000     1          
    71  O     c      0.0000      -7.8886 *     1.1269 *  0.0000     1          
    72  O     c      4.5078 *     5.6347 *    -3.3808 *  0.0000     2          
    73  Na    c      0.0000       1.1269 *     7.8886 *  0.0000     1          
    74  Na    c      0.0000      -7.8886 *    -1.1269 *  0.0000     1          
    75  Na    c      4.5078 *     5.6347 *     3.3808 *  0.0000     2          
    76  Na    c      0.0000      -1.1269 *    -7.8886 *  0.0000     1          
    77  Na    c      0.0000       7.8886 *     1.1269 *  0.0000     1          
    78  Na    c      4.5078 *    -5.6347 *    -3.3808 *  0.0000     2          
    79  Cl    c      2.2539 *    -5.6347 *    -5.6347 *  0.0000     2          
    80  Na    c      2.2539 *     5.6347 *     5.6347 *  0.0000     2          
    81  Cl    c      2.2539 *    -1.1269 *     7.8886 *  0.0000     2          
    82  Na    c      2.2539 *     1.1269 *    -7.8886 *  0.0000     2          
    83  Cl    c      2.2539 *     7.8886 *    -1.1269 *  0.0000     2          
    84  Cl    c      6.7617 *     3.3808 *     3.3808 *  0.0000     2          
    85  Na    c      2.2539 *    -7.8886 *     1.1269 *  0.0000     2          
    86  Na    c      6.7617 *    -3.3808 *    -3.3808 *  0.0000     2          
    87  O     c      0.0000      -3.3808 *    -7.8886 *  0.0000     1          
    88  O     c      0.0000      -7.8886 *    -3.3808 *  0.0000     1          
    89  Na    c      0.0000      -3.3808 *     7.8886 *  0.0000     1          
    90  Na    c      0.0000      -7.8886 *     3.3808 *  0.0000     1          
    91  Na    c      0.0000       3.3808 *    -7.8886 *  0.0000     1          
    92  Na    c      0.0000       7.8886 *    -3.3808 *  0.0000     1          
    93  Cl    c      2.2539 *     3.3808 *     7.8886 *  0.0000     2          
    94  Cl    c      6.7617 *    -1.1269 *    -5.6347 *  0.0000     2          
    95  Na    c      2.2539 *    -3.3808 *    -7.8886 *  0.0000     2          
    96  Na    c      6.7617 *     1.1269 *     5.6347 *  0.0000     2          
    97  Cl    c      2.2539 *     7.8886 *     3.3808 *  0.0000     2          
    98  Cl    c      6.7617 *    -5.6347 *    -1.1269 *  0.0000     2          
    99  Na    c      2.2539 *    -7.8886 *    -3.3808 *  0.0000     2          
   100  Na    c      6.7617 *     5.6347 *     1.1269 *  0.0000     2          
   101  O     c      4.5078 *     5.6347 *     5.6347 *  0.0000     2          
   102  O     c      4.5078 *    -7.8886 *     1.1269 *  0.0000     2          
   103  O     c      9.0156 *     1.1269 *     1.1269 *  0.0000     2          
   104  O     c     -4.5078 *     1.1269 *    -7.8886 *  0.0000     2          
   105  Na    c      4.5078 *     5.6347 *    -5.6347 *  0.0000     2          
   106  Na    c      4.5078 *    -7.8886 *    -1.1269 *  0.0000     2          
   107  Na    c      9.0156 *     1.1269 *    -1.1269 *  0.0000     2          
   108  Na    c     -4.5078 *     1.1269 *     7.8886 *  0.0000     2          
   109  Na    c      4.5078 *     7.8886 *     1.1269 *  0.0000     2          
   110  Na    c      4.5078 *    -5.6347 *     5.6347 *  0.0000     2          
   111  Na    c      9.0156 *    -1.1269 *     1.1269 *  0.0000     2          
   112  Na    c     -4.5078 *    -1.1269 *    -7.8886 *  0.0000     2          
   113  Cl    c      6.7617 *     3.3808 *    -5.6347 *  0.0000     2          
   114  Na    c      6.7617 *    -3.3808 *     5.6347 *  0.0000     2          
   115  Cl    c      6.7617 *    -5.6347 *     3.3808 *  0.0000     2          
   116  Na    c      6.7617 *     5.6347 *    -3.3808 *  0.0000     2          
   117  O     c      0.0000       5.6347 *    -7.8886 *  0.0000     1          
   118  O     c      0.0000      -7.8886 *     5.6347 *  0.0000     1          
   119  O     c      9.0156 *    -3.3808 *     1.1269 *  0.0000     2          
   120  O     c     -4.5078 *    -3.3808 *    -7.8886 *  0.0000     2          
   121  Na    c      0.0000       5.6347 *     7.8886 *  0.0000     1          
   122  Na    c      0.0000      -7.8886 *    -5.6347 *  0.0000     1          
   123  Na    c      9.0156 *    -3.3808 *    -1.1269 *  0.0000     2          
   124  Na    c     -4.5078 *    -3.3808 *     7.8886 *  0.0000     2          
   125  Na    c      0.0000       7.8886 *     5.6347 *  0.0000     1          
   126  Na    c      0.0000      -5.6347 *    -7.8886 *  0.0000     1          
   127  Na    c      9.0156 *     3.3808 *     1.1269 *  0.0000     2          
   128  Na    c     -4.5078 *     3.3808 *    -7.8886 *  0.0000     2          
   129  O     c      4.5078 *    -7.8886 *    -3.3808 *  0.0000     2          
   130  O     c      9.0156 *     1.1269 *    -3.3808 *  0.0000     2          
   131  Na    c      4.5078 *    -7.8886 *     3.3808 *  0.0000     2          
   132  Na    c      9.0156 *     1.1269 *     3.3808 *  0.0000     2          
   133  Na    c      4.5078 *     7.8886 *    -3.3808 *  0.0000     2          
   134  Na    c      9.0156 *    -1.1269 *    -3.3808 *  0.0000     2          
   135  Cl    c      2.2539 *     7.8886 *    -5.6347 *  0.0000     2          
   136  Cl    c      2.2539 *    -5.6347 *     7.8886 *  0.0000     2          
   137  Na    c      2.2539 *     5.6347 *    -7.8886 *  0.0000     2          
   138  Na    c      2.2539 *    -7.8886 *     5.6347 *  0.0000     2          
   139  O     c      0.0000      10.1425 *     1.1269 *  0.0000     1          
   140  Na    c      0.0000      10.1425 *    -1.1269 *  0.0000     1          
   141  Na    c      0.0000     -10.1425 *     1.1269 *  0.0000     1          
   142  O     c      0.0000       1.1269 *    10.1425 *  0.0000     1          
   143  O     c      9.0156 *    -3.3808 *    -3.3808 *  0.0000     2          
   144  Na    c      0.0000       1.1269 *   -10.1425 *  0.0000     1          
   145  Na    c      9.0156 *    -3.3808 *     3.3808 *  0.0000     2          
   146  Na    c      0.0000      -1.1269 *    10.1425 *  0.0000     1          
   147  Na    c      9.0156 *     3.3808 *    -3.3808 *  0.0000     2          
   148  Cl    c      6.7617 *    -5.6347 *    -5.6347 *  0.0000     2          
   149  Na    c      6.7617 *     5.6347 *     5.6347 *  0.0000     2          
   150  Cl    c      2.2539 *    -1.1269 *   -10.1425 *  0.0000     2          
   151  Cl    c      2.2539 *   -10.1425 *    -1.1269 *  0.0000     2          
   152  Cl    c      6.7617 *    -1.1269 *     7.8886 *  0.0000     2          
   153  Cl    c      6.7617 *     7.8886 *    -1.1269 *  0.0000     2          
   154  Na    c      2.2539 *     1.1269 *    10.1425 *  0.0000     2          
   155  Na    c      2.2539 *    10.1425 *     1.1269 *  0.0000     2          
   156  Na    c      6.7617 *     1.1269 *    -7.8886 *  0.0000     2          
   157  Na    c      6.7617 *    -7.8886 *     1.1269 *  0.0000     2          
   158  O     c      4.5078 *     5.6347 *    -7.8886 *  0.0000     2          
   159  O     c      4.5078 *    -7.8886 *     5.6347 *  0.0000     2          
   160  O     c      9.0156 *     1.1269 *     5.6347 *  0.0000     2          
   161  O     c      9.0156 *     5.6347 *     1.1269 *  0.0000     2          
   162  Na    c      4.5078 *     5.6347 *     7.8886 *  0.0000     2          
   163  Na    c      4.5078 *    -7.8886 *    -5.6347 *  0.0000     2          
   164  Na    c      9.0156 *     1.1269 *    -5.6347 *  0.0000     2          
   165  Na    c      9.0156 *     5.6347 *    -1.1269 *  0.0000     2          
   166  Na    c      4.5078 *     7.8886 *     5.6347 *  0.0000     2          
   167  Na    c      4.5078 *    -5.6347 *    -7.8886 *  0.0000     2          
   168  Na    c      9.0156 *    -1.1269 *     5.6347 *  0.0000     2          
   169  Na    c      9.0156 *    -5.6347 *     1.1269 *  0.0000     2          
   170  O     c      0.0000      10.1425 *    -3.3808 *  0.0000     1          
   171  O     c      0.0000      -3.3808 *    10.1425 *  0.0000     1          
   172  Na    c      0.0000      10.1425 *     3.3808 *  0.0000     1          
   173  Na    c      0.0000      -3.3808 *   -10.1425 *  0.0000     1          
   174  Na    c      0.0000       3.3808 *    10.1425 *  0.0000     1          
   175  Na    c      0.0000     -10.1425 *    -3.3808 *  0.0000     1          
   176  Cl    c      2.2539 *     3.3808 *   -10.1425 *  0.0000     2          
   177  Cl    c      2.2539 *   -10.1425 *     3.3808 *  0.0000     2          
   178  Cl    c      6.7617 *     7.8886 *     3.3808 *  0.0000     2          
   179  Na    c      2.2539 *    10.1425 *    -3.3808 *  0.0000     2          
   180  Na    c      2.2539 *    -3.3808 *    10.1425 *  0.0000     2          
   181  Na    c      6.7617 *    -7.8886 *    -3.3808 *  0.0000     2          
   182  Cl    c      6.7617 *     3.3808 *     7.8886 *  0.0000     2          
   183  Na    c      6.7617 *    -3.3808 *    -7.8886 *  0.0000     2          
   184  O     c      9.0156 *    -3.3808 *     5.6347 *  0.0000     2          
   185  O     c     -4.5078 *    10.1425 *     1.1269 *  0.0000     2          
   186  Na    c      9.0156 *    -3.3808 *    -5.6347 *  0.0000     2          
   187  Na    c     -4.5078 *    10.1425 *    -1.1269 *  0.0000     2          
   188  Na    c      9.0156 *     3.3808 *     5.6347 *  0.0000     2          
   189  Na    c     -4.5078 *   -10.1425 *     1.1269 *  0.0000     2          
   190  O     c      0.0000      -7.8886 *    -7.8886 *  0.0000     1          
   191  O     c      4.5078 *     1.1269 *    10.1425 *  0.0000     2          
   192  O     c      9.0156 *     5.6347 *    -3.3808 *  0.0000     2          
   193  Na    c      0.0000      -7.8886 *     7.8886 *  0.0000     1          
   194  Na    c      4.5078 *     1.1269 *   -10.1425 *  0.0000     2          
   195  Na    c      9.0156 *     5.6347 *     3.3808 *  0.0000     2          
   196  Na    c      0.0000       7.8886 *    -7.8886 *  0.0000     1          
   197  Na    c      4.5078 *    -1.1269 *    10.1425 *  0.0000     2          
   198  Na    c      9.0156 *    -5.6347 *    -3.3808 *  0.0000     2          
   199  Cl    c     11.2695 *    -1.1269 *    -1.1269 *  0.0000     2          
   200  Na    c     11.2695 *     1.1269 *     1.1269 *  0.0000     2          
   201  Cl    c      2.2539 *     7.8886 *     7.8886 *  0.0000     2          
   202  Na    c      2.2539 *    -7.8886 *    -7.8886 *  0.0000     2          
   203  O     c      0.0000       5.6347 *    10.1425 *  0.0000     1          
   204  O     c      0.0000      10.1425 *     5.6347 *  0.0000     1          
   205  O     c     -4.5078 *    10.1425 *    -3.3808 *  0.0000     2          
   206  Na    c      0.0000       5.6347 *   -10.1425 *  0.0000     1          
   207  Na    c      0.0000      10.1425 *    -5.6347 *  0.0000     1          
   208  Na    c     -4.5078 *    10.1425 *     3.3808 *  0.0000     2          
   209  Na    c      0.0000      -5.6347 *    10.1425 *  0.0000     1          
   210  Na    c      0.0000     -10.1425 *     5.6347 *  0.0000     1          
   211  Na    c     -4.5078 *   -10.1425 *    -3.3808 *  0.0000     2          
   212  O     c      4.5078 *    -3.3808 *    10.1425 *  0.0000     2          
   213  Na    c      4.5078 *    -3.3808 *   -10.1425 *  0.0000     2          
   214  Na    c      4.5078 *     3.3808 *    10.1425 *  0.0000     2          
   215  Cl    c     11.2695 *    -1.1269 *     3.3808 *  0.0000     2          
   216  Cl    c     11.2695 *     3.3808 *    -1.1269 *  0.0000     2          
   217  Na    c     11.2695 *     1.1269 *    -3.3808 *  0.0000     2          
   218  Na    c     11.2695 *    -3.3808 *     1.1269 *  0.0000     2          
   219  Cl    c      2.2539 *    -5.6347 *   -10.1425 *  0.0000     2          
   220  Cl    c      2.2539 *   -10.1425 *    -5.6347 *  0.0000     2          
   221  Cl    c      6.7617 *     7.8886 *    -5.6347 *  0.0000     2          
   222  Na    c      2.2539 *     5.6347 *    10.1425 *  0.0000     2          
   223  Na    c      2.2539 *    10.1425 *     5.6347 *  0.0000     2          
   224  Na    c      6.7617 *    -7.8886 *     5.6347 *  0.0000     2          
   225  Cl    c      6.7617 *    -5.6347 *     7.8886 *  0.0000     2          
   226  Na    c      6.7617 *     5.6347 *    -7.8886 *  0.0000     2          
   227  O     s      0.0000       1.1269 *     1.1269 *  0.0000     1          
   228  Cl    s      2.2539 *    -1.1269 *    -1.1269 *  0.0000     2          
   229  O     s      0.0000       1.1269 *    -3.3808 *  0.0000     1          
   230  O     s      0.0000      -3.3808 *     1.1269 *  0.0000     1          
   231  Cl    s      2.2539 *    -1.1269 *     3.3808 *  0.0000     2          
   232  Cl    s      2.2539 *     3.3808 *    -1.1269 *  0.0000     2          
   233  O     s     -4.5078 *     1.1269 *     1.1269 *  0.0000     2          
   234  O     s      0.0000      -3.3808 *    -3.3808 *  0.0000     1          
   235  Cl    s      2.2539 *     3.3808 *     3.3808 *  0.0000     2          
   236  O     s      0.0000       1.1269 *     5.6347 *  0.0000     1          
   237  O     s      0.0000       5.6347 *     1.1269 *  0.0000     1          
   238  O     s     -4.5078 *     1.1269 *    -3.3808 *  0.0000     2          
   239  O     s     -4.5078 *    -3.3808 *     1.1269 *  0.0000     2          
   240  Cl    s      2.2539 *    -1.1269 *    -5.6347 *  0.0000     2          
   241  Cl    s      2.2539 *    -5.6347 *    -1.1269 *  0.0000     2          
   242  O     s      0.0000       5.6347 *    -3.3808 *  0.0000     1          
   243  O     s      0.0000      -3.3808 *     5.6347 *  0.0000     1          
   244  O     s      4.5078 *    -3.3808 *    -3.3808 *  0.0000     2          
   245  Cl    s      2.2539 *     3.3808 *    -5.6347 *  0.0000     2          
   246  Cl    s      2.2539 *    -5.6347 *     3.3808 *  0.0000     2          
   247  Cl    s      6.7617 *    -1.1269 *    -1.1269 *  0.0000     2          
   248  O     s     -4.5078 *     1.1269 *     5.6347 *  0.0000     2          
   249  O     s      4.5078 *     5.6347 *     1.1269 *  0.0000     2          
   250  Cl    s      6.7617 *    -1.1269 *     3.3808 *  0.0000     2          
   251  Cl    s      6.7617 *     3.3808 *    -1.1269 *  0.0000     2          
   252  O     s      0.0000       5.6347 *     5.6347 *  0.0000     1          
   253  O     s     -4.5078 *    -3.3808 *     5.6347 *  0.0000     2          
   254  O     s      0.0000       1.1269 *    -7.8886 *  0.0000     1          
   255  O     s      0.0000      -7.8886 *     1.1269 *  0.0000     1          
   256  O     s      4.5078 *     5.6347 *    -3.3808 *  0.0000     2          
   257  Cl    s      2.2539 *    -5.6347 *    -5.6347 *  0.0000     2          
   258  Cl    s      2.2539 *    -1.1269 *     7.8886 *  0.0000     2          
   259  Cl    s      2.2539 *     7.8886 *    -1.1269 *  0.0000     2          
   260  Cl    s      6.7617 *     3.3808 *     3.3808 *  0.0000     2          
   261  O     s      0.0000      -3.3808 *    -7.8886 *  0.0000     1          
   262  O     s      0.0000      -7.8886 *    -3.3808 *  0.0000     1          
   263  Cl    s      2.2539 *     3.3808 *     7.8886 *  0.0000     2          
   264  Cl    s      6.7617 *    -1.1269 *    -5.6347 *  0.0000     2          
   265  Cl    s      2.2539 *     7.8886 *     3.3808 *  0.0000     2          
   266  Cl    s      6.7617 *    -5.6347 *    -1.1269 *  0.0000     2          
   267  O     s      4.5078 *     5.6347 *     5.6347 *  0.0000     2          
   268  O     s      4.5078 *    -7.8886 *     1.1269 *  0.0000     2          
   269  O     s      9.0156 *     1.1269 *     1.1269 *  0.0000     2          
   270  O     s     -4.5078 *     1.1269 *    -7.8886 *  0.0000     2          
   271  Cl    s      6.7617 *     3.3808 *    -5.6347 *  0.0000     2          
   272  Cl    s      6.7617 *    -5.6347 *     3.3808 *  0.0000     2          
   273  O     s      0.0000       5.6347 *    -7.8886 *  0.0000     1          
   274  O     s      0.0000      -7.8886 *     5.6347 *  0.0000     1          
   275  O     s      9.0156 *    -3.3808 *     1.1269 *  0.0000     2          
   276  O     s     -4.5078 *    -3.3808 *    -7.8886 *  0.0000     2          
   277  O     s      4.5078 *    -7.8886 *    -3.3808 *  0.0000     2          
   278  O     s      9.0156 *     1.1269 *    -3.3808 *  0.0000     2          
   279  Cl    s      2.2539 *     7.8886 *    -5.6347 *  0.0000     2          
   280  Cl    s      2.2539 *    -5.6347 *     7.8886 *  0.0000     2          
   281  O     s      0.0000      10.1425 *     1.1269 *  0.0000     1          
   282  O     s      0.0000       1.1269 *    10.1425 *  0.0000     1          
   283  O     s      9.0156 *    -3.3808 *    -3.3808 *  0.0000     2          
   284  Cl    s      6.7617 *    -5.6347 *    -5.6347 *  0.0000     2          
   285  Cl    s      2.2539 *    -1.1269 *   -10.1425 *  0.0000     2          
   286  Cl    s      2.2539 *   -10.1425 *    -1.1269 *  0.0000     2          
   287  Cl    s      6.7617 *    -1.1269 *     7.8886 *  0.0000     2          
   288  Cl    s      6.7617 *     7.8886 *    -1.1269 *  0.0000     2          
   289  O     s      4.5078 *     5.6347 *    -7.8886 *  0.0000     2          
   290  O     s      4.5078 *    -7.8886 *     5.6347 *  0.0000     2          
   291  O     s      9.0156 *     1.1269 *     5.6347 *  0.0000     2          
   292  O     s      9.0156 *     5.6347 *     1.1269 *  0.0000     2          
   293  O     s      0.0000      10.1425 *    -3.3808 *  0.0000     1          
   294  O     s      0.0000      -3.3808 *    10.1425 *  0.0000     1          
   295  Cl    s      2.2539 *     3.3808 *   -10.1425 *  0.0000     2          
   296  Cl    s      2.2539 *   -10.1425 *     3.3808 *  0.0000     2          
   297  Cl    s      6.7617 *     7.8886 *     3.3808 *  0.0000     2          
   298  Cl    s      6.7617 *     3.3808 *     7.8886 *  0.0000     2          
   299  O     s      9.0156 *    -3.3808 *     5.6347 *  0.0000     2          
   300  O     s     -4.5078 *    10.1425 *     1.1269 *  0.0000     2          
   301  O     s      0.0000      -7.8886 *    -7.8886 *  0.0000     1          
   302  O     s      4.5078 *     1.1269 *    10.1425 *  0.0000     2          
   303  O     s      9.0156 *     5.6347 *    -3.3808 *  0.0000     2          
   304  Cl    s     11.2695 *    -1.1269 *    -1.1269 *  0.0000     2          
   305  Cl    s      2.2539 *     7.8886 *     7.8886 *  0.0000     2          
   306  O     s      0.0000       5.6347 *    10.1425 *  0.0000     1          
   307  O     s      0.0000      10.1425 *     5.6347 *  0.0000     1          
   308  O     s     -4.5078 *    10.1425 *    -3.3808 *  0.0000     2          
   309  O     s      4.5078 *    -3.3808 *    10.1425 *  0.0000     2          
   310  Cl    s     11.2695 *    -1.1269 *     3.3808 *  0.0000     2          
   311  Cl    s     11.2695 *     3.3808 *    -1.1269 *  0.0000     2          
   312  Cl    s      2.2539 *    -5.6347 *   -10.1425 *  0.0000     2          
   313  Cl    s      2.2539 *   -10.1425 *    -5.6347 *  0.0000     2          
   314  Cl    s      6.7617 *     7.8886 *    -5.6347 *  0.0000     2          
   315  Cl    s      6.7617 *    -5.6347 *     7.8886 *  0.0000     2          
--------------------------------------------------------------------------------

  Components of defect energy : 

--------------------------------------------------------------------------------
  Region 1 - region 1                   =     10.12688176 eV
  Region 1 - region 2a (unrelaxed)      =     -0.27396921 eV
  Region 1 - 2a (relaxed - correction)  =     -0.28820035 eV
  Region 1 (Total)                      =      9.56471220 eV
  Region 2a                             =      0.14403003 eV
  Region 2b                             =     -0.43197856 eV
--------------------------------------------------------------------------------
  Total defect energy                   =      9.27676368 eV
--------------------------------------------------------------------------------

  Largest displacement in region 2 =   0.0210 Angstroms


  Number of variables =      856

  Maximum number of calculations  =        1000
  Maximum Hessian update interval =          10
  Maximum step size               =   1.0000000
  Maximum parameter tolerance     =   0.0000100
  Maximum function  tolerance     =   0.0000100
  Maximum gradient  tolerance     =   0.0010000

  Symmetry adapted optimisation

  Symmetry to be used for second derivatives

  Newton-Raphson optimiser to be used

  BFGS hessian update to be used

  Lower half triangular hessian to be used

  Start of defect optimisation :

  Cycle:      0 Defect Energy:   9.276764  Gnorm:     0.021529  CPU:    2.875
  ** Hessian calculated **
  Cycle:      1 Defect Energy:   7.734465  Gnorm:     0.011113  CPU:    7.807
  Cycle:      2 Defect Energy:   7.236780  Gnorm:     0.010202  CPU:   11.909
  Cycle:      3 Defect Energy:   7.049368  Gnorm:     0.008470  CPU:   15.366
  Cycle:      4 Defect Energy:   6.750548  Gnorm:     0.008846  CPU:   20.643
  Cycle:      5 Defect Energy:   6.467450  Gnorm:     0.006452  CPU:   24.717
  Cycle:      6 Defect Energy:   6.148985  Gnorm:     0.007608  CPU:   28.335
  Cycle:      7 Defect Energy:   5.810328  Gnorm:     0.007708  CPU:   36.342
  Cycle:      8 Defect Energy:   5.570503  Gnorm:     0.004009  CPU:   39.960
  Cycle:      9 Defect Energy:   5.502087  Gnorm:     0.003263  CPU:   40.934
  Cycle:     10 Defect Energy:   5.428343  Gnorm:     0.002866  CPU:   41.909
  ** Hessian calculated **
  Cycle:     11 Defect Energy:   5.374309  Gnorm:     0.002689  CPU:   44.255
  Cycle:     12 Defect Energy:   5.331329  Gnorm:     0.002539  CPU:   44.826
  ** Hessian calculated **
  Cycle:     13 Defect Energy:   5.284784  Gnorm:     0.002373  CPU:   47.180
  ** Hessian calculated **
  Cycle:     14 Defect Energy:   5.123143  Gnorm:     0.001748  CPU:   49.610
  Cycle:     15 Defect Energy:   5.027108  Gnorm:     0.001149  CPU:   50.523
  Cycle:     16 Defect Energy:   4.980781  Gnorm:     0.000867  CPU:   51.445
  ** Hessian calculated **
  Cycle:     17 Defect Energy:   4.978448  Gnorm:     0.000764  CPU:   53.480
  Cycle:     18 Defect Energy:   4.975957  Gnorm:     0.000730  CPU:   54.919
  Cycle:     19 Defect Energy:   4.972980  Gnorm:     0.000714  CPU:   58.219
  Cycle:     20 Defect Energy:   4.969937  Gnorm:     0.000698  CPU:   59.368
  Cycle:     21 Defect Energy:   4.967429  Gnorm:     0.000679  CPU:   60.485
  Cycle:     22 Defect Energy:   4.965602  Gnorm:     0.000667  CPU:   61.638
  Cycle:     23 Defect Energy:   4.963698  Gnorm:     0.000647  CPU:   62.780
  Cycle:     24 Defect Energy:   4.962094  Gnorm:     0.000628  CPU:   63.973
  Cycle:     25 Defect Energy:   4.960228  Gnorm:     0.000604  CPU:   64.933
  Cycle:     26 Defect Energy:   4.958155  Gnorm:     0.000584  CPU:   65.891
  ** Hessian calculated **
  Cycle:     27 Defect Energy:   4.954815  Gnorm:     0.000533  CPU:   68.529
  Cycle:     28 Defect Energy:   4.950969  Gnorm:     0.000464  CPU:   69.449
  Cycle:     29 Defect Energy:   4.948314  Gnorm:     0.000384  CPU:   70.369
  ** Hessian calculated **
  Cycle:     30 Defect Energy:   4.948047  Gnorm:     0.000376  CPU:   72.889
  Cycle:     31 Defect Energy:   4.947717  Gnorm:     0.000373  CPU:   73.793
  Cycle:     32 Defect Energy:   4.947225  Gnorm:     0.000368  CPU:   74.692
  Cycle:     33 Defect Energy:   4.946586  Gnorm:     0.000364  CPU:   75.625
  Cycle:     34 Defect Energy:   4.945689  Gnorm:     0.000358  CPU:   76.539
  Cycle:     35 Defect Energy:   4.944653  Gnorm:     0.000354  CPU:   77.440
  Cycle:     36 Defect Energy:   4.943837  Gnorm:     0.000349  CPU:   78.421
  Cycle:     37 Defect Energy:   4.943184  Gnorm:     0.000345  CPU:   79.354
  Cycle:     38 Defect Energy:   4.942469  Gnorm:     0.000342  CPU:   80.221
  Cycle:     39 Defect Energy:   4.941665  Gnorm:     0.000337  CPU:   81.131
  ** Hessian calculated **
  Cycle:     40 Defect Energy:   4.941434  Gnorm:     0.000330  CPU:   84.784
  Cycle:     41 Defect Energy:   4.941110  Gnorm:     0.000326  CPU:   87.708
  Cycle:     42 Defect Energy:   4.940661  Gnorm:     0.000322  CPU:   88.864
  Cycle:     43 Defect Energy:   4.940069  Gnorm:     0.000315  CPU:   89.854
  Cycle:     44 Defect Energy:   4.939312  Gnorm:     0.000310  CPU:   90.808
  Cycle:     45 Defect Energy:   4.938832  Gnorm:     0.000305  CPU:   91.729
  Cycle:     46 Defect Energy:   4.938262  Gnorm:     0.000304  CPU:   92.750
  Cycle:     47 Defect Energy:   4.937820  Gnorm:     0.000302  CPU:   93.645
  Cycle:     48 Defect Energy:   4.937143  Gnorm:     0.000302  CPU:   94.525
  Cycle:     49 Defect Energy:   4.936114  Gnorm:     0.000311  CPU:   95.386
  ** Hessian calculated **
  Cycle:     50 Defect Energy:   4.935674  Gnorm:     0.000301  CPU:   97.746
  Cycle:     51 Defect Energy:   4.935095  Gnorm:     0.000299  CPU:   98.306
  Cycle:     52 Defect Energy:   4.934242  Gnorm:     0.000294  CPU:   99.314
  Cycle:     53 Defect Energy:   4.933112  Gnorm:     0.000291  CPU:  100.336
  Cycle:     54 Defect Energy:   4.931535  Gnorm:     0.000291  CPU:  101.369
  Cycle:     55 Defect Energy:   4.929522  Gnorm:     0.000302  CPU:  102.374
  Cycle:     56 Defect Energy:   4.926851  Gnorm:     0.000334  CPU:  103.415
  Cycle:     57 Defect Energy:   4.923780  Gnorm:     0.000383  CPU:  104.609
  Cycle:     58 Defect Energy:   4.920464  Gnorm:     0.000450  CPU:  105.587
  Cycle:     59 Defect Energy:   4.916287  Gnorm:     0.000541  CPU:  106.511
  ** Hessian calculated **
  Cycle:     60 Defect Energy:   4.913560  Gnorm:     0.000510  CPU:  109.024
  Cycle:     61 Defect Energy:   4.909796  Gnorm:     0.000502  CPU:  109.954
  Cycle:     62 Defect Energy:   4.904569  Gnorm:     0.000485  CPU:  110.897
  Cycle:     63 Defect Energy:   4.897497  Gnorm:     0.000476  CPU:  111.826
  Cycle:     64 Defect Energy:   4.888210  Gnorm:     0.000486  CPU:  112.739
  Cycle:     65 Defect Energy:   4.876388  Gnorm:     0.000535  CPU:  113.645
  Cycle:     66 Defect Energy:   4.861185  Gnorm:     0.000661  CPU:  114.646
  Cycle:     67 Defect Energy:   4.846904  Gnorm:     0.000805  CPU:  115.527
  Cycle:     68 Defect Energy:   4.836181  Gnorm:     0.000900  CPU:  116.389
  Cycle:     69 Defect Energy:   4.828564  Gnorm:     0.000972  CPU:  117.281
  ** Hessian calculated **
  Cycle:     70 Defect Energy:   4.822241  Gnorm:     0.000933  CPU:  119.480
  Cycle:     71 Defect Energy:   4.813784  Gnorm:     0.000920  CPU:  120.147
  Cycle:     72 Defect Energy:   4.802155  Gnorm:     0.000889  CPU:  121.088
  Cycle:     73 Defect Energy:   4.787559  Gnorm:     0.000868  CPU:  122.026
  Cycle:     74 Defect Energy:   4.771520  Gnorm:     0.000860  CPU:  122.962
  Cycle:     75 Defect Energy:   4.762197  Gnorm:     0.000873  CPU:  123.904
  Cycle:     76 Defect Energy:   4.755408  Gnorm:     0.000887  CPU:  124.862
  Cycle:     77 Defect Energy:   4.750062  Gnorm:     0.000902  CPU:  125.919
  Cycle:     78 Defect Energy:   4.745204  Gnorm:     0.000914  CPU:  126.923
  Cycle:     79 Defect Energy:   4.739603  Gnorm:     0.000938  CPU:  127.918
  ** Hessian calculated **
  Cycle:     80 Defect Energy:   4.725370  Gnorm:     0.000908  CPU:  130.439
  Cycle:     81 Defect Energy:   4.703232  Gnorm:     0.000848  CPU:  131.408
  Cycle:     82 Defect Energy:   4.663207  Gnorm:     0.000657  CPU:  132.334
  Cycle:     83 Defect Energy:   4.637535  Gnorm:     0.000431  CPU:  133.208
  Cycle:     84 Defect Energy:   4.627581  Gnorm:     0.000302  CPU:  134.097
  Cycle:     85 Defect Energy:   4.620171  Gnorm:     0.000124  CPU:  135.017
  Cycle:     86 Defect Energy:   4.619460  Gnorm:     0.000067  CPU:  135.562
  Cycle:     87 Defect Energy:   4.619072  Gnorm:     0.000039  CPU:  136.509
  Cycle:     88 Defect Energy:   4.618977  Gnorm:     0.000028  CPU:  137.534
  Cycle:     89 Defect Energy:   4.618937  Gnorm:     0.000016  CPU:  138.570
  ** Hessian calculated **
  Cycle:     90 Defect Energy:   4.618914  Gnorm:     0.000011  CPU:  141.888
  Cycle:     91 Defect Energy:   4.618902  Gnorm:     0.000008  CPU:  142.945


  **** Optimisation achieved ****


  Final defect energy  =        4.61889547
  Final defect Gnorm   =        0.00000568

  Components of defect energy : 

--------------------------------------------------------------------------------
  Region 1 - region 1                   =      6.01084524 eV
  Region 1 - region 2a (unrelaxed)      =     -0.84923688 eV
  Region 1 - 2a (relaxed - correction)  =     -0.22168593 eV
  Region 1 (Total)                      =      4.93992243 eV
  Region 2a                             =      0.11076677 eV
  Region 2b                             =     -0.43179372 eV
--------------------------------------------------------------------------------
  Total defect energy                   =      4.61889547 eV
--------------------------------------------------------------------------------

  Largest displacement in region 2 =   0.0210 Angstroms

  Final coordinates of region 1 :

--------------------------------------------------------------------------------
   No.  Atomic        x           y           z          Radius      Charge
        Label       (Angs)      (Angs)      (Angs)       (Angs)       (e) 
--------------------------------------------------------------------------------
     1  Na    c     2.253894    1.487570    0.766324    0.000000    1.000000
     2  O     c     2.253894    2.457876    2.638263    0.000000    0.183000
     3  Cl    c     4.577185   -0.036481   -0.031614    0.000000    1.485000
     4  Cl    c    -0.069398   -0.036481   -0.031614    0.000000    1.485000
     5  Na    c     4.493363    2.350288    2.664270    0.000000    1.000000
     6  Na    c     0.014425    2.350288    2.664270    0.000000    1.000000
     7  O     c     2.253894    2.233472   -2.151637    0.000000    0.183000
     8  O     c     2.253894   -2.295485    2.307118    0.000000    0.183000
     9  Na    c     2.253894    1.581976    4.627114    0.000000    1.000000
    10  Na    c     2.253894   -2.055535    0.088498    0.000000    1.000000
    11  Na    c     2.253894    0.022089   -2.422300    0.000000    1.000000
    12  Na    c     2.253894    4.609952    2.388130    0.000000    1.000000
    13  Cl    c     4.649416    0.008692    4.684404    0.000000    1.485000
    14  Cl    c    -0.141629    0.008692    4.684404    0.000000    1.485000
    15  Cl    c     4.585407    4.654695    0.040859    0.000000    1.485000
    16  Cl    c    -0.077619    4.654695    0.040859    0.000000    1.485000
    17  Na    c     4.471141    2.154387   -2.023644    0.000000    1.000000
    18  Na    c     0.036646    2.154387   -2.023644    0.000000    1.000000
    19  Na    c     4.431328   -1.867532    2.323870    0.000000    1.000000
    20  Na    c     0.076459   -1.867532    2.323870    0.000000    1.000000
    21  O     c    -2.248702    2.285631    2.309323    0.000000    0.183000
    22  O     c     6.756489    2.285631    2.309323    0.000000    0.183000
    23  Na    c    -2.123096    2.675687    0.067275    0.000000    1.000000
    24  Na    c     6.630884    2.675687    0.067275    0.000000    1.000000
    25  Na    c    -2.284580    0.049282    1.870417    0.000000    1.000000
    26  Na    c     6.792367    0.049282    1.870417    0.000000    1.000000
    27  O     c     2.253894   -2.233920   -2.216338    0.000000    0.183000
    28  Na    c     2.253894   -1.816065    4.475434    0.000000    1.000000
    29  Na    c     2.253894    4.426281   -1.655308    0.000000    1.000000
    30  Cl    c     4.646348    4.659283    4.588854    0.000000    1.485000
    31  Cl    c    -0.138561    4.659283    4.588854    0.000000    1.485000
    32  Na    c     4.507599   -2.139795   -2.286596    0.000000    1.000000
    33  Na    c     0.000188   -2.139795   -2.286596    0.000000    1.000000
    34  O     c     2.253894    2.238526    6.804810    0.000000    0.183000
    35  O     c     2.253894    6.850387    2.263822    0.000000    0.183000
    36  Na    c     2.253894    2.603528   -4.398004    0.000000    1.000000
    37  Na    c     2.253894    7.000091    0.020327    0.000000    1.000000
    38  Na    c     2.253894   -0.003035    7.285011    0.000000    1.000000
    39  Na    c     2.253894   -4.490748    2.387647    0.000000    1.000000
    40  O     c    -2.233671    2.262003   -2.183148    0.000000    0.183000
    41  O     c     6.741458    2.262003   -2.183148    0.000000    0.183000
    42  O     c    -2.210145   -2.200768    2.247497    0.000000    0.183000
    43  O     c     6.717932   -2.200768    2.247497    0.000000    0.183000
    44  Na    c    -2.409753    1.877115    4.542277    0.000000    1.000000
    45  Na    c     6.917541    1.877115    4.542277    0.000000    1.000000
    46  Na    c    -2.049384   -2.614547    0.017033    0.000000    1.000000
    47  Na    c     6.557172   -2.614547    0.017033    0.000000    1.000000
    48  Na    c    -2.337560    0.007328   -1.862661    0.000000    1.000000
    49  Na    c     6.845347    0.007328   -1.862661    0.000000    1.000000
    50  Na    c    -2.259744    4.537469    2.654090    0.000000    1.000000
    51  Na    c     6.767531    4.537469    2.654090    0.000000    1.000000
    52  Cl    c     4.521147   -0.045245   -4.500157    0.000000    1.485000
    53  Cl    c    -0.013360   -0.045245   -4.500157    0.000000    1.485000
    54  Cl    c     4.526183   -4.629316   -0.075802    0.000000    1.485000
    55  Cl    c    -0.018396   -4.629316   -0.075802    0.000000    1.485000
    56  Na    c     4.521518    2.329515    6.724039    0.000000    1.000000
    57  Na    c    -0.013730    2.329515    6.724039    0.000000    1.000000
    58  Na    c     4.521141    6.746813    2.148197    0.000000    1.000000
    59  Na    c    -0.013354    6.746813    2.148197    0.000000    1.000000
    60  O     c     2.253894    6.703918   -2.204563    0.000000    0.183000
    61  O     c     2.253894   -2.225444    6.741766    0.000000    0.183000
    62  Na    c     2.253894    7.047531    4.515636    0.000000    1.000000
    63  Na    c     2.253894   -2.524566   -4.464399    0.000000    1.000000
    64  Na    c     2.253894    4.449370    6.215521    0.000000    1.000000
    65  Na    c     2.253894   -4.480692   -1.988466    0.000000    1.000000
    66  O     c     6.764728   -2.247142   -2.224416    0.000000    0.183000
    67  O     c    -2.256941   -2.247142   -2.224416    0.000000    0.183000
    68  Na    c     6.864326   -1.912637    4.506739    0.000000    1.000000
    69  Na    c    -2.356539   -1.912637    4.506739    0.000000    1.000000
    70  Na    c     6.663169    4.486630   -2.593632    0.000000    1.000000
    71  Na    c    -2.155382    4.486630   -2.593632    0.000000    1.000000
    72  Cl    c     4.555056    4.540743   -4.573915    0.000000    1.485000
    73  Cl    c    -0.047269    4.540743   -4.573915    0.000000    1.485000
    74  Cl    c     4.559121   -4.620778    4.613197    0.000000    1.485000
    75  Cl    c    -0.051333   -4.620778    4.613197    0.000000    1.485000
    76  Na    c     4.510530    6.699824   -2.143926    0.000000    1.000000
    77  Na    c    -0.002742    6.699824   -2.143926    0.000000    1.000000
    78  Na    c     4.510290   -2.294134    6.632586    0.000000    1.000000
    79  Na    c    -0.002503   -2.294134    6.632586    0.000000    1.000000
    80  Cl    c     9.074187    0.011947    0.034984    0.000000    1.485000
    81  Cl    c    -4.566400    0.011947    0.034984    0.000000    1.485000
    82  Na    c     9.014400    2.343795    2.147110    0.000000    1.000000
    83  Na    c    -4.506612    2.343795    2.147110    0.000000    1.000000
    84  O     c    -2.277698    2.257254    6.778504    0.000000    0.183000
    85  O     c     6.785485    2.257254    6.778504    0.000000    0.183000
    86  Na    c    -2.235848    1.925819   -4.450411    0.000000    1.000000
    87  Na    c     6.743636    1.925819   -4.450411    0.000000    1.000000
    88  Na    c    -2.097988    0.006667    7.091309    0.000000    1.000000
    89  Na    c     6.605775    0.006667    7.091309    0.000000    1.000000
    90  O     c     6.779160    6.777129    2.271548    0.000000    0.183000
    91  O     c    -2.271372    6.777129    2.271548    0.000000    0.183000
    92  Na    c     6.868224    6.443493    0.009986    0.000000    1.000000
    93  Na    c    -2.360437    6.443493    0.009986    0.000000    1.000000
    94  Na    c     6.598668   -4.449201    2.591466    0.000000    1.000000
    95  Na    c    -2.090881   -4.449201    2.591466    0.000000    1.000000
    96  Cl    c     9.087593   -0.000586    4.575740    0.000000    1.485000
    97  Cl    c    -4.579805   -0.000586    4.575740    0.000000    1.485000
    98  Na    c     9.001515    2.362411   -2.122896    0.000000    1.000000
    99  Na    c    -4.493728    2.362411   -2.122896    0.000000    1.000000
   100  Cl    c     9.064086    4.497536    0.013642    0.000000    1.485000
   101  Cl    c    -4.556298    4.497536    0.013642    0.000000    1.485000
   102  Na    c     8.980563   -2.309384    2.087395    0.000000    1.000000
   103  Na    c    -4.472776   -2.309384    2.087395    0.000000    1.000000
   104  O     c     2.253894    6.697833    6.749099    0.000000    0.183000
   105  Na    c     2.253894    6.393611   -4.463360    0.000000    1.000000
   106  Na    c     2.253894   -4.482576    6.416142    0.000000    1.000000
   107  O     c    -2.260216   -2.237707    6.767752    0.000000    0.183000
   108  O     c     6.768003   -2.237707    6.767752    0.000000    0.183000
   109  Na    c    -2.334959   -1.921811   -4.482541    0.000000    1.000000
   110  Na    c     6.842746   -1.921811   -4.482541    0.000000    1.000000
   111  Na    c    -2.389463    4.511899    6.441646    0.000000    1.000000
   112  Na    c     6.897250    4.511899    6.441646    0.000000    1.000000
   113  O     c     2.253894    2.270820   -6.692037    0.000000    0.183000
   114  O     c     2.253894   -6.777796    2.254869    0.000000    0.183000
   115  O     c     6.772321    6.735910   -2.257517    0.000000    0.183000
   116  O     c    -2.264534    6.735910   -2.257517    0.000000    0.183000
   117  Na    c     2.253894    2.636995    9.018672    0.000000    1.000000
   118  Na    c     2.253894   -6.772115    0.010711    0.000000    1.000000
   119  Na    c     6.587131    7.085081    4.513046    0.000000    1.000000
   120  Na    c    -2.079344    7.085081    4.513046    0.000000    1.000000
   121  Na    c     2.253894    0.011614   -6.444952    0.000000    1.000000
   122  Na    c     2.253894    9.072779    2.260073    0.000000    1.000000
   123  Na    c     6.697164   -4.487035   -2.576794    0.000000    1.000000
   124  Na    c    -2.189377   -4.487035   -2.576794    0.000000    1.000000
   125  Cl    c     4.499371   -4.518789   -4.544457    0.000000    1.485000
   126  Cl    c     0.008417   -4.518789   -4.544457    0.000000    1.485000
   127  Na    c     4.514922    6.582354    6.830122    0.000000    1.000000
   128  Na    c    -0.007135    6.582354    6.830122    0.000000    1.000000
   129  Cl    c     4.529878   -0.008182    9.099542    0.000000    1.485000
   130  Cl    c    -0.022091   -0.008182    9.099542    0.000000    1.485000
   131  Na    c     4.502969    2.283464   -6.640088    0.000000    1.000000
   132  Na    c     0.004819    2.283464   -6.640088    0.000000    1.000000
   133  Cl    c     4.500511    9.051153   -0.003729    0.000000    1.485000
   134  Cl    c     0.007276    9.051153   -0.003729    0.000000    1.485000
   135  Cl    c     9.083074    4.541638    4.502322    0.000000    1.485000
   136  Cl    c    -4.575287    4.541638    4.502322    0.000000    1.485000
   137  Na    c     4.501554   -6.743002    2.171601    0.000000    1.000000
   138  Na    c     0.006233   -6.743002    2.171601    0.000000    1.000000
   139  Na    c     9.009905   -2.338397   -2.091804    0.000000    1.000000
   140  Na    c    -4.502118   -2.338397   -2.091804    0.000000    1.000000
   141  O     c     2.253894   -2.251933   -6.716864    0.000000    0.183000
   142  O     c     2.253894   -6.747732   -2.240551    0.000000    0.183000
   143  Na    c     2.253894   -2.573836    8.994818    0.000000    1.000000
   144  Na    c     2.253894   -6.924612    4.505399    0.000000    1.000000
   145  Na    c     2.253894    4.492879   -7.030311    0.000000    1.000000
   146  Na    c     2.253894    8.968005   -2.468791    0.000000    1.000000
   147  Cl    c     4.541969    4.545709    9.096613    0.000000    1.485000
   148  Cl    c    -0.034181    4.545709    9.096613    0.000000    1.485000
   149  Cl    c     9.045002    0.012675   -4.530552    0.000000    1.485000
   150  Cl    c    -4.537214    0.012675   -4.530552    0.000000    1.485000
   151  Na    c     4.509557   -2.240681   -6.647038    0.000000    1.000000
   152  Na    c    -0.001770   -2.240681   -6.647038    0.000000    1.000000
   153  Na    c     9.027876    2.079762    6.847429    0.000000    1.000000
   154  Na    c    -4.520089    2.079762    6.847429    0.000000    1.000000
   155  Cl    c     4.471061    9.091228    4.512411    0.000000    1.485000
   156  Cl    c     0.036727    9.091228    4.512411    0.000000    1.485000
   157  Cl    c     9.068518   -4.498113   -0.002724    0.000000    1.485000
   158  Cl    c    -4.560730   -4.498113   -0.002724    0.000000    1.485000
   159  Na    c     4.510230   -6.715628   -2.195152    0.000000    1.000000
   160  Na    c    -0.002443   -6.715628   -2.195152    0.000000    1.000000
   161  Na    c     9.023373    6.751420    2.420247    0.000000    1.000000
   162  Na    c    -4.515586    6.751420    2.420247    0.000000    1.000000
   163  O     c     6.771752    6.774695    6.754788    0.000000    0.183000
   164  O     c    -2.263965    6.774695    6.754788    0.000000    0.183000
   165  O     c     6.747820   -6.712558    2.260974    0.000000    0.183000
   166  O     c    -2.240033   -6.712558    2.260974    0.000000    0.183000
   167  O     c    11.268511    2.250115    2.254129    0.000000    0.183000
   168  O     c    -6.760724    2.250115    2.254129    0.000000    0.183000
   169  O     c    -2.245430    2.233206   -6.728187    0.000000    0.183000
   170  O     c     6.753217    2.233206   -6.728187    0.000000    0.183000
   171  Na    c     6.683277    6.984165   -4.494844    0.000000    1.000000
   172  Na    c    -2.175489    6.984165   -4.494844    0.000000    1.000000
   173  Na    c     6.815757   -6.477595   -0.003755    0.000000    1.000000
   174  Na    c    -2.307969   -6.477595   -0.003755    0.000000    1.000000
   175  Na    c    11.330547    1.953522    0.006181    0.000000    1.000000
   176  Na    c    -6.822760    1.953522    0.006181    0.000000    1.000000
   177  Na    c    -2.261768    2.542915    9.017920    0.000000    1.000000
   178  Na    c     6.769556    2.542915    9.017920    0.000000    1.000000
   179  Na    c     6.787223    9.013027    1.983586    0.000000    1.000000
   180  Na    c    -2.279435    9.013027    1.983586    0.000000    1.000000
   181  Na    c     6.826775   -4.497608    6.532635    0.000000    1.000000
   182  Na    c    -2.318988   -4.497608    6.532635    0.000000    1.000000
   183  Na    c    11.168257    0.008040    2.546202    0.000000    1.000000
   184  Na    c    -6.660470    0.008040    2.546202    0.000000    1.000000
   185  Na    c    -2.219647    0.003612   -7.037478    0.000000    1.000000
   186  Na    c     6.727434    0.003612   -7.037478    0.000000    1.000000
   187  Cl    c     9.045405    4.521282   -4.510289    0.000000    1.485000
   188  Cl    c    -4.537618    4.521282   -4.510289    0.000000    1.485000
   189  Na    c     9.014183   -2.135625    6.852927    0.000000    1.000000
   190  Na    c    -4.506396   -2.135625    6.852927    0.000000    1.000000
   191  Cl    c     9.046345   -4.513008    4.508703    0.000000    1.485000
   192  Cl    c    -4.538558   -4.513008    4.508703    0.000000    1.485000
   193  Na    c     9.017457    6.656597   -2.350097    0.000000    1.000000
   194  Na    c    -4.509670    6.656597   -2.350097    0.000000    1.000000
   195  O     c     2.253894    6.726593   -6.746959    0.000000    0.183000
   196  O     c     2.253894   -6.735681    6.755517    0.000000    0.183000
   197  O     c    11.249671   -2.235620    2.262752    0.000000    0.183000
   198  O     c    -6.741884   -2.235620    2.262752    0.000000    0.183000
   199  O     c    -2.255081   -2.232307   -6.748496    0.000000    0.183000
   200  O     c     6.762868   -2.232307   -6.748496    0.000000    0.183000
   201  Na    c     2.253894    6.493983    8.999034    0.000000    1.000000
   202  Na    c     2.253894   -6.602581   -4.500220    0.000000    1.000000
   203  Na    c    11.359644   -2.015017    0.011130    0.000000    1.000000
   204  Na    c    -6.851857   -2.015017    0.011130    0.000000    1.000000
   205  Na    c    -2.186120   -2.476341    9.008673    0.000000    1.000000
   206  Na    c     6.693908   -2.476341    9.008673    0.000000    1.000000
   207  Na    c     2.253894    8.977465    6.928929    0.000000    1.000000
   208  Na    c     2.253894   -4.492168   -6.928100    0.000000    1.000000
   209  Na    c    11.309732    4.502398    2.008591    0.000000    1.000000
   210  Na    c    -6.801944    4.502398    2.008591    0.000000    1.000000
   211  Na    c    -2.273838    4.501358   -6.551933    0.000000    1.000000
   212  Na    c     6.781626    4.501358   -6.551933    0.000000    1.000000
   213  O     c     6.766408   -6.738387   -2.273317    0.000000    0.183000
   214  O     c    -2.258621   -6.738387   -2.273317    0.000000    0.183000
   215  O     c    11.264656    2.240098   -2.240804    0.000000    0.183000
[...]
    235 y          4.507787      4.663544     0.155757    Cartesian    3.46
    235 z          4.507787      4.597358     0.089570    Cartesian    1.99
    236 x          2.253894      2.253894     0.000000    Cartesian    0.00
    236 y          2.253894      2.238522    -0.015372    Cartesian   -0.68
    236 z          6.761681      6.804806     0.043125    Cartesian    0.64
    237 x          2.253894      2.253894     0.000000    Cartesian    0.00
    237 y          6.761681      6.850444     0.088763    Cartesian    1.31
    237 z          2.253894      2.263789     0.009896    Cartesian    0.44
    238 x         -2.253894     -2.233677     0.020217    Cartesian   -0.90
    238 y          2.253894      2.262032     0.008138    Cartesian    0.36
    238 z         -2.253894     -2.183132     0.070762    Cartesian   -3.14
    239 x         -2.253894     -2.210184     0.043709    Cartesian   -1.94
    239 y         -2.253894     -2.200767     0.053127    Cartesian   -2.36
    239 z          2.253894      2.247471    -0.006423    Cartesian   -0.28
    240 x          4.507787      4.524768     0.016981    Cartesian    0.38
    240 y          0.000000     -0.051764    -0.051764    Cartesian    0.00
    240 z         -4.507787     -4.504099     0.003688    Cartesian   -0.08
    241 x          4.507787      4.537866     0.030079    Cartesian    0.67
    241 y         -4.507787     -4.640797    -0.133010    Cartesian    2.95
    241 z          0.000000     -0.087751    -0.087751    Cartesian    0.00
    242 x          2.253894      2.253894     0.000000    Cartesian    0.00
    242 y          6.761681      6.703995    -0.057685    Cartesian   -0.85
    242 z         -2.253894     -2.204470     0.049423    Cartesian   -2.19
    243 x          2.253894      2.253894     0.000000    Cartesian    0.00
    243 y         -2.253894     -2.225479     0.028415    Cartesian   -1.26
    243 z          6.761681      6.741788    -0.019892    Cartesian   -0.29
    244 x          6.761681      6.764721     0.003040    Cartesian    0.04
    244 y         -2.253894     -2.247166     0.006727    Cartesian   -0.30
    244 z         -2.253894     -2.224405     0.029488    Cartesian   -1.31
    245 x          4.507787      4.560543     0.052756    Cartesian    1.17
    245 y          4.507787      4.545306     0.037519    Cartesian    0.83
    245 z         -4.507787     -4.579825    -0.072038    Cartesian    1.60
    246 x          4.507787      4.569368     0.061581    Cartesian    1.37
    246 y         -4.507787     -4.630987    -0.123200    Cartesian    2.73
    246 z          4.507787      4.625841     0.118054    Cartesian    2.62
    247 x          9.015574      9.070323     0.054748    Cartesian    0.61
    247 y          0.000000      0.012864     0.012864    Cartesian    0.00
    247 z          0.000000      0.036766     0.036766    Cartesian    0.00
    248 x         -2.253894     -2.277724    -0.023831    Cartesian    1.06
    248 y          2.253894      2.257218     0.003325    Cartesian    0.15
    248 z          6.761681      6.778525     0.016844    Cartesian    0.25
    249 x          6.761681      6.779157     0.017476    Cartesian    0.26
    249 y          6.761681      6.777143     0.015462    Cartesian    0.23
    249 z          2.253894      2.271586     0.017692    Cartesian    0.78
    250 x          9.015574      9.084748     0.069174    Cartesian    0.77
    250 y          0.000000      0.001555     0.001555    Cartesian    0.00
    250 z          4.507787      4.578327     0.070539    Cartesian    1.56
    251 x          9.015574      9.062056     0.046481    Cartesian    0.52
    251 y          4.507787      4.494912    -0.012875    Cartesian   -0.29
    251 z          0.000000      0.014845     0.014845    Cartesian    0.00
    252 x          2.253894      2.253894     0.000000    Cartesian    0.00
    252 y          6.761681      6.697853    -0.063828    Cartesian   -0.94
    252 z          6.761681      6.749084    -0.012597    Cartesian   -0.19
    253 x         -2.253894     -2.260217    -0.006323    Cartesian    0.28
    253 y         -2.253894     -2.237692     0.016201    Cartesian   -0.72
    253 z          6.761681      6.767799     0.006118    Cartesian    0.09
    254 x          2.253894      2.253894     0.000000    Cartesian    0.00
    254 y          2.253894      2.270871     0.016978    Cartesian    0.75
    254 z         -6.761681     -6.692066     0.069615    Cartesian   -1.03
    255 x          2.253894      2.253894     0.000000    Cartesian    0.00
    255 y         -6.761681     -6.777859    -0.016178    Cartesian    0.24
    255 z          2.253894      2.254838     0.000945    Cartesian    0.04
    256 x          6.761681      6.772329     0.010649    Cartesian    0.16
    256 y          6.761681      6.735902    -0.025779    Cartesian   -0.38
    256 z         -2.253894     -2.257580    -0.003687    Cartesian    0.16
    257 x          4.507787      4.500962    -0.006826    Cartesian   -0.15
    257 y         -4.507787     -4.518244    -0.010457    Cartesian    0.23
    257 z         -4.507787     -4.546302    -0.038515    Cartesian    0.85
    258 x          4.507787      4.531279     0.023492    Cartesian    0.52
    258 y          0.000000     -0.008091    -0.008091    Cartesian    0.00
    258 z          9.015574      9.099182     0.083608    Cartesian    0.93
    259 x          4.507787      4.500497    -0.007291    Cartesian   -0.16
    259 y          9.015574      9.051201     0.035626    Cartesian    0.40
    259 z          0.000000     -0.001495    -0.001495    Cartesian    0.00
    260 x          9.015574      9.080968     0.065394    Cartesian    0.73
    260 y          4.507787      4.543870     0.036083    Cartesian    0.80
    260 z          4.507787      4.502179    -0.005608    Cartesian   -0.12
    261 x          2.253894      2.253894     0.000000    Cartesian    0.00
    261 y         -2.253894     -2.251988     0.001905    Cartesian   -0.08
    261 z         -6.761681     -6.716831     0.044850    Cartesian   -0.66
    262 x          2.253894      2.253894     0.000000    Cartesian    0.00
    262 y         -6.761681     -6.747736     0.013945    Cartesian   -0.21
    262 z         -2.253894     -2.240487     0.013406    Cartesian   -0.59
    263 x          4.507787      4.541039     0.033252    Cartesian    0.74
    263 y          4.507787      4.549090     0.041303    Cartesian    0.92
    263 z          9.015574      9.101649     0.086075    Cartesian    0.95
    264 x          9.015574      9.043924     0.028349    Cartesian    0.31
    264 y          0.000000      0.011384     0.011384    Cartesian    0.00
    264 z         -4.507787     -4.530365    -0.022578    Cartesian    0.50
    265 x          4.507787      4.471237    -0.036550    Cartesian   -0.81
    265 y          9.015574      9.091131     0.075556    Cartesian    0.84
    265 z          4.507787      4.511080     0.003293    Cartesian    0.07
    266 x          9.015574      9.070264     0.054689    Cartesian    0.61
    266 y         -4.507787     -4.496492     0.011296    Cartesian   -0.25
    266 z          0.000000     -0.003595    -0.003595    Cartesian    0.00
    267 x          6.761681      6.771763     0.010082    Cartesian    0.15
    267 y          6.761681      6.774743     0.013063    Cartesian    0.19
    267 z          6.761681      6.754785    -0.006896    Cartesian   -0.10
    268 x          6.761681      6.747788    -0.013892    Cartesian   -0.21
    268 y         -6.761681     -6.712579     0.049102    Cartesian   -0.73
    268 z          2.253894      2.261022     0.007129    Cartesian    0.32
    269 x         11.269468     11.268513    -0.000955    Cartesian   -0.01
    269 y          2.253894      2.250116    -0.003777    Cartesian   -0.17
    269 z          2.253894      2.254127     0.000234    Cartesian    0.01
    270 x         -2.253894     -2.245425     0.008469    Cartesian   -0.38
    270 y          2.253894      2.233166    -0.020728    Cartesian   -0.92
    270 z         -6.761681     -6.728229     0.033452    Cartesian   -0.49
    271 x          9.015574      9.045632     0.030058    Cartesian    0.33
    271 y          4.507787      4.524170     0.016383    Cartesian    0.36
    271 z         -4.507787     -4.510685    -0.002898    Cartesian    0.06
    272 x          9.015574      9.050174     0.034599    Cartesian    0.38
    272 y         -4.507787     -4.512564    -0.004777    Cartesian    0.11
    272 z          4.507787      4.511056     0.003269    Cartesian    0.07
    273 x          2.253894      2.253894     0.000000    Cartesian    0.00
    273 y          6.761681      6.726546    -0.035135    Cartesian   -0.52
    273 z         -6.761681     -6.747038     0.014643    Cartesian   -0.22
    274 x          2.253894      2.253894     0.000000    Cartesian    0.00
    274 y         -6.761681     -6.735695     0.025986    Cartesian   -0.38
    274 z          6.761681      6.755498    -0.006183    Cartesian   -0.09
    275 x         11.269468     11.249684    -0.019784    Cartesian   -0.18
    275 y         -2.253894     -2.235628     0.018266    Cartesian   -0.81
    275 z          2.253894      2.262771     0.008877    Cartesian    0.39
    276 x         -2.253894     -2.255090    -0.001197    Cartesian    0.05
    276 y         -2.253894     -2.232271     0.021623    Cartesian   -0.96
    276 z         -6.761681     -6.748539     0.013142    Cartesian   -0.19
    277 x          6.761681      6.766409     0.004728    Cartesian    0.07
    277 y         -6.761681     -6.738394     0.023287    Cartesian   -0.34
    277 z         -2.253894     -2.273375    -0.019482    Cartesian    0.86
    278 x         11.269468     11.264679    -0.004789    Cartesian   -0.04
    278 y          2.253894      2.240083    -0.013811    Cartesian   -0.61
    278 z         -2.253894     -2.240817     0.013077    Cartesian   -0.58
    279 x          4.507787      4.528258     0.020471    Cartesian    0.45
    279 y          9.015574      9.072602     0.057027    Cartesian    0.63
    279 z         -4.507787     -4.514230    -0.006443    Cartesian    0.14
    280 x          4.507787      4.510073     0.002286    Cartesian    0.05
    280 y         -4.507787     -4.518211    -0.010424    Cartesian    0.23
    280 z          9.015574      9.084198     0.068623    Cartesian    0.76
    281 x          2.253894      2.253894     0.000000    Cartesian    0.00
    281 y         11.269468     11.290900     0.021432    Cartesian    0.19
    281 z          2.253894      2.256065     0.002171    Cartesian    0.10
    282 x          2.253894      2.253894     0.000000    Cartesian    0.00
    282 y          2.253894      2.271863     0.017970    Cartesian    0.80
    282 z         11.269468     11.262255    -0.007213    Cartesian   -0.06
    283 x         11.269468     11.266308    -0.003160    Cartesian   -0.03
    283 y         -2.253894     -2.240877     0.013017    Cartesian   -0.58
    283 z         -2.253894     -2.244478     0.009415    Cartesian   -0.42
    284 x          9.015574      9.048241     0.032667    Cartesian    0.36
    284 y         -4.507787     -4.513638    -0.005850    Cartesian    0.13
    284 z         -4.507787     -4.524340    -0.016553    Cartesian    0.37
    285 x          4.507787      4.491357    -0.016430    Cartesian   -0.36
    285 y          0.000000      0.002494     0.002494    Cartesian    0.00
    285 z         -9.015574     -9.059266    -0.043691    Cartesian    0.48
    286 x          4.507787      4.510853     0.003065    Cartesian    0.07
    286 y         -9.015574     -9.069676    -0.054101    Cartesian    0.60
    286 z          0.000000      0.004214     0.004214    Cartesian    0.00
    287 x          9.015574      9.035633     0.020059    Cartesian    0.22
    287 y          0.000000      0.016383     0.016383    Cartesian    0.00
    287 z          9.015574      9.026604     0.011029    Cartesian    0.12
    288 x          9.015574      9.061311     0.045737    Cartesian    0.51
    288 y          9.015574      9.066208     0.050633    Cartesian    0.56
    288 z          0.000000     -0.006284    -0.006284    Cartesian    0.00
    289 x          6.761681      6.760344    -0.001336    Cartesian   -0.02
    289 y          6.761681      6.771549     0.009868    Cartesian    0.15
    289 z         -6.761681     -6.741963     0.019718    Cartesian   -0.29
    290 x          6.761681      6.771630     0.009949    Cartesian    0.15
    290 y         -6.761681     -6.764831    -0.003150    Cartesian    0.05
    290 z          6.761681      6.755753    -0.005928    Cartesian   -0.09
    291 x         11.269468     11.272397     0.002929    Cartesian    0.03
    291 y          2.253894      2.262906     0.009012    Cartesian    0.40
    291 z          6.761681      6.760200    -0.001481    Cartesian   -0.02
    292 x         11.269468     11.276077     0.006609    Cartesian    0.06
    292 y          6.761681      6.758504    -0.003177    Cartesian   -0.05
    292 z          2.253894      2.243068    -0.010825    Cartesian   -0.48
    293 x          2.253894      2.253894     0.000000    Cartesian    0.00
    293 y         11.269468     11.248369    -0.021099    Cartesian   -0.19
    293 z         -2.253894     -2.283482    -0.029588    Cartesian    1.31
    294 x          2.253894      2.253894     0.000000    Cartesian    0.00
    294 y         -2.253894     -2.265730    -0.011836    Cartesian    0.53
    294 z         11.269468     11.256191    -0.013277    Cartesian   -0.12
    295 x          4.507787      4.514721     0.006933    Cartesian    0.15
    295 y          4.507787      4.513382     0.005594    Cartesian    0.12
    295 z         -9.015574     -9.041087    -0.025513    Cartesian    0.28
    296 x          4.507787      4.521230     0.013443    Cartesian    0.30
    296 y         -9.015574     -9.041351    -0.025777    Cartesian    0.29
    296 z          4.507787      4.503430    -0.004357    Cartesian   -0.10
    297 x          9.015574      9.035914     0.020340    Cartesian    0.23
    297 y          9.015574      9.033809     0.018234    Cartesian    0.20
    297 z          4.507787      4.516839     0.009052    Cartesian    0.20
    298 x          9.015574      9.069408     0.053833    Cartesian    0.60
    298 y          4.507787      4.504196    -0.003592    Cartesian   -0.08
    298 z          9.015574      9.050534     0.034960    Cartesian    0.39
    299 x         11.269468     11.272084     0.002616    Cartesian    0.02
    299 y         -2.253894     -2.256587    -0.002693    Cartesian    0.12
    299 z          6.761681      6.757509    -0.004171    Cartesian   -0.06
    300 x         -2.253894     -2.258001    -0.004108    Cartesian    0.18
    300 y         11.269468     11.267937    -0.001531    Cartesian   -0.01
    300 z          2.253894      2.230625    -0.023269    Cartesian   -1.03
    301 x          2.253894      2.253894     0.000000    Cartesian    0.00
    301 y         -6.761681     -6.744974     0.016707    Cartesian   -0.25
    301 z         -6.761681     -6.770597    -0.008916    Cartesian    0.13
    302 x          6.761681      6.762515     0.000834    Cartesian    0.01
    302 y          2.253894      2.274242     0.020348    Cartesian    0.90
    302 z         11.269468     11.266975    -0.002493    Cartesian   -0.02
    303 x         11.269468     11.270067     0.000599    Cartesian    0.01
    303 y          6.761681      6.760898    -0.000782    Cartesian   -0.01
    303 z         -2.253894     -2.248406     0.005488    Cartesian   -0.24
    304 x         13.523362     13.584012     0.060651    Cartesian    0.45
    304 y          0.000000     -0.001481    -0.001481    Cartesian    0.00
    304 z          0.000000     -0.002946    -0.002946    Cartesian    0.00
    305 x          4.507787      4.525424     0.017637    Cartesian    0.39
    305 y          9.015574      9.065723     0.050149    Cartesian    0.56
    305 z          9.015574      9.035619     0.020044    Cartesian    0.22
    306 x          2.253894      2.253894     0.000000    Cartesian    0.00
    306 y          6.761681      6.756018    -0.005663    Cartesian   -0.08
    306 z         11.269468     11.262533    -0.006935    Cartesian   -0.06
    307 x          2.253894      2.253894     0.000000    Cartesian    0.00
    307 y         11.269468     11.259630    -0.009838    Cartesian   -0.09
    307 z          6.761681      6.772787     0.011106    Cartesian    0.16
    308 x         -2.253894     -2.258652    -0.004759    Cartesian    0.21
    308 y         11.269468     11.269874     0.000406    Cartesian    0.00
    308 z         -2.253894     -2.243333     0.010560    Cartesian   -0.47
    309 x          6.761681      6.767016     0.005335    Cartesian    0.08
    309 y         -2.253894     -2.261264    -0.007370    Cartesian    0.33
    309 z         11.269468     11.259979    -0.009489    Cartesian   -0.08
    310 x         13.523362     13.592170     0.068809    Cartesian    0.51
    310 y          0.000000     -0.000814    -0.000814    Cartesian    0.00
    310 z          4.507787      4.512671     0.004884    Cartesian    0.11
    311 x         13.523362     13.558738     0.035376    Cartesian    0.26
    311 y          4.507787      4.523879     0.016092    Cartesian    0.36
    311 z          0.000000     -0.009601    -0.009601    Cartesian    0.00
    312 x          4.507787      4.504695    -0.003092    Cartesian   -0.07
    312 y         -4.507787     -4.526499    -0.018712    Cartesian    0.42
    312 z         -9.015574     -9.053382    -0.037808    Cartesian    0.42
    313 x          4.507787      4.552508     0.044721    Cartesian    0.99
    313 y         -9.015574     -9.049356    -0.033782    Cartesian    0.37
    313 z         -4.507787     -4.537295    -0.029507    Cartesian    0.65
    314 x          9.015574      9.033962     0.018387    Cartesian    0.20
    314 y          9.015574      9.025006     0.009431    Cartesian    0.10
    314 z         -4.507787     -4.535291    -0.027504    Cartesian    0.61
    315 x          9.015574      9.043393     0.027818    Cartesian    0.31
    315 y         -4.507787     -4.502464     0.005323    Cartesian   -0.12
    315 z          9.015574      9.063496     0.047922    Cartesian    0.53
--------------------------------------------------------------------------------


  Time to end of optimisation  =      143.9898 seconds


  Peak dynamic memory used =      91.07 MB 


  Timing analysis for GULP :

--------------------------------------------------------------------------------
  Task / Subroutine                                          Time (Seconds)
--------------------------------------------------------------------------------
  Calculation of reciprocal space energy and derivatives          0.0007
  Calculation of reciprocal space energy using symmetry           0.0010
  Calculation of real space energy and derivatives                0.0041
  Calculation of real space energy using symmetry                 0.0096
  Calculation for region 1 energy and derivatives (2-b)          79.6869
  Calculation for region 2a energy                               58.4219
  Calculation for region 2b energy                                0.0236
  Calculation and manipulation of Hessian matrix                  0.2097
  Calculation of matrix inversion                                 5.1588
  Symmetry generation of equivalent positions                     0.0049
--------------------------------------------------------------------------------
  Total CPU time                                                143.9899
--------------------------------------------------------------------------------


  Dump file written as Na3OCl.grs


  Job Finished at 12:09.18 13th December   2020                               

