********************************************************************************
*                       GENERAL UTILITY LATTICE PROGRAM                        *
*                                 Julian Gale                                  *
*                       Curtin Institute for Computation                       *
*                    School of Molecular and Life Sciences                     *
*                    Curtin University, Western Australia                      *
********************************************************************************
* Version = 5.2.0 * Last modified =  10th September 2020                       *
********************************************************************************
*  optimise     - perform optimisation run                                     *
*  conp         - constant pressure calculation                                *
*  property     - calculate properties for final geometry                      *
*  defect       - perform defect calculation after bulk run                    *
*  compare      - compare initial and final structures                         *
********************************************************************************

  Job Started  at 12:09.21 13th December   2020                               

  Number of CPUs =     1


  Total number of configurations input =      1

********************************************************************************
*  Input for Configuration =   1                                               *
********************************************************************************

  Formula = ClONa3                                                      

  Number of irreducible atoms/shells =       5


  Total number atoms/shells =       7

  Dimensionality = 3               :  Bulk   


  Symmetry :

  Crystal family                   :  Cubic       
  Crystal class  (Groth - 1921)    :  Cubic Hexakisoctahedral              

  Space group (centrosymmetric)    :  P M 3 M         

  Patterson group                  :  P m -3 m 

  Cartesian lattice vectors (Angstroms) :

        4.504000    0.000000    0.000000
        0.000000    4.504000    0.000000
        0.000000    0.000000    4.504000

  Cell parameters (Angstroms/Degrees):

  a =       4.5040    alpha =  90.0000
  b =       4.5040    beta  =  90.0000
  c =       4.5040    gamma =  90.0000

  Initial cell volume =          91.368216 Angs**3

  Temperature of configuration =   0.00     K 

  Pressure of configuration =         0.000 GPa 

  Fractional coordinates of asymmetric unit :

--------------------------------------------------------------------------------
   No.  Atomic       x           y          z         Charge      Occupancy
        Label      (Frac)      (Frac)     (Frac)        (e)         (Frac)  
--------------------------------------------------------------------------------
      1 Cl    c    0.000000    0.000000    0.000000     1.48500    1.000000    
      2 O     c    0.500000    0.500000    0.500000     0.18300    1.000000    
      3 Na    c    0.500000    0.500000    0.000000     1.00000    1.000000    
      4 Cl    s    0.000000    0.000000    0.000000    -2.48500    1.000000    
      5 O     s    0.500000    0.500000    0.500000    -2.18300    1.000000    
--------------------------------------------------------------------------------


  Constraints : 

--------------------------------------------------------------------------------
  Constraint no.      Unconstrained     Constrained    Coefficient    Offset
                         Variable         Variable
--------------------------------------------------------------------------------
           1              Strain 1        Strain 2       1.00000      0.0000
           2              Strain 1        Strain 3       1.00000      0.0000
--------------------------------------------------------------------------------


********************************************************************************
*  General input information                                                   *
********************************************************************************

  Species output for all configurations : 

--------------------------------------------------------------------------------
  Species    Type    Atomic    Atomic    Charge       Radii (Angs)     Library
                     Number     Mass       (e)     Cova   Ionic  VDW   Symbol
--------------------------------------------------------------------------------
    Na       Core       11      22.99   1.000000   0.970  0.000  2.300          
    O        Core        8      16.00   0.183000   0.730  0.000  1.360          
    O        Shell       8       0.00  -2.183000   0.730  0.000  1.360          
    Cl       Core       17      35.45   1.485000   0.990  0.000  1.650          
    Cl       Shell      17       0.00  -2.485000   0.990  0.000  1.650          
    Mg       Core       12      24.31   0.415000   1.100  0.000  0.000          
    Mg       Shell      12       0.00   1.585000   1.100  0.000  0.000          
    Ca       Core       20      40.08  -1.135000   0.990  0.000  0.000          
    Ca       Shell      20       0.00   3.135000   0.990  0.000  0.000          
    Sr       Core       38      87.62  -1.251000   1.120  0.000  0.000          
    Sr       Shell      38       0.00   3.251000   1.120  0.000  0.000          
    Ba       Core       56     137.33  -7.203000   1.340  0.000  0.000          
    Ba       Shell      56       0.00   9.203000   1.340  0.000  0.000          
--------------------------------------------------------------------------------


  Lattice summation method               =    Ewald          (3-D)
                                         =    Parry          (2-D)
                                         =    Saunders et al (1-D)
  Accuracy factor for lattice sums       =   12.000


  Analytic derivatives to be used

  Time limit = Infinity

  Maximum range for interatomic potentials =    100000.000000 Angstroms

  General interatomic potentials :

--------------------------------------------------------------------------------
Atom  Types   Potential      Parameter       Value         Units   Cutoffs(Ang)
  1     2                                                            Min /  Max 
--------------------------------------------------------------------------------
O    c O    s Spring (c-s)  Spring k 2       593.71600    eV*Ang^-2 0.000  0.800
                            Spring k 4       0.0000000    eV*Ang^-4 
--------------------------------------------------------------------------------
Cl   c Cl   s Spring (c-s)  Spring k 2       29.380000    eV*Ang^-2 0.000  0.800
                            Spring k 4       0.0000000    eV*Ang^-4 
--------------------------------------------------------------------------------
Mg   c Mg   s Spring (c-s)  Spring k 2       361.60000    eV*Ang^-2 0.000  0.800
                            Spring k 4       0.0000000    eV*Ang^-4 
--------------------------------------------------------------------------------
Ca   c Ca   s Spring (c-s)  Spring k 2       110.20000    eV*Ang^-2 0.000  0.800
                            Spring k 4       0.0000000    eV*Ang^-4 
--------------------------------------------------------------------------------
Sr   c Sr   s Spring (c-s)  Spring k 2       71.700000    eV*Ang^-2 0.000  0.800
                            Spring k 4       0.0000000    eV*Ang^-4 
--------------------------------------------------------------------------------
Ba   c Ba   s Spring (c-s)  Spring k 2       495.20000    eV*Ang^-2 0.000  0.800
                            Spring k 4       0.0000000    eV*Ang^-4 
--------------------------------------------------------------------------------
Na   c Na   c Buckingham    Buckingham A     1788.1900    eV        0.000 12.000
                            Buckingham rho  0.15900000    Ang       
                            Buckingham C     0.0000000    eV*Ang^6  
--------------------------------------------------------------------------------
Na   c O    s Buckingham    Buckingham A     1226.8400    eV        0.000 12.000
                            Buckingham rho  0.30700000    Ang       
                            Buckingham C     0.0000000    eV*Ang^6  
--------------------------------------------------------------------------------
Na   c Cl   s Buckingham    Buckingham A     2314.7000    eV        0.000 12.000
                            Buckingham rho  0.29000000    Ang       
                            Buckingham C     0.0000000    eV*Ang^6  
--------------------------------------------------------------------------------
O    s O    s Buckingham    Buckingham A     22764.300    eV        0.000 12.000
                            Buckingham rho  0.14900000    Ang       
                            Buckingham C     13.190000    eV*Ang^6  
--------------------------------------------------------------------------------
O    s Cl   s Buckingham    Buckingham A     8286.9100    eV        0.000 12.000
                            Buckingham rho  0.25900000    Ang       
                            Buckingham C     62.200000    eV*Ang^6  
--------------------------------------------------------------------------------
Cl   s Cl   s Buckingham    Buckingham A     1227.2000    eV        0.000 12.000
                            Buckingham rho  0.32100000    Ang       
                            Buckingham C     14.530000    eV*Ang^6  
--------------------------------------------------------------------------------
O    s Mg   s Buckingham    Buckingham A     1428.5000    eV        0.000 12.000
                            Buckingham rho  0.29450000    Ang       
                            Buckingham C     0.0000000    eV*Ang^6  
--------------------------------------------------------------------------------
Mg   s Cl   s Buckingham    Buckingham A     4914.5400    eV        0.000 12.000
                            Buckingham rho  0.25700000    Ang       
                            Buckingham C     0.0000000    eV*Ang^6  
--------------------------------------------------------------------------------
O    s Ca   s Buckingham    Buckingham A     1090.4000    eV        0.000 12.000
                            Buckingham rho  0.34370000    Ang       
                            Buckingham C     0.0000000    eV*Ang^6  
--------------------------------------------------------------------------------
Cl   s Ca   s Buckingham    Buckingham A     2302.0000    eV        0.000 12.000
                            Buckingham rho  0.34020000    Ang       
                            Buckingham C     0.0000000    eV*Ang^6  
--------------------------------------------------------------------------------
O    s Sr   s Buckingham    Buckingham A     959.10000    eV        0.000 12.000
                            Buckingham rho  0.37210000    Ang       
                            Buckingham C     0.0000000    eV*Ang^6  
--------------------------------------------------------------------------------
Cl   s Sr   s Buckingham    Buckingham A     2191.0900    eV        0.000 12.000
                            Buckingham rho  0.34570000    Ang       
                            Buckingham C     0.0000000    eV*Ang^6  
--------------------------------------------------------------------------------
O    s Ba   s Buckingham    Buckingham A     905.70000    eV        0.000 12.000
                            Buckingham rho  0.39760000    Ang       
                            Buckingham C     0.0000000    eV*Ang^6  
--------------------------------------------------------------------------------
Cl   s Ba   s Buckingham    Buckingham A     2704.5500    eV        0.000 12.000
                            Buckingham rho  0.35280000    Ang       
                            Buckingham C     0.0000000    eV*Ang^6  
--------------------------------------------------------------------------------

********************************************************************************
*  Output for configuration   1                                                *
********************************************************************************


  Components of energy : 

--------------------------------------------------------------------------------
  Interatomic potentials     =           5.13022605 eV    
  Monopole - monopole (real) =         -10.03624526 eV    
  Monopole - monopole (recip)=         -29.53581274 eV    
  Monopole - monopole (total)=         -39.57205800 eV    
--------------------------------------------------------------------------------
  Total lattice energy       =         -34.44183194 eV    
--------------------------------------------------------------------------------
  Total lattice energy       =           -3323.1103 kJ/(mole unit cells)
--------------------------------------------------------------------------------


  Number of variables =        1

  Maximum number of calculations  =          1000
  Maximum Hessian update interval =            10
  Maximum step size               =   1.000000000
  Maximum parameter tolerance     =   0.000010000
  Maximum function  tolerance     =   0.000010000
  Maximum gradient  tolerance     =   0.001000000
  Maximum gradient  component     =   0.010000000

  Symmetry constrained optimisation

  Symmetry used for second derivatives

  Cell parameters to be optimised using strains

  Newton-Raphson optimiser to be used

  BFGS hessian update to be used

  Lower half triangular hessian to be used

  Start of bulk optimisation :

  Cycle:      0 Energy:       -34.441832  Gnorm:      0.196570  CPU:    0.014
  ** Hessian calculated **
  Cycle:      1 Energy:       -34.441914  Gnorm:      0.000103  CPU:    0.017


  **** Optimisation achieved ****


  Final energy =     -34.44191447 eV
  Final Gnorm  =       0.00000000

  Components of energy : 

--------------------------------------------------------------------------------
  Interatomic potentials     =           5.09689708 eV    
  Monopole - monopole (real) =         -10.02781331 eV    
  Monopole - monopole (recip)=         -29.51099824 eV    
  Monopole - monopole (total)=         -39.53881155 eV    
--------------------------------------------------------------------------------
  Total lattice energy       =         -34.44191447 eV    
--------------------------------------------------------------------------------
  Total lattice energy       =           -3323.1183 kJ/(mole unit cells)
--------------------------------------------------------------------------------

  Final asymmetric unit coordinates :

--------------------------------------------------------------------------------
   No.  Atomic        x           y           z         Radius
        Label       (Frac)      (Frac)      (Frac)       (Angs) 
--------------------------------------------------------------------------------
     1  Cl    c     0.000000    0.000000    0.000000    0.000000
     2  O     c     0.500000    0.500000    0.500000    0.000000
     3  Na    c     0.500000    0.500000    0.000000    0.000000
     4  Cl    s     0.000000    0.000000    0.000000    0.000000
     5  O     s     0.500000    0.500000    0.500000    0.000000
--------------------------------------------------------------------------------

  Final Cartesian lattice vectors (Angstroms) :

        4.507787    0.000000    0.000000
        0.000000    4.507787    0.000000
        0.000000    0.000000    4.507787


  Final cell parameters and derivatives :

--------------------------------------------------------------------------------
       a            4.507787 Angstrom     dE/de1(xx)     0.000000 eV/strain
       b            4.507787 Angstrom     dE/de2(yy)     0.000000 eV/strain
       c            4.507787 Angstrom     dE/de3(zz)     0.000000 eV/strain
       alpha       90.000000 Degrees      dE/de4(yz)     0.000000 eV/strain
       beta        90.000000 Degrees      dE/de5(xz)     0.000000 eV/strain
       gamma       90.000000 Degrees      dE/de6(xy)     0.000000 eV/strain
--------------------------------------------------------------------------------

  Primitive cell volume =            91.598892 Angs**3

  Density of cell =      2.183054 g/cm**3

  Non-primitive cell volume =            91.598892 Angs**3


  Final internal derivatives :

--------------------------------------------------------------------------------
   No.  Atomic          a             b             c           Radius
        Label          (eV)          (eV)          (eV)        (eV/Angs)
--------------------------------------------------------------------------------
      1 Cl    c       0.000000      0.000000      0.000000      0.000000
      2 O     c       0.000000      0.000000      0.000000      0.000000
      3 Na    c       0.000000      0.000000      0.000000      0.000000
      4 Cl    s       0.000000      0.000000      0.000000      0.000000
      5 O     s       0.000000      0.000000      0.000000      0.000000
--------------------------------------------------------------------------------
  Maximum abs         0.000000      0.000000      0.000000      0.000000
--------------------------------------------------------------------------------

  Comparison of initial and final structures : 

--------------------------------------------------------------------------------
  Parameter   Initial value   Final value   Difference    Units      Percent
--------------------------------------------------------------------------------
    Volume        91.368216     91.598892     0.230676    Angs**3      0.25
    a              4.504000      4.507787     0.003787    Angstroms    0.08
    b              4.504000      4.507787     0.003787    Angstroms    0.08
    c              4.504000      4.507787     0.003787    Angstroms    0.08
    alpha         90.000000     90.000000     0.000000    Degrees      0.00
    beta          90.000000     90.000000     0.000000    Degrees      0.00
    gamma         90.000000     90.000000     0.000000    Degrees      0.00
      1 x          0.000000      0.000000     0.000000    Fractional   0.00
      1 y          0.000000      0.000000     0.000000    Fractional   0.00
      1 z          0.000000      0.000000     0.000000    Fractional   0.00
      2 x          0.500000      0.500000     0.000000    Fractional   0.00
      2 y          0.500000      0.500000     0.000000    Fractional   0.00
      2 z          0.500000      0.500000     0.000000    Fractional   0.00
      3 x          0.500000      0.500000     0.000000    Fractional   0.00
      3 y          0.500000      0.500000     0.000000    Fractional   0.00
      3 z          0.000000      0.000000     0.000000    Fractional   0.00
      4 x          0.000000      0.000000     0.000000    Fractional   0.00
      4 y          0.000000      0.000000     0.000000    Fractional   0.00
      4 z          0.000000      0.000000     0.000000    Fractional   0.00
      5 x          0.500000      0.500000     0.000000    Fractional   0.00
      5 y          0.500000      0.500000     0.000000    Fractional   0.00
      5 z          0.500000      0.500000     0.000000    Fractional   0.00
--------------------------------------------------------------------------------


  Born effective charge tensors : 

-------------------------------------------------------------------------------
  Atom             x           y             z
-------------------------------------------------------------------------------
    1 Cl    x      -1.0181     -0.0000      0.0000
            y      -0.0000     -1.0181      0.0000
            z       0.0000      0.0000     -1.0181
-------------------------------------------------------------------------------
    2 O     x      -2.2647      0.0000     -0.0000
            y       0.0000     -2.2647     -0.0000
            z      -0.0000     -0.0000     -2.2647
-------------------------------------------------------------------------------
    3 Na    x       1.2258     -0.0000      0.0000
            y      -0.0000      1.2258     -0.0000
            z       0.0000     -0.0000      0.8313
-------------------------------------------------------------------------------




  Elastic Constant Matrix: (Units=GPa)

-------------------------------------------------------------------------------
  Indices      1         2         3         4         5         6    
-------------------------------------------------------------------------------
       1     95.8177   20.0737   20.0737   -0.0000   -0.0000    0.0000
       2     20.0737   95.8177   20.0737   -0.0000   -0.0000    0.0000
       3     20.0737   20.0737   95.8177   -0.0000   -0.0000    0.0000
       4     -0.0000   -0.0000   -0.0000   20.0737   -0.0000    0.0000
       5     -0.0000   -0.0000   -0.0000   -0.0000   20.0737    0.0000
       6      0.0000    0.0000    0.0000    0.0000    0.0000   20.0737
-------------------------------------------------------------------------------


  Elastic Compliance Matrix: (Units=1/GPa)

-------------------------------------------------------------------------------
  Indices      1         2         3         4         5         6    
-------------------------------------------------------------------------------
       1    0.011253 -0.001949 -0.001949  0.000000  0.000000 -0.000000
       2   -0.001949  0.011253 -0.001949  0.000000  0.000000  0.000000
       3   -0.001949 -0.001949  0.011253  0.000000  0.000000 -0.000000
       4    0.000000  0.000000  0.000000  0.049816  0.000000 -0.000000
       5    0.000000  0.000000  0.000000  0.000000  0.049816 -0.000000
       6   -0.000000  0.000000 -0.000000 -0.000000 -0.000000  0.049816
-------------------------------------------------------------------------------

  Mechanical properties :

-------------------------------------------------------------------------------
  Convention :                    Reuss         Voigt         Hill
-------------------------------------------------------------------------------
  Bulk  Modulus (GPa)     =      45.32174      45.32174      45.32174
  Shear Modulus (GPa)     =      24.72085      27.19304      25.95695
-------------------------------------------------------------------------------
  Velocity S-wave (km/s)  =       3.36511       3.52937       3.44822
  Velocity P-wave (km/s)  =       5.98827       6.11304       6.05098
-------------------------------------------------------------------------------
  Compressibility (1/GPa) =    0.02206447
-------------------------------------------------------------------------------
  Stress axis :                     x             y             z
-------------------------------------------------------------------------------
  Youngs Moduli (GPa)     =      88.86373      88.86373      88.86373
-------------------------------------------------------------------------------
  Poissons Ratio (x)      =                     0.17321       0.17321
  Poissons Ratio (y)      =       0.17321                     0.17321
  Poissons Ratio (z)      =       0.17321       0.17321
-------------------------------------------------------------------------------


  Piezoelectric Strain Matrix: (Units=C/m**2)

-------------------------------------------------------------------------------
  Indices      1         2         3         4         5         6    
-------------------------------------------------------------------------------
       x    -0.00000  -0.00000  -0.00000   0.00000  -0.00000  -0.00000
       y    -0.00000  -0.00000   0.00000  -0.00000   0.00000   0.00000
       z    -0.00000  -0.00000  -0.00000  -0.00000   0.00000   0.00000
-------------------------------------------------------------------------------


  Piezoelectric Stress Matrix: (Units=10**-11 C/N)

-------------------------------------------------------------------------------
  Indices      1         2         3         4         5         6    
-------------------------------------------------------------------------------
       x    -0.00000   0.00000   0.00000   0.00000  -0.00000  -0.00000
       y    -0.00000  -0.00000   0.00000  -0.00000   0.00000   0.00000
       z     0.00000   0.00000  -0.00000  -0.00000   0.00000   0.00000
-------------------------------------------------------------------------------


  Static dielectric constant tensor : 

-------------------------------------------------------------------------------
              x         y         z
-------------------------------------------------------------------------------
       x    22.84729   0.00000   0.00000
       y     0.00000  22.84729  -0.00000
       z     0.00000  -0.00000  22.84729
--------------------------------------------------------------------------------

  High frequency dielectric constant tensor : 

-------------------------------------------------------------------------------
              x         y         z
-------------------------------------------------------------------------------
       x     1.47557   0.00000  -0.00000
       y     0.00000   1.47557  -0.00000
       z    -0.00000  -0.00000   1.47557
-------------------------------------------------------------------------------

  Static refractive indices : 

-------------------------------------------------------------------------------
    1 =    4.77988      2 =    4.77988      3 =    4.77988
-------------------------------------------------------------------------------

  High frequency refractive indices : 

-------------------------------------------------------------------------------
    1 =    1.21473      2 =    1.21473      3 =    1.21473
-------------------------------------------------------------------------------


  Time to end of optimisation =       0.0255 seconds

********************************************************************************
*  Defect calculation for configuration   1 :                                  *
********************************************************************************

  Total number of defects =      3

  Total charge on defect  =  -1.00

  Defect centre is at   0.5000   0.2500   0.2500  Frac

  Region 1 radius =  12.0000      Number of ions =    543

  Number of symmetry inequivalent region 1 ions  =    315

  Region 2 radius =  16.0000      Number of ions =    766

  Number of symmetry inequivalent region 2a ions =    417

  Region 2a mode = 4 : screened electrostatics due to region 1 
                       neglect correction to region 1 forces from 2a
                       region 2a displacements based on defects only

  Region 2a ions will only interact with defects in region 1

  Vacancies:

--------------------------------------------------------------------------------
    Specification type     Symbol/Number         x          y          z
--------------------------------------------------------------------------------
    Fractional                               0.500000   0.500000   0.000000
    Fractional                               0.500000   0.000000   0.500000
--------------------------------------------------------------------------------

  Interstitials:

--------------------------------------------------------------------------------
    Specification type     Symbol/Number         x          y          z
--------------------------------------------------------------------------------
    Atom/Fractional         Na               0.500000   0.430000   0.070000
--------------------------------------------------------------------------------


  Symmetry reduced region 1 (Relative to defect centre) :

--------------------------------------------------------------------------------
   No.   Atomic       x            y             z       Radius  Multiplicity   
         Label      (Angs)       (Angs)        (Angs)    (Angs)     
--------------------------------------------------------------------------------
     1  Na    c      0.0000       0.8114      -0.8114    0.0000     1    Defect
     2  O     c      0.0000       1.1269 *     1.1269 *  0.0000     1          
     3  Cl    c      2.2539 *    -1.1269 *    -1.1269 *  0.0000     2          
     4  Na    c      2.2539 *     1.1269 *     1.1269 *  0.0000     2          
     5  O     c      0.0000       1.1269 *    -3.3808 *  0.0000     1          
     6  O     c      0.0000      -3.3808 *     1.1269 *  0.0000     1          
     7  Na    c      0.0000       1.1269 *     3.3808 *  0.0000     1          
     8  Na    c      0.0000      -3.3808 *    -1.1269 *  0.0000     1          
     9  Na    c      0.0000      -1.1269 *    -3.3808 *  0.0000     1          
    10  Na    c      0.0000       3.3808 *     1.1269 *  0.0000     1          
    11  Cl    c      2.2539 *    -1.1269 *     3.3808 *  0.0000     2          
    12  Cl    c      2.2539 *     3.3808 *    -1.1269 *  0.0000     2          
    13  Na    c      2.2539 *     1.1269 *    -3.3808 *  0.0000     2          
    14  Na    c      2.2539 *    -3.3808 *     1.1269 *  0.0000     2          
    15  O     c     -4.5078 *     1.1269 *     1.1269 *  0.0000     2          
    16  Na    c     -4.5078 *     1.1269 *    -1.1269 *  0.0000     2          
    17  Na    c     -4.5078 *    -1.1269 *     1.1269 *  0.0000     2          
    18  O     c      0.0000      -3.3808 *    -3.3808 *  0.0000     1          
    19  Na    c      0.0000      -3.3808 *     3.3808 *  0.0000     1          
    20  Na    c      0.0000       3.3808 *    -3.3808 *  0.0000     1          
    21  Cl    c      2.2539 *     3.3808 *     3.3808 *  0.0000     2          
    22  Na    c      2.2539 *    -3.3808 *    -3.3808 *  0.0000     2          
    23  O     c      0.0000       1.1269 *     5.6347 *  0.0000     1          
    24  O     c      0.0000       5.6347 *     1.1269 *  0.0000     1          
    25  Na    c      0.0000       1.1269 *    -5.6347 *  0.0000     1          
    26  Na    c      0.0000       5.6347 *    -1.1269 *  0.0000     1          
    27  Na    c      0.0000      -1.1269 *     5.6347 *  0.0000     1          
    28  Na    c      0.0000      -5.6347 *     1.1269 *  0.0000     1          
    29  O     c     -4.5078 *     1.1269 *    -3.3808 *  0.0000     2          
    30  O     c     -4.5078 *    -3.3808 *     1.1269 *  0.0000     2          
    31  Na    c     -4.5078 *     1.1269 *     3.3808 *  0.0000     2          
    32  Na    c     -4.5078 *    -3.3808 *    -1.1269 *  0.0000     2          
    33  Na    c     -4.5078 *    -1.1269 *    -3.3808 *  0.0000     2          
    34  Na    c     -4.5078 *     3.3808 *     1.1269 *  0.0000     2          
    35  Cl    c      2.2539 *    -1.1269 *    -5.6347 *  0.0000     2          
    36  Cl    c      2.2539 *    -5.6347 *    -1.1269 *  0.0000     2          
    37  Na    c      2.2539 *     1.1269 *     5.6347 *  0.0000     2          
    38  Na    c      2.2539 *     5.6347 *     1.1269 *  0.0000     2          
    39  O     c      0.0000       5.6347 *    -3.3808 *  0.0000     1          
    40  O     c      0.0000      -3.3808 *     5.6347 *  0.0000     1          
    41  Na    c      0.0000       5.6347 *     3.3808 *  0.0000     1          
    42  Na    c      0.0000      -3.3808 *    -5.6347 *  0.0000     1          
    43  Na    c      0.0000       3.3808 *     5.6347 *  0.0000     1          
    44  Na    c      0.0000      -5.6347 *    -3.3808 *  0.0000     1          
    45  O     c      4.5078 *    -3.3808 *    -3.3808 *  0.0000     2          
    46  Na    c      4.5078 *    -3.3808 *     3.3808 *  0.0000     2          
    47  Na    c      4.5078 *     3.3808 *    -3.3808 *  0.0000     2          
    48  Cl    c      2.2539 *     3.3808 *    -5.6347 *  0.0000     2          
    49  Cl    c      2.2539 *    -5.6347 *     3.3808 *  0.0000     2          
    50  Na    c      2.2539 *     5.6347 *    -3.3808 *  0.0000     2          
    51  Na    c      2.2539 *    -3.3808 *     5.6347 *  0.0000     2          
    52  Cl    c      6.7617 *    -1.1269 *    -1.1269 *  0.0000     2          
    53  Na    c      6.7617 *     1.1269 *     1.1269 *  0.0000     2          
    54  O     c     -4.5078 *     1.1269 *     5.6347 *  0.0000     2          
    55  Na    c     -4.5078 *     1.1269 *    -5.6347 *  0.0000     2          
    56  Na    c     -4.5078 *    -1.1269 *     5.6347 *  0.0000     2          
    57  O     c      4.5078 *     5.6347 *     1.1269 *  0.0000     2          
    58  Na    c      4.5078 *     5.6347 *    -1.1269 *  0.0000     2          
    59  Na    c      4.5078 *    -5.6347 *     1.1269 *  0.0000     2          
    60  Cl    c      6.7617 *    -1.1269 *     3.3808 *  0.0000     2          
    61  Na    c      6.7617 *     1.1269 *    -3.3808 *  0.0000     2          
    62  Cl    c      6.7617 *     3.3808 *    -1.1269 *  0.0000     2          
    63  Na    c      6.7617 *    -3.3808 *     1.1269 *  0.0000     2          
    64  O     c      0.0000       5.6347 *     5.6347 *  0.0000     1          
    65  Na    c      0.0000       5.6347 *    -5.6347 *  0.0000     1          
    66  Na    c      0.0000      -5.6347 *     5.6347 *  0.0000     1          
    67  O     c     -4.5078 *    -3.3808 *     5.6347 *  0.0000     2          
    68  Na    c     -4.5078 *    -3.3808 *    -5.6347 *  0.0000     2          
    69  Na    c     -4.5078 *     3.3808 *     5.6347 *  0.0000     2          
    70  O     c      0.0000       1.1269 *    -7.8886 *  0.0000     1          
    71  O     c      0.0000      -7.8886 *     1.1269 *  0.0000     1          
    72  O     c      4.5078 *     5.6347 *    -3.3808 *  0.0000     2          
    73  Na    c      0.0000       1.1269 *     7.8886 *  0.0000     1          
    74  Na    c      0.0000      -7.8886 *    -1.1269 *  0.0000     1          
    75  Na    c      4.5078 *     5.6347 *     3.3808 *  0.0000     2          
    76  Na    c      0.0000      -1.1269 *    -7.8886 *  0.0000     1          
    77  Na    c      0.0000       7.8886 *     1.1269 *  0.0000     1          
    78  Na    c      4.5078 *    -5.6347 *    -3.3808 *  0.0000     2          
    79  Cl    c      2.2539 *    -5.6347 *    -5.6347 *  0.0000     2          
    80  Na    c      2.2539 *     5.6347 *     5.6347 *  0.0000     2          
    81  Cl    c      2.2539 *    -1.1269 *     7.8886 *  0.0000     2          
    82  Na    c      2.2539 *     1.1269 *    -7.8886 *  0.0000     2          
    83  Cl    c      2.2539 *     7.8886 *    -1.1269 *  0.0000     2          
    84  Cl    c      6.7617 *     3.3808 *     3.3808 *  0.0000     2          
    85  Na    c      2.2539 *    -7.8886 *     1.1269 *  0.0000     2          
    86  Na    c      6.7617 *    -3.3808 *    -3.3808 *  0.0000     2          
    87  O     c      0.0000      -3.3808 *    -7.8886 *  0.0000     1          
    88  O     c      0.0000      -7.8886 *    -3.3808 *  0.0000     1          
    89  Na    c      0.0000      -3.3808 *     7.8886 *  0.0000     1          
    90  Na    c      0.0000      -7.8886 *     3.3808 *  0.0000     1          
    91  Na    c      0.0000       3.3808 *    -7.8886 *  0.0000     1          
    92  Na    c      0.0000       7.8886 *    -3.3808 *  0.0000     1          
    93  Cl    c      2.2539 *     3.3808 *     7.8886 *  0.0000     2          
    94  Cl    c      6.7617 *    -1.1269 *    -5.6347 *  0.0000     2          
    95  Na    c      2.2539 *    -3.3808 *    -7.8886 *  0.0000     2          
    96  Na    c      6.7617 *     1.1269 *     5.6347 *  0.0000     2          
    97  Cl    c      2.2539 *     7.8886 *     3.3808 *  0.0000     2          
    98  Cl    c      6.7617 *    -5.6347 *    -1.1269 *  0.0000     2          
    99  Na    c      2.2539 *    -7.8886 *    -3.3808 *  0.0000     2          
   100  Na    c      6.7617 *     5.6347 *     1.1269 *  0.0000     2          
   101  O     c      4.5078 *     5.6347 *     5.6347 *  0.0000     2          
   102  O     c      4.5078 *    -7.8886 *     1.1269 *  0.0000     2          
   103  O     c      9.0156 *     1.1269 *     1.1269 *  0.0000     2          
   104  O     c     -4.5078 *     1.1269 *    -7.8886 *  0.0000     2          
   105  Na    c      4.5078 *     5.6347 *    -5.6347 *  0.0000     2          
   106  Na    c      4.5078 *    -7.8886 *    -1.1269 *  0.0000     2          
   107  Na    c      9.0156 *     1.1269 *    -1.1269 *  0.0000     2          
   108  Na    c     -4.5078 *     1.1269 *     7.8886 *  0.0000     2          
   109  Na    c      4.5078 *     7.8886 *     1.1269 *  0.0000     2          
   110  Na    c      4.5078 *    -5.6347 *     5.6347 *  0.0000     2          
   111  Na    c      9.0156 *    -1.1269 *     1.1269 *  0.0000     2          
   112  Na    c     -4.5078 *    -1.1269 *    -7.8886 *  0.0000     2          
   113  Cl    c      6.7617 *     3.3808 *    -5.6347 *  0.0000     2          
   114  Na    c      6.7617 *    -3.3808 *     5.6347 *  0.0000     2          
   115  Cl    c      6.7617 *    -5.6347 *     3.3808 *  0.0000     2          
   116  Na    c      6.7617 *     5.6347 *    -3.3808 *  0.0000     2          
   117  O     c      0.0000       5.6347 *    -7.8886 *  0.0000     1          
   118  O     c      0.0000      -7.8886 *     5.6347 *  0.0000     1          
   119  O     c      9.0156 *    -3.3808 *     1.1269 *  0.0000     2          
   120  O     c     -4.5078 *    -3.3808 *    -7.8886 *  0.0000     2          
   121  Na    c      0.0000       5.6347 *     7.8886 *  0.0000     1          
   122  Na    c      0.0000      -7.8886 *    -5.6347 *  0.0000     1          
   123  Na    c      9.0156 *    -3.3808 *    -1.1269 *  0.0000     2          
   124  Na    c     -4.5078 *    -3.3808 *     7.8886 *  0.0000     2          
   125  Na    c      0.0000       7.8886 *     5.6347 *  0.0000     1          
   126  Na    c      0.0000      -5.6347 *    -7.8886 *  0.0000     1          
   127  Na    c      9.0156 *     3.3808 *     1.1269 *  0.0000     2          
   128  Na    c     -4.5078 *     3.3808 *    -7.8886 *  0.0000     2          
   129  O     c      4.5078 *    -7.8886 *    -3.3808 *  0.0000     2          
   130  O     c      9.0156 *     1.1269 *    -3.3808 *  0.0000     2          
   131  Na    c      4.5078 *    -7.8886 *     3.3808 *  0.0000     2          
   132  Na    c      9.0156 *     1.1269 *     3.3808 *  0.0000     2          
   133  Na    c      4.5078 *     7.8886 *    -3.3808 *  0.0000     2          
   134  Na    c      9.0156 *    -1.1269 *    -3.3808 *  0.0000     2          
   135  Cl    c      2.2539 *     7.8886 *    -5.6347 *  0.0000     2          
   136  Cl    c      2.2539 *    -5.6347 *     7.8886 *  0.0000     2          
   137  Na    c      2.2539 *     5.6347 *    -7.8886 *  0.0000     2          
   138  Na    c      2.2539 *    -7.8886 *     5.6347 *  0.0000     2          
   139  O     c      0.0000      10.1425 *     1.1269 *  0.0000     1          
   140  Na    c      0.0000      10.1425 *    -1.1269 *  0.0000     1          
   141  Na    c      0.0000     -10.1425 *     1.1269 *  0.0000     1          
   142  O     c      0.0000       1.1269 *    10.1425 *  0.0000     1          
   143  O     c      9.0156 *    -3.3808 *    -3.3808 *  0.0000     2          
   144  Na    c      0.0000       1.1269 *   -10.1425 *  0.0000     1          
   145  Na    c      9.0156 *    -3.3808 *     3.3808 *  0.0000     2          
   146  Na    c      0.0000      -1.1269 *    10.1425 *  0.0000     1          
   147  Na    c      9.0156 *     3.3808 *    -3.3808 *  0.0000     2          
   148  Cl    c      6.7617 *    -5.6347 *    -5.6347 *  0.0000     2          
   149  Na    c      6.7617 *     5.6347 *     5.6347 *  0.0000     2          
   150  Cl    c      2.2539 *    -1.1269 *   -10.1425 *  0.0000     2          
   151  Cl    c      2.2539 *   -10.1425 *    -1.1269 *  0.0000     2          
   152  Cl    c      6.7617 *    -1.1269 *     7.8886 *  0.0000     2          
   153  Cl    c      6.7617 *     7.8886 *    -1.1269 *  0.0000     2          
   154  Na    c      2.2539 *     1.1269 *    10.1425 *  0.0000     2          
   155  Na    c      2.2539 *    10.1425 *     1.1269 *  0.0000     2          
   156  Na    c      6.7617 *     1.1269 *    -7.8886 *  0.0000     2          
   157  Na    c      6.7617 *    -7.8886 *     1.1269 *  0.0000     2          
   158  O     c      4.5078 *     5.6347 *    -7.8886 *  0.0000     2          
   159  O     c      4.5078 *    -7.8886 *     5.6347 *  0.0000     2          
   160  O     c      9.0156 *     1.1269 *     5.6347 *  0.0000     2          
   161  O     c      9.0156 *     5.6347 *     1.1269 *  0.0000     2          
   162  Na    c      4.5078 *     5.6347 *     7.8886 *  0.0000     2          
   163  Na    c      4.5078 *    -7.8886 *    -5.6347 *  0.0000     2          
   164  Na    c      9.0156 *     1.1269 *    -5.6347 *  0.0000     2          
   165  Na    c      9.0156 *     5.6347 *    -1.1269 *  0.0000     2          
   166  Na    c      4.5078 *     7.8886 *     5.6347 *  0.0000     2          
   167  Na    c      4.5078 *    -5.6347 *    -7.8886 *  0.0000     2          
   168  Na    c      9.0156 *    -1.1269 *     5.6347 *  0.0000     2          
   169  Na    c      9.0156 *    -5.6347 *     1.1269 *  0.0000     2          
   170  O     c      0.0000      10.1425 *    -3.3808 *  0.0000     1          
   171  O     c      0.0000      -3.3808 *    10.1425 *  0.0000     1          
   172  Na    c      0.0000      10.1425 *     3.3808 *  0.0000     1          
   173  Na    c      0.0000      -3.3808 *   -10.1425 *  0.0000     1          
   174  Na    c      0.0000       3.3808 *    10.1425 *  0.0000     1          
   175  Na    c      0.0000     -10.1425 *    -3.3808 *  0.0000     1          
   176  Cl    c      2.2539 *     3.3808 *   -10.1425 *  0.0000     2          
   177  Cl    c      2.2539 *   -10.1425 *     3.3808 *  0.0000     2          
   178  Cl    c      6.7617 *     7.8886 *     3.3808 *  0.0000     2          
   179  Na    c      2.2539 *    10.1425 *    -3.3808 *  0.0000     2          
   180  Na    c      2.2539 *    -3.3808 *    10.1425 *  0.0000     2          
   181  Na    c      6.7617 *    -7.8886 *    -3.3808 *  0.0000     2          
   182  Cl    c      6.7617 *     3.3808 *     7.8886 *  0.0000     2          
   183  Na    c      6.7617 *    -3.3808 *    -7.8886 *  0.0000     2          
   184  O     c      9.0156 *    -3.3808 *     5.6347 *  0.0000     2          
   185  O     c     -4.5078 *    10.1425 *     1.1269 *  0.0000     2          
   186  Na    c      9.0156 *    -3.3808 *    -5.6347 *  0.0000     2          
   187  Na    c     -4.5078 *    10.1425 *    -1.1269 *  0.0000     2          
   188  Na    c      9.0156 *     3.3808 *     5.6347 *  0.0000     2          
   189  Na    c     -4.5078 *   -10.1425 *     1.1269 *  0.0000     2          
   190  O     c      0.0000      -7.8886 *    -7.8886 *  0.0000     1          
   191  O     c      4.5078 *     1.1269 *    10.1425 *  0.0000     2          
   192  O     c      9.0156 *     5.6347 *    -3.3808 *  0.0000     2          
   193  Na    c      0.0000      -7.8886 *     7.8886 *  0.0000     1          
   194  Na    c      4.5078 *     1.1269 *   -10.1425 *  0.0000     2          
   195  Na    c      9.0156 *     5.6347 *     3.3808 *  0.0000     2          
   196  Na    c      0.0000       7.8886 *    -7.8886 *  0.0000     1          
   197  Na    c      4.5078 *    -1.1269 *    10.1425 *  0.0000     2          
   198  Na    c      9.0156 *    -5.6347 *    -3.3808 *  0.0000     2          
   199  Cl    c     11.2695 *    -1.1269 *    -1.1269 *  0.0000     2          
   200  Na    c     11.2695 *     1.1269 *     1.1269 *  0.0000     2          
   201  Cl    c      2.2539 *     7.8886 *     7.8886 *  0.0000     2          
   202  Na    c      2.2539 *    -7.8886 *    -7.8886 *  0.0000     2          
   203  O     c      0.0000       5.6347 *    10.1425 *  0.0000     1          
   204  O     c      0.0000      10.1425 *     5.6347 *  0.0000     1          
   205  O     c     -4.5078 *    10.1425 *    -3.3808 *  0.0000     2          
   206  Na    c      0.0000       5.6347 *   -10.1425 *  0.0000     1          
   207  Na    c      0.0000      10.1425 *    -5.6347 *  0.0000     1          
   208  Na    c     -4.5078 *    10.1425 *     3.3808 *  0.0000     2          
   209  Na    c      0.0000      -5.6347 *    10.1425 *  0.0000     1          
   210  Na    c      0.0000     -10.1425 *     5.6347 *  0.0000     1          
   211  Na    c     -4.5078 *   -10.1425 *    -3.3808 *  0.0000     2          
   212  O     c      4.5078 *    -3.3808 *    10.1425 *  0.0000     2          
   213  Na    c      4.5078 *    -3.3808 *   -10.1425 *  0.0000     2          
   214  Na    c      4.5078 *     3.3808 *    10.1425 *  0.0000     2          
   215  Cl    c     11.2695 *    -1.1269 *     3.3808 *  0.0000     2          
   216  Cl    c     11.2695 *     3.3808 *    -1.1269 *  0.0000     2          
   217  Na    c     11.2695 *     1.1269 *    -3.3808 *  0.0000     2          
   218  Na    c     11.2695 *    -3.3808 *     1.1269 *  0.0000     2          
   219  Cl    c      2.2539 *    -5.6347 *   -10.1425 *  0.0000     2          
   220  Cl    c      2.2539 *   -10.1425 *    -5.6347 *  0.0000     2          
   221  Cl    c      6.7617 *     7.8886 *    -5.6347 *  0.0000     2          
   222  Na    c      2.2539 *     5.6347 *    10.1425 *  0.0000     2          
   223  Na    c      2.2539 *    10.1425 *     5.6347 *  0.0000     2          
   224  Na    c      6.7617 *    -7.8886 *     5.6347 *  0.0000     2          
   225  Cl    c      6.7617 *    -5.6347 *     7.8886 *  0.0000     2          
   226  Na    c      6.7617 *     5.6347 *    -7.8886 *  0.0000     2          
   227  O     s      0.0000       1.1269 *     1.1269 *  0.0000     1          
   228  Cl    s      2.2539 *    -1.1269 *    -1.1269 *  0.0000     2          
   229  O     s      0.0000       1.1269 *    -3.3808 *  0.0000     1          
   230  O     s      0.0000      -3.3808 *     1.1269 *  0.0000     1          
   231  Cl    s      2.2539 *    -1.1269 *     3.3808 *  0.0000     2          
   232  Cl    s      2.2539 *     3.3808 *    -1.1269 *  0.0000     2          
   233  O     s     -4.5078 *     1.1269 *     1.1269 *  0.0000     2          
   234  O     s      0.0000      -3.3808 *    -3.3808 *  0.0000     1          
   235  Cl    s      2.2539 *     3.3808 *     3.3808 *  0.0000     2          
   236  O     s      0.0000       1.1269 *     5.6347 *  0.0000     1          
   237  O     s      0.0000       5.6347 *     1.1269 *  0.0000     1          
   238  O     s     -4.5078 *     1.1269 *    -3.3808 *  0.0000     2          
   239  O     s     -4.5078 *    -3.3808 *     1.1269 *  0.0000     2          
   240  Cl    s      2.2539 *    -1.1269 *    -5.6347 *  0.0000     2          
   241  Cl    s      2.2539 *    -5.6347 *    -1.1269 *  0.0000     2          
   242  O     s      0.0000       5.6347 *    -3.3808 *  0.0000     1          
   243  O     s      0.0000      -3.3808 *     5.6347 *  0.0000     1          
   244  O     s      4.5078 *    -3.3808 *    -3.3808 *  0.0000     2          
   245  Cl    s      2.2539 *     3.3808 *    -5.6347 *  0.0000     2          
   246  Cl    s      2.2539 *    -5.6347 *     3.3808 *  0.0000     2          
   247  Cl    s      6.7617 *    -1.1269 *    -1.1269 *  0.0000     2          
   248  O     s     -4.5078 *     1.1269 *     5.6347 *  0.0000     2          
   249  O     s      4.5078 *     5.6347 *     1.1269 *  0.0000     2          
   250  Cl    s      6.7617 *    -1.1269 *     3.3808 *  0.0000     2          
   251  Cl    s      6.7617 *     3.3808 *    -1.1269 *  0.0000     2          
   252  O     s      0.0000       5.6347 *     5.6347 *  0.0000     1          
   253  O     s     -4.5078 *    -3.3808 *     5.6347 *  0.0000     2          
   254  O     s      0.0000       1.1269 *    -7.8886 *  0.0000     1          
   255  O     s      0.0000      -7.8886 *     1.1269 *  0.0000     1          
   256  O     s      4.5078 *     5.6347 *    -3.3808 *  0.0000     2          
   257  Cl    s      2.2539 *    -5.6347 *    -5.6347 *  0.0000     2          
   258  Cl    s      2.2539 *    -1.1269 *     7.8886 *  0.0000     2          
   259  Cl    s      2.2539 *     7.8886 *    -1.1269 *  0.0000     2          
   260  Cl    s      6.7617 *     3.3808 *     3.3808 *  0.0000     2          
   261  O     s      0.0000      -3.3808 *    -7.8886 *  0.0000     1          
   262  O     s      0.0000      -7.8886 *    -3.3808 *  0.0000     1          
   263  Cl    s      2.2539 *     3.3808 *     7.8886 *  0.0000     2          
   264  Cl    s      6.7617 *    -1.1269 *    -5.6347 *  0.0000     2          
   265  Cl    s      2.2539 *     7.8886 *     3.3808 *  0.0000     2          
   266  Cl    s      6.7617 *    -5.6347 *    -1.1269 *  0.0000     2          
   267  O     s      4.5078 *     5.6347 *     5.6347 *  0.0000     2          
   268  O     s      4.5078 *    -7.8886 *     1.1269 *  0.0000     2          
   269  O     s      9.0156 *     1.1269 *     1.1269 *  0.0000     2          
   270  O     s     -4.5078 *     1.1269 *    -7.8886 *  0.0000     2          
   271  Cl    s      6.7617 *     3.3808 *    -5.6347 *  0.0000     2          
   272  Cl    s      6.7617 *    -5.6347 *     3.3808 *  0.0000     2          
   273  O     s      0.0000       5.6347 *    -7.8886 *  0.0000     1          
   274  O     s      0.0000      -7.8886 *     5.6347 *  0.0000     1          
   275  O     s      9.0156 *    -3.3808 *     1.1269 *  0.0000     2          
   276  O     s     -4.5078 *    -3.3808 *    -7.8886 *  0.0000     2          
   277  O     s      4.5078 *    -7.8886 *    -3.3808 *  0.0000     2          
   278  O     s      9.0156 *     1.1269 *    -3.3808 *  0.0000     2          
   279  Cl    s      2.2539 *     7.8886 *    -5.6347 *  0.0000     2          
   280  Cl    s      2.2539 *    -5.6347 *     7.8886 *  0.0000     2          
   281  O     s      0.0000      10.1425 *     1.1269 *  0.0000     1          
   282  O     s      0.0000       1.1269 *    10.1425 *  0.0000     1          
   283  O     s      9.0156 *    -3.3808 *    -3.3808 *  0.0000     2          
   284  Cl    s      6.7617 *    -5.6347 *    -5.6347 *  0.0000     2          
   285  Cl    s      2.2539 *    -1.1269 *   -10.1425 *  0.0000     2          
   286  Cl    s      2.2539 *   -10.1425 *    -1.1269 *  0.0000     2          
   287  Cl    s      6.7617 *    -1.1269 *     7.8886 *  0.0000     2          
   288  Cl    s      6.7617 *     7.8886 *    -1.1269 *  0.0000     2          
   289  O     s      4.5078 *     5.6347 *    -7.8886 *  0.0000     2          
   290  O     s      4.5078 *    -7.8886 *     5.6347 *  0.0000     2          
   291  O     s      9.0156 *     1.1269 *     5.6347 *  0.0000     2          
   292  O     s      9.0156 *     5.6347 *     1.1269 *  0.0000     2          
   293  O     s      0.0000      10.1425 *    -3.3808 *  0.0000     1          
   294  O     s      0.0000      -3.3808 *    10.1425 *  0.0000     1          
   295  Cl    s      2.2539 *     3.3808 *   -10.1425 *  0.0000     2          
   296  Cl    s      2.2539 *   -10.1425 *     3.3808 *  0.0000     2          
   297  Cl    s      6.7617 *     7.8886 *     3.3808 *  0.0000     2          
   298  Cl    s      6.7617 *     3.3808 *     7.8886 *  0.0000     2          
   299  O     s      9.0156 *    -3.3808 *     5.6347 *  0.0000     2          
   300  O     s     -4.5078 *    10.1425 *     1.1269 *  0.0000     2          
   301  O     s      0.0000      -7.8886 *    -7.8886 *  0.0000     1          
   302  O     s      4.5078 *     1.1269 *    10.1425 *  0.0000     2          
   303  O     s      9.0156 *     5.6347 *    -3.3808 *  0.0000     2          
   304  Cl    s     11.2695 *    -1.1269 *    -1.1269 *  0.0000     2          
   305  Cl    s      2.2539 *     7.8886 *     7.8886 *  0.0000     2          
   306  O     s      0.0000       5.6347 *    10.1425 *  0.0000     1          
   307  O     s      0.0000      10.1425 *     5.6347 *  0.0000     1          
   308  O     s     -4.5078 *    10.1425 *    -3.3808 *  0.0000     2          
   309  O     s      4.5078 *    -3.3808 *    10.1425 *  0.0000     2          
   310  Cl    s     11.2695 *    -1.1269 *     3.3808 *  0.0000     2          
   311  Cl    s     11.2695 *     3.3808 *    -1.1269 *  0.0000     2          
   312  Cl    s      2.2539 *    -5.6347 *   -10.1425 *  0.0000     2          
   313  Cl    s      2.2539 *   -10.1425 *    -5.6347 *  0.0000     2          
   314  Cl    s      6.7617 *     7.8886 *    -5.6347 *  0.0000     2          
   315  Cl    s      6.7617 *    -5.6347 *     7.8886 *  0.0000     2          
--------------------------------------------------------------------------------

  Components of defect energy : 

--------------------------------------------------------------------------------
  Region 1 - region 1                   =      8.64974484 eV
  Region 1 - region 2a (unrelaxed)      =     -0.21363851 eV
  Region 1 - 2a (relaxed - correction)  =     -0.29111820 eV
  Region 1 (Total)                      =      8.14498812 eV
  Region 2a                             =      0.14548628 eV
  Region 2b                             =     -0.43319573 eV
--------------------------------------------------------------------------------
  Total defect energy                   =      7.85727867 eV
--------------------------------------------------------------------------------

  Largest displacement in region 2 =   0.0222 Angstroms


  Number of variables =      856

  Maximum number of calculations  =        1000
  Maximum Hessian update interval =          10
  Maximum step size               =   1.0000000
  Maximum parameter tolerance     =   0.0000100
  Maximum function  tolerance     =   0.0000100
  Maximum gradient  tolerance     =   0.0010000

  Symmetry adapted optimisation

  Symmetry to be used for second derivatives

  Newton-Raphson optimiser to be used

  BFGS hessian update to be used

  Lower half triangular hessian to be used

  Start of defect optimisation :

  Cycle:      0 Defect Energy:   7.857279  Gnorm:     0.019115  CPU:    2.601
  ** Hessian calculated **
  Cycle:      1 Defect Energy:   7.300049  Gnorm:     0.017007  CPU:    8.852
  ** Hessian calculated **
  Cycle:      2 Defect Energy:   6.620979  Gnorm:     0.014009  CPU:   15.820
  Cycle:      3 Defect Energy:   6.235304  Gnorm:     0.011209  CPU:   20.852
  ** Hessian calculated **
  Cycle:      4 Defect Energy:   5.588844  Gnorm:     0.003594  CPU:   26.432
  Cycle:      5 Defect Energy:   5.529204  Gnorm:     0.002440  CPU:   27.311
  Cycle:      6 Defect Energy:   5.463775  Gnorm:     0.002040  CPU:   28.165
  Cycle:      7 Defect Energy:   5.388960  Gnorm:     0.001708  CPU:   29.094
  Cycle:      8 Defect Energy:   5.303491  Gnorm:     0.001625  CPU:   29.861
  Cycle:      9 Defect Energy:   5.238554  Gnorm:     0.001571  CPU:   31.073
  Cycle:     10 Defect Energy:   5.188090  Gnorm:     0.001733  CPU:   34.997
  Cycle:     11 Defect Energy:   5.142152  Gnorm:     0.001974  CPU:   36.062
  Cycle:     12 Defect Energy:   5.091648  Gnorm:     0.001981  CPU:   37.129
  Cycle:     13 Defect Energy:   5.034594  Gnorm:     0.002173  CPU:   38.210
  ** Hessian calculated **
  Cycle:     14 Defect Energy:   4.951584  Gnorm:     0.002072  CPU:   41.079
  Cycle:     15 Defect Energy:   4.851264  Gnorm:     0.001847  CPU:   42.112
  ** Hessian calculated **
  Cycle:     16 Defect Energy:   4.833688  Gnorm:     0.001499  CPU:   44.867
  Cycle:     17 Defect Energy:   4.814153  Gnorm:     0.001402  CPU:   45.998
  Cycle:     18 Defect Energy:   4.791971  Gnorm:     0.001284  CPU:   47.028
  Cycle:     19 Defect Energy:   4.772264  Gnorm:     0.001234  CPU:   48.128
  Cycle:     20 Defect Energy:   4.755770  Gnorm:     0.001230  CPU:   49.187
  Cycle:     21 Defect Energy:   4.740165  Gnorm:     0.001226  CPU:   50.243
  Cycle:     22 Defect Energy:   4.724257  Gnorm:     0.001288  CPU:   51.201
  Cycle:     23 Defect Energy:   4.708044  Gnorm:     0.001269  CPU:   52.152
  Cycle:     24 Defect Energy:   4.693553  Gnorm:     0.001266  CPU:   53.090
  Cycle:     25 Defect Energy:   4.678610  Gnorm:     0.001248  CPU:   54.037
  ** Hessian calculated **
  Cycle:     26 Defect Energy:   4.653772  Gnorm:     0.001135  CPU:   56.505
  Cycle:     27 Defect Energy:   4.620710  Gnorm:     0.000966  CPU:   57.411
  Cycle:     28 Defect Energy:   4.590983  Gnorm:     0.000778  CPU:   58.304
  ** Hessian calculated **
  Cycle:     29 Defect Energy:   4.566118  Gnorm:     0.000550  CPU:   60.795
  Cycle:     30 Defect Energy:   4.553631  Gnorm:     0.000388  CPU:   61.659
  Cycle:     31 Defect Energy:   4.547352  Gnorm:     0.000270  CPU:   62.343
  Cycle:     32 Defect Energy:   4.544301  Gnorm:     0.000189  CPU:   62.941
  Cycle:     33 Defect Energy:   4.542827  Gnorm:     0.000133  CPU:   63.791
  Cycle:     34 Defect Energy:   4.542131  Gnorm:     0.000093  CPU:   64.733
  Cycle:     35 Defect Energy:   4.541818  Gnorm:     0.000064  CPU:   65.471
  Cycle:     36 Defect Energy:   4.541689  Gnorm:     0.000045  CPU:   66.102
  Cycle:     37 Defect Energy:   4.541639  Gnorm:     0.000031  CPU:   66.991
  Cycle:     38 Defect Energy:   4.541625  Gnorm:     0.000022  CPU:   67.918
  ** Hessian calculated **


  **** Optimisation achieved ****


  Final defect energy  =        4.54162749
  Final defect Gnorm   =        0.00001538

  Components of defect energy : 

--------------------------------------------------------------------------------
  Region 1 - region 1                   =      6.20113335 eV
  Region 1 - region 2a (unrelaxed)      =     -1.11616619 eV
  Region 1 - 2a (relaxed - correction)  =     -0.22324352 eV
  Region 1 (Total)                      =      4.86172364 eV
  Region 2a                             =      0.11159492 eV
  Region 2b                             =     -0.43169106 eV
--------------------------------------------------------------------------------
  Total defect energy                   =      4.54162749 eV
--------------------------------------------------------------------------------

  Largest displacement in region 2 =   0.0222 Angstroms

  Final coordinates of region 1 :

--------------------------------------------------------------------------------
   No.  Atomic        x           y           z          Radius      Charge
        Label       (Angs)      (Angs)      (Angs)       (Angs)       (e) 
--------------------------------------------------------------------------------
     1  Na    c     2.253894    1.938349    0.315545    0.000000    1.000000
     2  O     c     2.253894    2.361180    2.441897    0.000000    0.183000
     3  Cl    c     4.632073    0.017336   -0.086852    0.000000    1.485000
     4  Cl    c    -0.124285    0.017336   -0.086852    0.000000    1.485000
     5  Na    c     4.445589    1.898485    2.401222    0.000000    1.000000
     6  Na    c     0.062198    1.898485    2.401222    0.000000    1.000000
     7  O     c     2.253894    2.229910   -2.105397    0.000000    0.183000
     8  O     c     2.253894   -2.350968    2.323947    0.000000    0.183000
     9  Na    c     2.253894    1.726569    4.544961    0.000000    1.000000
    10  Na    c     2.253894   -2.263217    0.106222    0.000000    1.000000
    11  Na    c     2.253894   -0.001397   -2.210913    0.000000    1.000000
    12  Na    c     2.253894    4.549126    2.576591    0.000000    1.000000
    13  Cl    c     4.636137    0.002441    4.666105    0.000000    1.485000
    14  Cl    c    -0.128350    0.002441    4.666105    0.000000    1.485000
    15  Cl    c     4.602706    4.617475   -0.078756    0.000000    1.485000
    16  Cl    c    -0.094918    4.617475   -0.078756    0.000000    1.485000
    17  Na    c     4.497887    2.227653   -2.115596    0.000000    1.000000
    18  Na    c     0.009901    2.227653   -2.115596    0.000000    1.000000
    19  Na    c     4.411718   -1.774619    2.244120    0.000000    1.000000
    20  Na    c     0.096069   -1.774619    2.244120    0.000000    1.000000
    21  O     c    -2.229079    2.241806    2.278837    0.000000    0.183000
    22  O     c     6.736866    2.241806    2.278837    0.000000    0.183000
    23  Na    c    -2.189024    2.197544    0.028113    0.000000    1.000000
    24  Na    c     6.696811    2.197544    0.028113    0.000000    1.000000
    25  Na    c    -2.609694    0.004026    2.223620    0.000000    1.000000
    26  Na    c     7.117481    0.004026    2.223620    0.000000    1.000000
    27  O     c     2.253894   -2.248829   -2.198378    0.000000    0.183000
    28  Na    c     2.253894   -1.798854    4.481546    0.000000    1.000000
    29  Na    c     2.253894    4.461447   -1.928561    0.000000    1.000000
    30  Cl    c     4.616703    4.631767    4.604311    0.000000    1.485000
    31  Cl    c    -0.108916    4.631767    4.604311    0.000000    1.485000
    32  Na    c     4.503017   -2.215259   -2.172230    0.000000    1.000000
    33  Na    c     0.004770   -2.215259   -2.172230    0.000000    1.000000
    34  O     c     2.253894    2.231162    6.781145    0.000000    0.183000
    35  O     c     2.253894    6.822621    2.302177    0.000000    0.183000
    36  Na    c     2.253894    2.389122   -4.410569    0.000000    1.000000
    37  Na    c     2.253894    6.659114    0.053820    0.000000    1.000000
    38  Na    c     2.253894   -0.001789    7.239256    0.000000    1.000000
    39  Na    c     2.253894   -4.523636    2.597103    0.000000    1.000000
    40  O     c    -2.250635    2.265767   -2.234818    0.000000    0.183000
    41  O     c     6.758422    2.265767   -2.234818    0.000000    0.183000
    42  O     c    -2.204967   -2.226190    2.262474    0.000000    0.183000
    43  O     c     6.712754   -2.226190    2.262474    0.000000    0.183000
    44  Na    c    -2.293767    2.176259    4.527916    0.000000    1.000000
    45  Na    c     6.801554    2.176259    4.527916    0.000000    1.000000
    46  Na    c    -2.238710   -2.239959    0.007541    0.000000    1.000000
    47  Na    c     6.746497   -2.239959    0.007541    0.000000    1.000000
    48  Na    c    -2.276933    0.005170   -2.267057    0.000000    1.000000
    49  Na    c     6.784720    0.005170   -2.267057    0.000000    1.000000
    50  Na    c    -1.868896    4.486202    2.264963    0.000000    1.000000
    51  Na    c     6.376683    4.486202    2.264963    0.000000    1.000000
    52  Cl    c     4.488930   -0.022664   -4.522529    0.000000    1.485000
    53  Cl    c     0.018857   -0.022664   -4.522529    0.000000    1.485000
    54  Cl    c     4.578830   -4.592129   -0.119982    0.000000    1.485000
    55  Cl    c    -0.071043   -4.592129   -0.119982    0.000000    1.485000
    56  Na    c     4.509203    2.209436    6.736472    0.000000    1.000000
    57  Na    c    -0.001416    2.209436    6.736472    0.000000    1.000000
    58  Na    c     4.505961    6.917529    2.340447    0.000000    1.000000
    59  Na    c     0.001826    6.917529    2.340447    0.000000    1.000000
    60  O     c     2.253894    6.721106   -2.213540    0.000000    0.183000
    61  O     c     2.253894   -2.226073    6.760935    0.000000    0.183000
    62  Na    c     2.253894    7.130066    4.531835    0.000000    1.000000
    63  Na    c     2.253894   -2.243731   -4.471738    0.000000    1.000000
    64  Na    c     2.253894    4.483810    6.343504    0.000000    1.000000
    65  Na    c     2.253894   -4.494843   -2.312241    0.000000    1.000000
    66  O     c     6.757522   -2.257389   -2.257364    0.000000    0.183000
    67  O     c    -2.249735   -2.257389   -2.257364    0.000000    0.183000
    68  Na    c     6.678013   -2.163371    4.512258    0.000000    1.000000
    69  Na    c    -2.170226   -2.163371    4.512258    0.000000    1.000000
    70  Na    c     6.714810    4.515431   -2.155619    0.000000    1.000000
    71  Na    c    -2.207023    4.515431   -2.155619    0.000000    1.000000
    72  Cl    c     4.524765    4.505468   -4.537108    0.000000    1.485000
    73  Cl    c    -0.016978    4.505468   -4.537108    0.000000    1.485000
    74  Cl    c     4.585265   -4.614089    4.621506    0.000000    1.485000
    75  Cl    c    -0.077478   -4.614089    4.621506    0.000000    1.485000
    76  Na    c     4.506544    6.742264   -2.251001    0.000000    1.000000
    77  Na    c     0.001243    6.742264   -2.251001    0.000000    1.000000
    78  Na    c     4.504366   -2.218660    6.748200    0.000000    1.000000
    79  Na    c     0.003422   -2.218660    6.748200    0.000000    1.000000
    80  Cl    c     9.022331    0.012247   -0.032716    0.000000    1.485000
    81  Cl    c    -4.514544    0.012247   -0.032716    0.000000    1.485000
    82  Na    c     8.982982    2.627850    2.242622    0.000000    1.000000
    83  Na    c    -4.475195    2.627850    2.242622    0.000000    1.000000
    84  O     c    -2.263042    2.263346    6.784252    0.000000    0.183000
    85  O     c     6.770829    2.263346    6.784252    0.000000    0.183000
    86  Na    c    -2.228392    2.347208   -4.483562    0.000000    1.000000
    87  Na    c     6.736179    2.347208   -4.483562    0.000000    1.000000
    88  Na    c    -2.295662    0.001428    6.851038    0.000000    1.000000
    89  Na    c     6.803449    0.001428    6.851038    0.000000    1.000000
    90  O     c     6.757305    6.740924    2.257753    0.000000    0.183000
    91  O     c    -2.249518    6.740924    2.257753    0.000000    0.183000
    92  Na    c     6.676882    6.767670    0.004312    0.000000    1.000000
    93  Na    c    -2.169094    6.767670    0.004312    0.000000    1.000000
    94  Na    c     6.322932   -4.465623    2.286171    0.000000    1.000000
    95  Na    c    -1.815145   -4.465623    2.286171    0.000000    1.000000
    96  Cl    c     9.032523   -0.002394    4.538457    0.000000    1.485000
    97  Cl    c    -4.524736   -0.002394    4.538457    0.000000    1.485000
    98  Na    c     9.006767    2.295938   -2.214175    0.000000    1.000000
    99  Na    c    -4.498980    2.295938   -2.214175    0.000000    1.000000
   100  Cl    c     9.068089    4.510249   -0.034611    0.000000    1.485000
   101  Cl    c    -4.560301    4.510249   -0.034611    0.000000    1.485000
   102  Na    c     8.962078   -2.617898    2.303030    0.000000    1.000000
   103  Na    c    -4.454291   -2.617898    2.303030    0.000000    1.000000
   104  O     c     2.253894    6.749930    6.753539    0.000000    0.183000
   105  Na    c     2.253894    6.569128   -4.470716    0.000000    1.000000
   106  Na    c     2.253894   -4.485753    6.397620    0.000000    1.000000
   107  O     c    -2.258854   -2.260517    6.771357    0.000000    0.183000
   108  O     c     6.766642   -2.260517    6.771357    0.000000    0.183000
   109  Na    c    -2.180816   -2.271610   -4.502468    0.000000    1.000000
   110  Na    c     6.688603   -2.271610   -4.502468    0.000000    1.000000
   111  Na    c    -2.194688    4.510425    6.690520    0.000000    1.000000
   112  Na    c     6.702475    4.510425    6.690520    0.000000    1.000000
   113  O     c     2.253894    2.253941   -6.712304    0.000000    0.183000
   114  O     c     2.253894   -6.790517    2.268603    0.000000    0.183000
   115  O     c     6.769362    6.769742   -2.257710    0.000000    0.183000
   116  O     c    -2.261575    6.769742   -2.257710    0.000000    0.183000
   117  Na    c     2.253894    2.612919    9.010230    0.000000    1.000000
   118  Na    c     2.253894   -6.480758    0.026933    0.000000    1.000000
   119  Na    c     6.836792    6.728168    4.510902    0.000000    1.000000
   120  Na    c    -2.329005    6.728168    4.510902    0.000000    1.000000
   121  Na    c     2.253894    0.006084   -6.602342    0.000000    1.000000
   122  Na    c     2.253894    9.053314    2.016141    0.000000    1.000000
   123  Na    c     6.675512   -4.508488   -2.264993    0.000000    1.000000
   124  Na    c    -2.167725   -4.508488   -2.264993    0.000000    1.000000
   125  Cl    c     4.506744   -4.498141   -4.527133    0.000000    1.485000
   126  Cl    c     0.001043   -4.498141   -4.527133    0.000000    1.485000
   127  Na    c     4.512712    6.726580    6.708619    0.000000    1.000000
   128  Na    c    -0.004924    6.726580    6.708619    0.000000    1.000000
   129  Cl    c     4.553379   -0.001812    9.062916    0.000000    1.485000
   130  Cl    c    -0.045592   -0.001812    9.062916    0.000000    1.485000
   131  Na    c     4.501277    2.226161   -6.689751    0.000000    1.000000
   132  Na    c     0.006510    2.226161   -6.689751    0.000000    1.000000
   133  Cl    c     4.491140    9.030017    0.022019    0.000000    1.485000
   134  Cl    c     0.016647    9.030017    0.022019    0.000000    1.485000
   135  Cl    c     9.062567    4.513960    4.542730    0.000000    1.485000
   136  Cl    c    -4.554779    4.513960    4.542730    0.000000    1.485000
   137  Na    c     4.495993   -6.928333    2.230689    0.000000    1.000000
   138  Na    c     0.011794   -6.928333    2.230689    0.000000    1.000000
   139  Na    c     9.003241   -2.306469   -2.290143    0.000000    1.000000
   140  Na    c    -4.495453   -2.306469   -2.290143    0.000000    1.000000
   141  O     c     2.253894   -2.247758   -6.743114    0.000000    0.183000
   142  O     c     2.253894   -6.753938   -2.231350    0.000000    0.183000
   143  Na    c     2.253894   -2.597595    9.002092    0.000000    1.000000
   144  Na    c     2.253894   -7.050929    4.511890    0.000000    1.000000
   145  Na    c     2.253894    4.498581   -6.847253    0.000000    1.000000
   146  Na    c     2.253894    8.986897   -2.222252    0.000000    1.000000
   147  Cl    c     4.535572    4.524265    9.082746    0.000000    1.485000
   148  Cl    c    -0.027785    4.524265    9.082746    0.000000    1.485000
   149  Cl    c     9.038325   -0.010136   -4.522283    0.000000    1.485000
   150  Cl    c    -4.530538   -0.010136   -4.522283    0.000000    1.485000
   151  Na    c     4.503391   -2.236620   -6.761071    0.000000    1.000000
   152  Na    c     0.004396   -2.236620   -6.761071    0.000000    1.000000
   153  Na    c     9.018162    2.333394    6.810137    0.000000    1.000000
   154  Na    c    -4.510375    2.333394    6.810137    0.000000    1.000000
   155  Cl    c     4.520659    9.046643    4.513330    0.000000    1.485000
   156  Cl    c    -0.012871    9.046643    4.513330    0.000000    1.485000
   157  Cl    c     9.064803   -4.505566   -0.020369    0.000000    1.485000
   158  Cl    c    -4.557016   -4.505566   -0.020369    0.000000    1.485000
   159  Na    c     4.508523   -6.766180   -2.178957    0.000000    1.000000
   160  Na    c    -0.000736   -6.766180   -2.178957    0.000000    1.000000
   161  Na    c     9.009904    6.542606    2.170718    0.000000    1.000000
   162  Na    c    -4.502117    6.542606    2.170718    0.000000    1.000000
   163  O     c     6.775191    6.762886    6.772076    0.000000    0.183000
   164  O     c    -2.267404    6.762886    6.772076    0.000000    0.183000
   165  O     c     6.737156   -6.724945    2.250957    0.000000    0.183000
   166  O     c    -2.229369   -6.724945    2.250957    0.000000    0.183000
   167  O     c    11.234008    2.253814    2.259953    0.000000    0.183000
   168  O     c    -6.726221    2.253814    2.259953    0.000000    0.183000
   169  O     c    -2.247288    2.254949   -6.746558    0.000000    0.183000
   170  O     c     6.755075    2.254949   -6.746558    0.000000    0.183000
   171  Na    c     6.781142    6.698336   -4.506095    0.000000    1.000000
   172  Na    c    -2.273354    6.698336   -4.506095    0.000000    1.000000
   173  Na    c     6.822623   -6.650008    0.002726    0.000000    1.000000
   174  Na    c    -2.314835   -6.650008    0.002726    0.000000    1.000000
   175  Na    c    11.244733    2.296026    0.009211    0.000000    1.000000
   176  Na    c    -6.736946    2.296026    0.009211    0.000000    1.000000
   177  Na    c    -2.233200    2.331411    9.027468    0.000000    1.000000
   178  Na    c     6.740987    2.331411    9.027468    0.000000    1.000000
   179  Na    c     6.902535    8.997480    2.256725    0.000000    1.000000
   180  Na    c    -2.394748    8.997480    2.256725    0.000000    1.000000
   181  Na    c     6.727860   -4.511912    6.689327    0.000000    1.000000
   182  Na    c    -2.220073   -4.511912    6.689327    0.000000    1.000000
   183  Na    c    10.934295   -0.002678    2.205395    0.000000    1.000000
   184  Na    c    -6.426507   -0.002678    2.205395    0.000000    1.000000
   185  Na    c    -2.291630    0.004073   -6.689672    0.000000    1.000000
   186  Na    c     6.799417    0.004073   -6.689672    0.000000    1.000000
   187  Cl    c     9.043503    4.514850   -4.523452    0.000000    1.485000
   188  Cl    c    -4.535715    4.514850   -4.523452    0.000000    1.485000
   189  Na    c     9.014357   -2.305551    6.718657    0.000000    1.000000
   190  Na    c    -4.506570   -2.305551    6.718657    0.000000    1.000000
   191  Cl    c     9.076322   -4.514098    4.548614    0.000000    1.485000
   192  Cl    c    -4.568535   -4.514098    4.548614    0.000000    1.485000
   193  Na    c     9.019161    6.740763   -2.215199    0.000000    1.000000
   194  Na    c    -4.511374    6.740763   -2.215199    0.000000    1.000000
   195  O     c     2.253894    6.751071   -6.739449    0.000000    0.183000
   196  O     c     2.253894   -6.752094    6.748110    0.000000    0.183000
   197  O     c    11.223029   -2.258207    2.253018    0.000000    0.183000
   198  O     c    -6.715242   -2.258207    2.253018    0.000000    0.183000
   199  O     c    -2.249783   -2.250691   -6.755397    0.000000    0.183000
   200  O     c     6.757570   -2.250691   -6.755397    0.000000    0.183000
   201  Na    c     2.253894    6.524953    9.001941    0.000000    1.000000
   202  Na    c     2.253894   -6.825520   -4.488526    0.000000    1.000000
   203  Na    c    11.193305   -2.270000    0.001433    0.000000    1.000000
   204  Na    c    -6.685518   -2.270000    0.001433    0.000000    1.000000
   205  Na    c    -2.253751   -2.326734    9.016835    0.000000    1.000000
   206  Na    c     6.761538   -2.326734    9.016835    0.000000    1.000000
   207  Na    c     2.253894    8.998589    7.009317    0.000000    1.000000
   208  Na    c     2.253894   -4.505012   -6.718903    0.000000    1.000000
   209  Na    c    11.489109    4.494843    2.343520    0.000000    1.000000
   210  Na    c    -6.981322    4.494843    2.343520    0.000000    1.000000
   211  Na    c    -2.203785    4.506019   -6.817757    0.000000    1.000000
   212  Na    c     6.711572    4.506019   -6.817757    0.000000    1.000000
   213  O     c     6.766705   -6.764450   -2.255519    0.000000    0.183000
   214  O     c    -2.258918   -6.764450   -2.255519    0.000000    0.183000
   215  O     c    11.267184    2.252815   -2.247226    0.000000    0.183000
   216  O     c    -6.759397    2.252815   -2.247226    0.000000    0.183000
   217  Na    c     6.727209   -6.756491    4.505723    0.000000    1.000000
   218  Na    c    -2.219422   -6.756491    4.505723    0.000000    1.000000
   219  Na    c    11.210578    2.148712    4.510232    0.000000    1.000000
   220  Na    c    -6.702790    2.148712    4.510232    0.000000    1.000000
   221  Na    c     6.797270    9.013836   -2.289842    0.000000    1.000000
   222  Na    c    -2.289483    9.013836   -2.289842    0.000000    1.000000
   223  Na    c    11.209665   -0.001179   -2.242917    0.000000    1.000000
   224  Na    c    -6.701878   -0.001179   -2.242917    0.000000    1.000000
   225  Cl    c     4.516054    9.046806   -4.511677    0.000000    1.485000
   226  Cl    c    -0.008266    9.046806   -4.511677    0.000000    1.485000
   227  Cl    c     4.519732   -4.509435    9.074919    0.000000    1.485000
   228  Cl    c    -0.011945   -4.509435    9.074919    0.000000    1.485000
   229  Na    c     4.505514    6.778939   -6.722704    0.000000    1.000000
   230  Na    c     0.002274    6.778939   -6.722704    0.000000    1.000000
   231  Na    c     4.507421   -6.718004    6.753046    0.000000    1.000000
   232  Na    c     0.000366   -6.718004    6.753046    0.000000    1.000000
   233  O     c     2.253894   11.276208    2.241317    0.000000    0.183000
   234  Na    c     2.253894   11.356466   -0.009906    0.000000    1.000000
   235  Na    c     2.253894   -9.035978    2.076082    0.000000    1.000000
   236  O     c     2.253894    2.269706   11.259477    0.000000    0.183000
   237  O     c    11.265487   -2.253647   -2.252624    0.000000    0.183000
   238  O     c    -6.757700   -2.253647   -2.252624    0.000000    0.183000
   239  Na    c     2.253894    2.172953   -8.991717    0.000000    1.000000
   240  Na    c    11.264526   -2.207061    4.505619    0.000000    1.000000
   241  Na    c    -6.756738   -2.207061    4.505619    0.000000    1.000000
   242  Na    c     2.253894   -0.003148   11.113887    0.000000    1.000000
   243  Na    c    11.281132    4.506726   -2.278292    0.000000    1.000000
   244  Na    c    -6.773345    4.506726   -2.278292    0.000000    1.000000
   245  Cl    c     9.042190   -4.510316   -4.518735    0.000000    1.485000
   246  Cl    c    -4.534402   -4.510316   -4.518735    0.000000    1.485000
   247  Na    c     9.018996    6.717440    6.836719    0.000000    1.000000
   248  Na    c    -4.511209    6.717440    6.836719    0.000000    1.000000
   249  Cl    c     4.505488    0.006479   -9.054340    0.000000    1.485000
   250  Cl    c     0.002299    0.006479   -9.054340    0.000000    1.485000
   251  Cl    c     4.487929   -9.080447    0.014311    0.000000    1.485000
   252  Cl    c     0.019859   -9.080447    0.014311    0.000000    1.485000
   253  Cl    c     9.054111    0.013467    9.036428    0.000000    1.485000
   254  Cl    c    -4.546324    0.013467    9.036428    0.000000    1.485000
   255  Cl    c     9.012898    9.039968   -0.009232    0.000000    1.485000
   256  Cl    c    -4.505111    9.039968   -0.009232    0.000000    1.485000
   257  Na    c     4.505388    2.185183   11.254361    0.000000    1.000000
   258  Na    c     0.002400    2.185183   11.254361    0.000000    1.000000
   259  Na    c     4.515888   11.236104    2.282405    0.000000    1.000000
   260  Na    c    -0.008101   11.236104    2.282405    0.000000    1.000000
   261  Na    c     9.009579    2.277299   -6.747927    0.000000    1.000000
   262  Na    c    -4.501791    2.277299   -6.747927    0.000000    1.000000
   263  Na    c     9.001066   -6.584743    2.278663    0.000000    1.000000
   264  Na    c    -4.493278   -6.584743    2.278663    0.000000    1.000000
   265  O     c     6.761778    6.760456   -6.762892    0.000000    0.183000
   266  O     c    -2.253991    6.760456   -6.762892    0.000000    0.183000
   267  O     c     6.768609   -6.766293    6.767983    0.000000    0.183000
   268  O     c    -2.260822   -6.766293    6.767983    0.000000    0.183000
   269  O     c    11.271945    2.247867    6.764002    0.000000    0.183000
   270  O     c    -6.764158    2.247867    6.764002    0.000000    0.183000
   271  O     c    11.272515    6.743953    2.256796    0.000000    0.183000
[...]
    235 y          4.507787      4.644408     0.136621    Cartesian    3.03
    235 z          4.507787      4.615023     0.107236    Cartesian    2.38
    236 x          2.253894      2.253894     0.000000    Cartesian    0.00
    236 y          2.253894      2.231126    -0.022768    Cartesian   -1.01
    236 z          6.761681      6.781177     0.019496    Cartesian    0.29
    237 x          2.253894      2.253894     0.000000    Cartesian    0.00
    237 y          6.761681      6.822734     0.061053    Cartesian    0.90
    237 z          2.253894      2.302184     0.048291    Cartesian    2.14
    238 x         -2.253894     -2.250638     0.003256    Cartesian   -0.14
    238 y          2.253894      2.265781     0.011887    Cartesian    0.53
    238 z         -2.253894     -2.234804     0.019089    Cartesian   -0.85
    239 x         -2.253894     -2.205036     0.048858    Cartesian   -2.17
    239 y         -2.253894     -2.226181     0.027713    Cartesian   -1.23
    239 z          2.253894      2.262480     0.008587    Cartesian    0.38
    240 x          4.507787      4.486639    -0.021148    Cartesian   -0.47
    240 y          0.000000     -0.026875    -0.026875    Cartesian    0.00
    240 z         -4.507787     -4.529715    -0.021928    Cartesian    0.49
    241 x          4.507787      4.590024     0.082237    Cartesian    1.82
    241 y         -4.507787     -4.605710    -0.097923    Cartesian    2.17
    241 z          0.000000     -0.131098    -0.131098    Cartesian    0.00
    242 x          2.253894      2.253894     0.000000    Cartesian    0.00
    242 y          6.761681      6.721093    -0.040588    Cartesian   -0.60
    242 z         -2.253894     -2.213514     0.040379    Cartesian   -1.79
    243 x          2.253894      2.253894     0.000000    Cartesian    0.00
    243 y         -2.253894     -2.226060     0.027833    Cartesian   -1.23
    243 z          6.761681      6.761007    -0.000674    Cartesian   -0.01
    244 x          6.761681      6.757511    -0.004170    Cartesian   -0.06
    244 y         -2.253894     -2.257402    -0.003509    Cartesian    0.16
    244 z         -2.253894     -2.257382    -0.003489    Cartesian    0.15
    245 x          4.507787      4.526280     0.018493    Cartesian    0.41
    245 y          4.507787      4.506322    -0.001465    Cartesian   -0.03
    245 z         -4.507787     -4.543062    -0.035275    Cartesian    0.78
    246 x          4.507787      4.594658     0.086871    Cartesian    1.93
    246 y         -4.507787     -4.624930    -0.117143    Cartesian    2.60
    246 z          4.507787      4.631169     0.123382    Cartesian    2.74
    247 x          9.015574      9.024318     0.008743    Cartesian    0.10
    247 y          0.000000      0.013110     0.013110    Cartesian    0.00
    247 z          0.000000     -0.025751    -0.025751    Cartesian    0.00
    248 x         -2.253894     -2.263053    -0.009160    Cartesian    0.41
    248 y          2.253894      2.263363     0.009470    Cartesian    0.42
    248 z          6.761681      6.784261     0.022580    Cartesian    0.33
    249 x          6.761681      6.757266    -0.004415    Cartesian   -0.07
    249 y          6.761681      6.740957    -0.020724    Cartesian   -0.31
    249 z          2.253894      2.257754     0.003861    Cartesian    0.17
    250 x          9.015574      9.035350     0.019775    Cartesian    0.22
    250 y          0.000000     -0.000700    -0.000700    Cartesian    0.00
    250 z          4.507787      4.533464     0.025677    Cartesian    0.57
    251 x          9.015574      9.073962     0.058388    Cartesian    0.65
    251 y          4.507787      4.508619     0.000832    Cartesian    0.02
    251 z          0.000000     -0.031814    -0.031814    Cartesian    0.00
    252 x          2.253894      2.253894     0.000000    Cartesian    0.00
    252 y          6.761681      6.750000    -0.011681    Cartesian   -0.17
    252 z          6.761681      6.753502    -0.008179    Cartesian   -0.12
    253 x         -2.253894     -2.258856    -0.004962    Cartesian    0.22
    253 y         -2.253894     -2.260527    -0.006634    Cartesian    0.29
    253 z          6.761681      6.771365     0.009684    Cartesian    0.14
    254 x          2.253894      2.253894     0.000000    Cartesian    0.00
    254 y          2.253894      2.253941     0.000047    Cartesian    0.00
    254 z         -6.761681     -6.712329     0.049352    Cartesian   -0.73
    255 x          2.253894      2.253894     0.000000    Cartesian    0.00
    255 y         -6.761681     -6.790608    -0.028927    Cartesian    0.43
    255 z          2.253894      2.268612     0.014718    Cartesian    0.65
    256 x          6.761681      6.769361     0.007680    Cartesian    0.11
    256 y          6.761681      6.769736     0.008055    Cartesian    0.12
    256 z         -2.253894     -2.257709    -0.003815    Cartesian    0.17
    257 x          4.507787      4.508506     0.000719    Cartesian    0.02
    257 y         -4.507787     -4.496322     0.011465    Cartesian   -0.25
    257 z         -4.507787     -4.529069    -0.021282    Cartesian    0.47
    258 x          4.507787      4.549932     0.042144    Cartesian    0.93
    258 y          0.000000     -0.001656    -0.001656    Cartesian    0.00
    258 z          9.015574      9.063761     0.048186    Cartesian    0.53
    259 x          4.507787      4.486383    -0.021404    Cartesian   -0.47
    259 y          9.015574      9.030461     0.014886    Cartesian    0.17
    259 z          0.000000      0.027581     0.027581    Cartesian    0.00
    260 x          9.015574      9.066711     0.051136    Cartesian    0.57
    260 y          4.507787      4.512906     0.005119    Cartesian    0.11
    260 z          4.507787      4.541761     0.033974    Cartesian    0.75
    261 x          2.253894      2.253894     0.000000    Cartesian    0.00
    261 y         -2.253894     -2.247749     0.006144    Cartesian   -0.27
    261 z         -6.761681     -6.743104     0.018576    Cartesian   -0.27
    262 x          2.253894      2.253894     0.000000    Cartesian    0.00
    262 y         -6.761681     -6.753918     0.007763    Cartesian   -0.11
    262 z         -2.253894     -2.231351     0.022542    Cartesian   -1.00
    263 x          4.507787      4.533749     0.025962    Cartesian    0.58
    263 y          4.507787      4.524623     0.016836    Cartesian    0.37
    263 z          9.015574      9.089932     0.074357    Cartesian    0.82
    264 x          9.015574      9.041721     0.026147    Cartesian    0.29
    264 y          0.000000     -0.012019    -0.012019    Cartesian    0.00
    264 z         -4.507787     -4.525105    -0.017317    Cartesian    0.38
    265 x          4.507787      4.515114     0.007327    Cartesian    0.16
    265 y          9.015574      9.044107     0.028533    Cartesian    0.32
    265 z          4.507787      4.511051     0.003264    Cartesian    0.07
    266 x          9.015574      9.069907     0.054332    Cartesian    0.60
    266 y         -4.507787     -4.503996     0.003791    Cartesian   -0.08
    266 z          0.000000     -0.018248    -0.018248    Cartesian    0.00
    267 x          6.761681      6.775209     0.013528    Cartesian    0.20
    267 y          6.761681      6.762869     0.001189    Cartesian    0.02
    267 z          6.761681      6.772085     0.010404    Cartesian    0.15
    268 x          6.761681      6.737104    -0.024576    Cartesian   -0.36
    268 y         -6.761681     -6.724983     0.036697    Cartesian   -0.54
    268 z          2.253894      2.250956    -0.002938    Cartesian   -0.13
    269 x         11.269468     11.234012    -0.035456    Cartesian   -0.31
    269 y          2.253894      2.253859    -0.000034    Cartesian   -0.00
    269 z          2.253894      2.259954     0.006060    Cartesian    0.27
    270 x         -2.253894     -2.247281     0.006612    Cartesian   -0.29
    270 y          2.253894      2.254955     0.001062    Cartesian    0.05
    270 z         -6.761681     -6.746559     0.015122    Cartesian   -0.22
    271 x          9.015574      9.046508     0.030933    Cartesian    0.34
    271 y          4.507787      4.515451     0.007664    Cartesian    0.17
    271 z         -4.507787     -4.525847    -0.018060    Cartesian    0.40
    272 x          9.015574      9.082403     0.066828    Cartesian    0.74
    272 y         -4.507787     -4.511370    -0.003583    Cartesian    0.08
    272 z          4.507787      4.547193     0.039406    Cartesian    0.87
    273 x          2.253894      2.253894     0.000000    Cartesian    0.00
    273 y          6.761681      6.751058    -0.010623    Cartesian   -0.16
    273 z         -6.761681     -6.739467     0.022214    Cartesian   -0.33
    274 x          2.253894      2.253894     0.000000    Cartesian    0.00
    274 y         -6.761681     -6.752153     0.009527    Cartesian   -0.14
    274 z          6.761681      6.748081    -0.013600    Cartesian   -0.20
    275 x         11.269468     11.223036    -0.046432    Cartesian   -0.41
    275 y         -2.253894     -2.258257    -0.004363    Cartesian    0.19
    275 z          2.253894      2.253015    -0.000879    Cartesian   -0.04
    276 x         -2.253894     -2.249779     0.004115    Cartesian   -0.18
    276 y         -2.253894     -2.250691     0.003202    Cartesian   -0.14
    276 z         -6.761681     -6.755386     0.006295    Cartesian   -0.09
    277 x          6.761681      6.766710     0.005029    Cartesian    0.07
    277 y         -6.761681     -6.764444    -0.002763    Cartesian    0.04
    277 z         -2.253894     -2.255522    -0.001628    Cartesian    0.07
    278 x         11.269468     11.267182    -0.002286    Cartesian   -0.02
    278 y          2.253894      2.252822    -0.001071    Cartesian   -0.05
    278 z         -2.253894     -2.247226     0.006667    Cartesian   -0.30
    279 x          4.507787      4.516474     0.008687    Cartesian    0.19
    279 y          9.015574      9.052270     0.036695    Cartesian    0.41
    279 z         -4.507787     -4.513744    -0.005957    Cartesian    0.13
    280 x          4.507787      4.515874     0.008087    Cartesian    0.18
    280 y         -4.507787     -4.506548     0.001240    Cartesian   -0.03
    280 z          9.015574      9.080886     0.065312    Cartesian    0.72
    281 x          2.253894      2.253894     0.000000    Cartesian    0.00
    281 y         11.269468     11.276174     0.006706    Cartesian    0.06
    281 z          2.253894      2.241269    -0.012624    Cartesian   -0.56
    282 x          2.253894      2.253894     0.000000    Cartesian    0.00
    282 y          2.253894      2.269771     0.015878    Cartesian    0.70
    282 z         11.269468     11.259499    -0.009969    Cartesian   -0.09
    283 x         11.269468     11.265472    -0.003996    Cartesian   -0.04
    283 y         -2.253894     -2.253656     0.000237    Cartesian   -0.01
    283 z         -2.253894     -2.252630     0.001263    Cartesian   -0.06
    284 x          9.015574      9.046056     0.030482    Cartesian    0.34
    284 y         -4.507787     -4.509642    -0.001854    Cartesian    0.04
    284 z         -4.507787     -4.519127    -0.011339    Cartesian    0.25
    285 x          4.507787      4.505204    -0.002583    Cartesian   -0.06
    285 y          0.000000      0.007546     0.007546    Cartesian    0.00
    285 z         -9.015574     -9.060187    -0.044612    Cartesian    0.49
    286 x          4.507787      4.481504    -0.026283    Cartesian   -0.58
    286 y         -9.015574     -9.085988    -0.070413    Cartesian    0.78
    286 z          0.000000      0.017694     0.017694    Cartesian    0.00
    287 x          9.015574      9.058461     0.042887    Cartesian    0.48
    287 y          0.000000      0.014989     0.014989    Cartesian    0.00
    287 z          9.015574      9.037041     0.021467    Cartesian    0.24
    288 x          9.015574      9.011145    -0.004430    Cartesian   -0.05
    288 y          9.015574      9.044359     0.028785    Cartesian    0.32
    288 z          0.000000     -0.009654    -0.009654    Cartesian    0.00
    289 x          6.761681      6.761779     0.000098    Cartesian    0.00
    289 y          6.761681      6.760446    -0.001234    Cartesian   -0.02
    289 z         -6.761681     -6.762897    -0.001216    Cartesian    0.02
    290 x          6.761681      6.768614     0.006933    Cartesian    0.10
    290 y         -6.761681     -6.766289    -0.004608    Cartesian    0.07
    290 z          6.761681      6.767982     0.006301    Cartesian    0.09
    291 x         11.269468     11.271935     0.002467    Cartesian    0.02
    291 y          2.253894      2.247857    -0.006036    Cartesian   -0.27
    291 z          6.761681      6.764014     0.002333    Cartesian    0.03
    292 x         11.269468     11.272567     0.003099    Cartesian    0.03
    292 y          6.761681      6.743919    -0.017762    Cartesian   -0.26
    292 z          2.253894      2.256798     0.002904    Cartesian    0.13
    293 x          2.253894      2.253894     0.000000    Cartesian    0.00
    293 y         11.269468     11.264517    -0.004952    Cartesian   -0.04
    293 z         -2.253894     -2.253051     0.000843    Cartesian   -0.04
    294 x          2.253894      2.253894     0.000000    Cartesian    0.00
    294 y         -2.253894     -2.272329    -0.018436    Cartesian    0.82
    294 z         11.269468     11.254469    -0.014999    Cartesian   -0.13
    295 x          4.507787      4.520668     0.012881    Cartesian    0.29
    295 y          4.507787      4.517017     0.009229    Cartesian    0.20
    295 z         -9.015574     -9.024549    -0.008975    Cartesian    0.10
    296 x          4.507787      4.519155     0.011368    Cartesian    0.25
    296 y         -9.015574     -9.023984    -0.008410    Cartesian    0.09
    296 z          4.507787      4.500773    -0.007014    Cartesian   -0.16
    297 x          9.015574      9.035025     0.019451    Cartesian    0.22
    297 y          9.015574      9.059308     0.043733    Cartesian    0.49
    297 z          4.507787      4.520921     0.013134    Cartesian    0.29
    298 x          9.015574      9.029838     0.014263    Cartesian    0.16
    298 y          4.507787      4.518164     0.010377    Cartesian    0.23
    298 z          9.015574      9.027879     0.012304    Cartesian    0.14
    299 x         11.269468     11.272703     0.003235    Cartesian    0.03
    299 y         -2.253894     -2.251165     0.002729    Cartesian   -0.12
    299 z          6.761681      6.764789     0.003108    Cartesian    0.05
    300 x         -2.253894     -2.264410    -0.010517    Cartesian    0.47
    300 y         11.269468     11.261227    -0.008241    Cartesian   -0.07
    300 z          2.253894      2.257088     0.003195    Cartesian    0.14
    301 x          2.253894      2.253894     0.000000    Cartesian    0.00
    301 y         -6.761681     -6.763991    -0.002310    Cartesian    0.03
    301 z         -6.761681     -6.754675     0.007006    Cartesian   -0.10
    302 x          6.761681      6.763355     0.001674    Cartesian    0.02
    302 y          2.253894      2.254215     0.000321    Cartesian    0.01
    302 z         11.269468     11.276938     0.007470    Cartesian    0.07
    303 x         11.269468     11.275980     0.006512    Cartesian    0.06
    303 y          6.761681      6.762735     0.001054    Cartesian    0.02
    303 z         -2.253894     -2.255792    -0.001898    Cartesian    0.08
    304 x         13.523362     13.601848     0.078486    Cartesian    0.58
    304 y          0.000000      0.011402     0.011402    Cartesian    0.00
    304 z          0.000000      0.018351     0.018351    Cartesian    0.00
    305 x          4.507787      4.503969    -0.003818    Cartesian   -0.08
    305 y          9.015574      9.050353     0.034778    Cartesian    0.39
    305 z          9.015574      9.041902     0.026327    Cartesian    0.29
    306 x          2.253894      2.253894     0.000000    Cartesian    0.00
    306 y          6.761681      6.749864    -0.011816    Cartesian   -0.17
    306 z         11.269468     11.272530     0.003062    Cartesian    0.03
    307 x          2.253894      2.253894     0.000000    Cartesian    0.00
    307 y         11.269468     11.252808    -0.016660    Cartesian   -0.15
    307 z          6.761681      6.773597     0.011916    Cartesian    0.18
    308 x         -2.253894     -2.254779    -0.000885    Cartesian    0.04
    308 y         11.269468     11.270630     0.001162    Cartesian    0.01
    308 z         -2.253894     -2.257737    -0.003844    Cartesian    0.17
    309 x          6.761681      6.769539     0.007858    Cartesian    0.12
    309 y         -2.253894     -2.256041    -0.002148    Cartesian    0.10
    309 z         11.269468     11.271912     0.002444    Cartesian    0.02
    310 x         13.523362     13.590885     0.067524    Cartesian    0.50
    310 y          0.000000     -0.004893    -0.004893    Cartesian    0.00
    310 z          4.507787      4.486196    -0.021592    Cartesian   -0.48
    311 x         13.523362     13.533344     0.009982    Cartesian    0.07
    311 y          4.507787      4.546988     0.039201    Cartesian    0.87
    311 z          0.000000      0.010914     0.010914    Cartesian    0.00
    312 x          4.507787      4.523254     0.015467    Cartesian    0.34
    312 y         -4.507787     -4.523835    -0.016048    Cartesian    0.36
    312 z         -9.015574     -9.037381    -0.021807    Cartesian    0.24
    313 x          4.507787      4.521712     0.013925    Cartesian    0.31
    313 y         -9.015574     -9.029426    -0.013852    Cartesian    0.15
    313 z         -4.507787     -4.538127    -0.030339    Cartesian    0.67
    314 x          9.015574      9.038997     0.023423    Cartesian    0.26
    314 y          9.015574      9.048595     0.033021    Cartesian    0.37
    314 z         -4.507787     -4.521906    -0.014119    Cartesian    0.31
    315 x          9.015574      9.043185     0.027610    Cartesian    0.31
    315 y         -4.507787     -4.510473    -0.002686    Cartesian    0.06
    315 z          9.015574      9.050870     0.035296    Cartesian    0.39
--------------------------------------------------------------------------------


  Time to end of optimisation  =       70.3615 seconds


  Peak dynamic memory used =      91.07 MB 


  Timing analysis for GULP :

--------------------------------------------------------------------------------
  Task / Subroutine                                          Time (Seconds)
--------------------------------------------------------------------------------
  Calculation of reciprocal space energy and derivatives          0.0006
  Calculation of reciprocal space energy using symmetry           0.0009
  Calculation of real space energy and derivatives                0.0032
  Calculation of real space energy using symmetry                 0.0081
  Calculation for region 1 energy and derivatives (2-b)          37.9630
  Calculation for region 2a energy                               28.7454
  Calculation for region 2b energy                                0.0111
  Calculation and manipulation of Hessian matrix                  0.1430
  Calculation of matrix inversion                                 3.2154
  Symmetry generation of equivalent positions                     0.0039
--------------------------------------------------------------------------------
  Total CPU time                                                 70.3616
--------------------------------------------------------------------------------


  Dump file written as Na3OCl.grs


  Job Finished at 12:10.35 13th December   2020                               

