ITEM: TIMESTEP
100000
ITEM: NUMBER OF ATOMS
1
ITEM: BOX BOUNDS pp pp pp
-0.1025849084 45.1125849084
-0.0617261856 22.5667261856
-0.0203242698 22.5253242698
ITEM: ATOMS type q x y z
2 3.0 11.2204 11.7452 13.2431
ITEM: TIMESTEP
101000
ITEM: NUMBER OF ATOMS
1
ITEM: BOX BOUNDS pp pp pp
-0.1025849084 45.1125849084
-0.0617261856 22.5667261856
-0.0203242698 22.5253242698
ITEM: ATOMS type q x y z
2 3.0 11.3644 10.868 13.4539
ITEM: TIMESTEP
102000
ITEM: NUMBER OF ATOMS
1
ITEM: BOX BOUNDS pp pp pp
-0.1025849084 45.1125849084
-0.0617261856 22.5667261856
-0.0203242698 22.5253242698
ITEM: ATOMS type q x y z
2 3.0 11.096 10.9717 13.4136
ITEM: TIMESTEP
103000
ITEM: NUMBER OF ATOMS
1
ITEM: BOX BOUNDS pp pp pp
-0.1025849084 45.1125849084
-0.0617261856 22.5667261856
-0.0203242698 22.5253242698
ITEM: ATOMS type q x y z
2 3.0 10.9945 11.167 13.4031
ITEM: TIMESTEP
104000
ITEM: NUMBER OF ATOMS
1
ITEM: BOX BOUNDS pp pp pp
-0.1025849084 45.1125849084
-0.0617261856 22.5667261856
-0.0203242698 22.5253242698
ITEM: ATOMS type q x y z
2 3.0 10.9757 11.5012 13.385
ITEM: TIMESTEP
105000
ITEM: NUMBER OF ATOMS
1
ITEM: BOX BOUNDS pp pp pp
-0.1025849084 45.1125849084
-0.0617261856 22.5667261856
-0.0203242698 22.5253242698
ITEM: ATOMS type q x y z
2 3.0 10.9159 11.1511 13.8112
ITEM: TIMESTEP
106000
ITEM: NUMBER OF ATOMS
1
ITEM: BOX BOUNDS pp pp pp
-0.1025849084 45.1125849084
-0.0617261856 22.5667261856
-0.0203242698 22.5253242698
ITEM: ATOMS type q x y z
2 3.0 11.1481 10.8194 13.3545
ITEM: TIMESTEP
107000
ITEM: NUMBER OF ATOMS
1
ITEM: BOX BOUNDS pp pp pp
-0.1025849084 45.1125849084
-0.0617261856 22.5667261856
-0.0203242698 22.5253242698
ITEM: ATOMS type q x y z
2 3.0 11.3621 11.2404 13.3324
ITEM: TIMESTEP
108000
ITEM: NUMBER OF ATOMS
1
ITEM: BOX BOUNDS pp pp pp
-0.1025849084 45.1125849084
-0.0617261856 22.5667261856
-0.0203242698 22.5253242698
ITEM: ATOMS type q x y z
2 3.0 10.9935 11.4903 13.705
ITEM: TIMESTEP
109000
ITEM: NUMBER OF ATOMS
1
ITEM: BOX BOUNDS pp pp pp
-0.1025849084 45.1125849084
-0.0617261856 22.5667261856
-0.0203242698 22.5253242698
ITEM: ATOMS type q x y z
2 3.0 10.9429 10.9002 13.5639
ITEM: TIMESTEP
110000
ITEM: NUMBER OF ATOMS
1
ITEM: BOX BOUNDS pp pp pp
-0.1025849084 45.1125849084
-0.0617261856 22.5667261856
-0.0203242698 22.5253242698
ITEM: ATOMS type q x y z
2 3.0 11.2963 11.7431 13.0675
ITEM: TIMESTEP
111000
ITEM: NUMBER OF ATOMS
1
ITEM: BOX BOUNDS pp pp pp
-0.1025849084 45.1125849084
-0.0617261856 22.5667261856
-0.0203242698 22.5253242698
ITEM: ATOMS type q x y z
2 3.0 11.1494 11.4555 13.5619
ITEM: TIMESTEP
112000
ITEM: NUMBER OF ATOMS
1
ITEM: BOX BOUNDS pp pp pp
-0.1025849084 45.1125849084
-0.0617261856 22.5667261856
-0.0203242698 22.5253242698
ITEM: ATOMS type q x y z
2 3.0 11.5184 11.0808 13.5227
ITEM: TIMESTEP
113000
ITEM: NUMBER OF ATOMS
1
ITEM: BOX BOUNDS pp pp pp
-0.1025849084 45.1125849084
-0.0617261856 22.5667261856
-0.0203242698 22.5253242698
ITEM: ATOMS type q x y z
2 3.0 11.2806 11.166 13.595
ITEM: TIMESTEP
114000
ITEM: NUMBER OF ATOMS
1
ITEM: BOX BOUNDS pp pp pp
-0.1025849084 45.1125849084
-0.0617261856 22.5667261856
-0.0203242698 22.5253242698
ITEM: ATOMS type q x y z
2 3.0 11.3933 11.3795 13.5431
ITEM: TIMESTEP
115000
ITEM: NUMBER OF ATOMS
1
ITEM: BOX BOUNDS pp pp pp
-0.1025849084 45.1125849084
-0.0617261856 22.5667261856
-0.0203242698 22.5253242698
ITEM: ATOMS type q x y z
2 3.0 10.6654 10.9934 13.6561
ITEM: TIMESTEP
116000
ITEM: NUMBER OF ATOMS
1
ITEM: BOX BOUNDS pp pp pp
-0.1025849084 45.1125849084
-0.0617261856 22.5667261856
-0.0203242698 22.5253242698
ITEM: ATOMS type q x y z
2 3.0 10.9147 11.3515 13.2035
ITEM: TIMESTEP
117000
ITEM: NUMBER OF ATOMS
1
ITEM: BOX BOUNDS pp pp pp
-0.1025849084 45.1125849084
-0.0617261856 22.5667261856
-0.0203242698 22.5253242698
ITEM: ATOMS type q x y z
2 3.0 10.9395 11.231 13.3302
ITEM: TIMESTEP
118000
ITEM: NUMBER OF ATOMS
1
ITEM: BOX BOUNDS pp pp pp
-0.1025849084 45.1125849084
-0.0617261856 22.5667261856
-0.0203242698 22.5253242698
ITEM: ATOMS type q x y z
2 3.0 10.9973 11.2929 13.355
ITEM: TIMESTEP
119000
ITEM: NUMBER OF ATOMS
1
ITEM: BOX BOUNDS pp pp pp
-0.1025849084 45.1125849084
-0.0617261856 22.5667261856
-0.0203242698 22.5253242698
ITEM: ATOMS type q x y z
2 3.0 10.937 11.602 13.7721
ITEM: TIMESTEP
120000
ITEM: NUMBER OF ATOMS
1
ITEM: BOX BOUNDS pp pp pp
-0.1025849084 45.1125849084
-0.0617261856 22.5667261856
-0.0203242698 22.5253242698
ITEM: ATOMS type q x y z
2 3.0 10.9778 11.2435 13.2294
ITEM: TIMESTEP
121000
ITEM: NUMBER OF ATOMS
1
ITEM: BOX BOUNDS pp pp pp
-0.1025849084 45.1125849084
-0.0617261856 22.5667261856
-0.0203242698 22.5253242698
ITEM: ATOMS type q x y z
2 3.0 11.5239 11.5165 13.4488
ITEM: TIMESTEP
122000
ITEM: NUMBER OF ATOMS
1
ITEM: BOX BOUNDS pp pp pp
-0.1025849084 45.1125849084
-0.0617261856 22.5667261856
-0.0203242698 22.5253242698
ITEM: ATOMS type q x y z
2 3.0 11.2735 11.3428 13.5054
ITEM: TIMESTEP
123000
ITEM: NUMBER OF ATOMS
1
ITEM: BOX BOUNDS pp pp pp
-0.1025849084 45.1125849084
-0.0617261856 22.5667261856
-0.0203242698 22.5253242698
ITEM: ATOMS type q x y z
2 3.0 10.7061 11.1929 13.3215
ITEM: TIMESTEP
124000
ITEM: NUMBER OF ATOMS
1
ITEM: BOX BOUNDS pp pp pp
-0.1025849084 45.1125849084
-0.0617261856 22.5667261856
-0.0203242698 22.5253242698
ITEM: ATOMS type q x y z
2 3.0 11.2897 11.6264 13.3744
ITEM: TIMESTEP
125000
ITEM: NUMBER OF ATOMS
1
ITEM: BOX BOUNDS pp pp pp
-0.1025849084 45.1125849084
-0.0617261856 22.5667261856
-0.0203242698 22.5253242698
ITEM: ATOMS type q x y z
2 3.0 11.0252 11.1939 13.4256
ITEM: TIMESTEP
126000
ITEM: NUMBER OF ATOMS
1
ITEM: BOX BOUNDS pp pp pp
-0.1025849084 45.1125849084
-0.0617261856 22.5667261856
-0.0203242698 22.5253242698
ITEM: ATOMS type q x y z
2 3.0 10.9286 10.9554 13.5006
ITEM: TIMESTEP
127000
ITEM: NUMBER OF ATOMS
1
ITEM: BOX BOUNDS pp pp pp
-0.1025849084 45.1125849084
-0.0617261856 22.5667261856
-0.0203242698 22.5253242698
ITEM: ATOMS type q x y z
2 3.0 11.3339 11.6462 13.3842
ITEM: TIMESTEP
128000
ITEM: NUMBER OF ATOMS
1
ITEM: BOX BOUNDS pp pp pp
-0.1025849084 45.1125849084
-0.0617261856 22.5667261856
-0.0203242698 22.5253242698
ITEM: ATOMS type q x y z
2 3.0 11.2206 11.5194 13.3696
ITEM: TIMESTEP
129000
ITEM: NUMBER OF ATOMS
1
ITEM: BOX BOUNDS pp pp pp
-0.1025849084 45.1125849084
-0.0617261856 22.5667261856
-0.0203242698 22.5253242698
ITEM: ATOMS type q x y z
2 3.0 11.4569 11.4765 13.763
ITEM: TIMESTEP
130000
ITEM: NUMBER OF ATOMS
1
ITEM: BOX BOUNDS pp pp pp
-0.1025849084 45.1125849084
-0.0617261856 22.5667261856
-0.0203242698 22.5253242698
ITEM: ATOMS type q x y z
2 3.0 11.3534 11.1788 13.2883
ITEM: TIMESTEP
131000
ITEM: NUMBER OF ATOMS
1
ITEM: BOX BOUNDS pp pp pp
-0.1025849084 45.1125849084
-0.0617261856 22.5667261856
-0.0203242698 22.5253242698
ITEM: ATOMS type q x y z
2 3.0 10.5278 11.4397 13.4412
ITEM: TIMESTEP
132000
ITEM: NUMBER OF ATOMS
1
ITEM: BOX BOUNDS pp pp pp
-0.1025849084 45.1125849084
-0.0617261856 22.5667261856
-0.0203242698 22.5253242698
ITEM: ATOMS type q x y z
2 3.0 11.0942 10.9654 13.7436
ITEM: TIMESTEP
133000
ITEM: NUMBER OF ATOMS
1
ITEM: BOX BOUNDS pp pp pp
-0.1025849084 45.1125849084
-0.0617261856 22.5667261856
-0.0203242698 22.5253242698
ITEM: ATOMS type q x y z
2 3.0 11.574 11.0222 13.5144
ITEM: TIMESTEP
134000
ITEM: NUMBER OF ATOMS
1
ITEM: BOX BOUNDS pp pp pp
-0.1025849084 45.1125849084
-0.0617261856 22.5667261856
-0.0203242698 22.5253242698
ITEM: ATOMS type q x y z
2 3.0 11.182 11.3882 13.4829
ITEM: TIMESTEP
135000
ITEM: NUMBER OF ATOMS
1
ITEM: BOX BOUNDS pp pp pp
-0.1025849084 45.1125849084
-0.0617261856 22.5667261856
-0.0203242698 22.5253242698
ITEM: ATOMS type q x y z
2 3.0 11.1513 10.9688 13.6671
ITEM: TIMESTEP
136000
ITEM: NUMBER OF ATOMS
1
ITEM: BOX BOUNDS pp pp pp
-0.1025849084 45.1125849084
-0.0617261856 22.5667261856
-0.0203242698 22.5253242698
ITEM: ATOMS type q x y z
2 3.0 11.1664 11.0385 13.4353
ITEM: TIMESTEP
137000
ITEM: NUMBER OF ATOMS
1
ITEM: BOX BOUNDS pp pp pp
-0.1025849084 45.1125849084
-0.0617261856 22.5667261856
-0.0203242698 22.5253242698
ITEM: ATOMS type q x y z
2 3.0 11.1602 11.6729 13.3422
ITEM: TIMESTEP
138000
ITEM: NUMBER OF ATOMS
1
ITEM: BOX BOUNDS pp pp pp
-0.1025849084 45.1125849084
-0.0617261856 22.5667261856
-0.0203242698 22.5253242698
ITEM: ATOMS type q x y z
2 3.0 11.7207 10.9015 13.6111
ITEM: TIMESTEP
139000
ITEM: NUMBER OF ATOMS
1
ITEM: BOX BOUNDS pp pp pp
-0.1025849084 45.1125849084
-0.0617261856 22.5667261856
-0.0203242698 22.5253242698
ITEM: ATOMS type q x y z
2 3.0 11.3019 11.6744 13.2853
ITEM: TIMESTEP
140000
ITEM: NUMBER OF ATOMS
1
ITEM: BOX BOUNDS pp pp pp
-0.1025849084 45.1125849084
-0.0617261856 22.5667261856
-0.0203242698 22.5253242698
ITEM: ATOMS type q x y z
2 3.0 11.4782 11.4167 13.7787
ITEM: TIMESTEP
141000
ITEM: NUMBER OF ATOMS
1
ITEM: BOX BOUNDS pp pp pp
-0.1025849084 45.1125849084
-0.0617261856 22.5667261856
-0.0203242698 22.5253242698
ITEM: ATOMS type q x y z
2 3.0 11.4923 11.1442 13.442
ITEM: TIMESTEP
142000
ITEM: NUMBER OF ATOMS
1
ITEM: BOX BOUNDS pp pp pp
-0.1025849084 45.1125849084
-0.0617261856 22.5667261856
-0.0203242698 22.5253242698
ITEM: ATOMS type q x y z
2 3.0 11.4594 11.219 13.2568
ITEM: TIMESTEP
143000
ITEM: NUMBER OF ATOMS
1
ITEM: BOX BOUNDS pp pp pp
-0.1025849084 45.1125849084
-0.0617261856 22.5667261856
-0.0203242698 22.5253242698
ITEM: ATOMS type q x y z
2 3.0 10.964 11.3646 13.6453
ITEM: TIMESTEP
144000
ITEM: NUMBER OF ATOMS
1
ITEM: BOX BOUNDS pp pp pp
-0.1025849084 45.1125849084
-0.0617261856 22.5667261856
-0.0203242698 22.5253242698
ITEM: ATOMS type q x y z
2 3.0 11.1406 11.0649 13.1314
ITEM: TIMESTEP
145000
ITEM: NUMBER OF ATOMS
1
ITEM: BOX BOUNDS pp pp pp
-0.1025849084 45.1125849084
-0.0617261856 22.5667261856
-0.0203242698 22.5253242698
ITEM: ATOMS type q x y z
2 3.0 10.9898 11.2568 13.3948
ITEM: TIMESTEP
146000
ITEM: NUMBER OF ATOMS
1
ITEM: BOX BOUNDS pp pp pp
-0.1025849084 45.1125849084
-0.0617261856 22.5667261856
-0.0203242698 22.5253242698
ITEM: ATOMS type q x y z
2 3.0 11.152 11.426 13.3725
ITEM: TIMESTEP
147000
ITEM: NUMBER OF ATOMS
1
ITEM: BOX BOUNDS pp pp pp
-0.1025849084 45.1125849084
-0.0617261856 22.5667261856
-0.0203242698 22.5253242698
ITEM: ATOMS type q x y z
2 3.0 11.6343 11.6746 13.2209
ITEM: TIMESTEP
148000
ITEM: NUMBER OF ATOMS
1
ITEM: BOX BOUNDS pp pp pp
-0.1025849084 45.1125849084
-0.0617261856 22.5667261856
-0.0203242698 22.5253242698
ITEM: ATOMS type q x y z
2 3.0 11.1397 11.4272 13.3212
ITEM: TIMESTEP
149000
ITEM: NUMBER OF ATOMS
1
ITEM: BOX BOUNDS pp pp pp
-0.1025849084 45.1125849084
-0.0617261856 22.5667261856
-0.0203242698 22.5253242698
ITEM: ATOMS type q x y z
2 3.0 11.0028 11.1982 13.694
ITEM: TIMESTEP
150000
ITEM: NUMBER OF ATOMS
1
ITEM: BOX BOUNDS pp pp pp
-0.1025849084 45.1125849084
-0.0617261856 22.5667261856
-0.0203242698 22.5253242698
ITEM: ATOMS type q x y z
2 3.0 11.2805 10.9249 13.3086
ITEM: TIMESTEP
151000
ITEM: NUMBER OF ATOMS
1
ITEM: BOX BOUNDS pp pp pp
-0.1025849084 45.1125849084
-0.0617261856 22.5667261856
-0.0203242698 22.5253242698
ITEM: ATOMS type q x y z
2 3.0 11.2561 11.4331 13.6238
ITEM: TIMESTEP
152000
ITEM: NUMBER OF ATOMS
1
ITEM: BOX BOUNDS pp pp pp
-0.1025849084 45.1125849084
-0.0617261856 22.5667261856
-0.0203242698 22.5253242698
ITEM: ATOMS type q x y z
2 3.0 10.868 11.3296 13.6908
ITEM: TIMESTEP
153000
ITEM: NUMBER OF ATOMS
1
ITEM: BOX BOUNDS pp pp pp
-0.1025849084 45.1125849084
-0.0617261856 22.5667261856
-0.0203242698 22.5253242698
ITEM: ATOMS type q x y z
2 3.0 10.8745 11.0615 13.6368
ITEM: TIMESTEP
154000
ITEM: NUMBER OF ATOMS
1
ITEM: BOX BOUNDS pp pp pp
-0.1025849084 45.1125849084
-0.0617261856 22.5667261856
-0.0203242698 22.5253242698
ITEM: ATOMS type q x y z
2 3.0 10.8232 11.9315 13.5528
ITEM: TIMESTEP
155000
ITEM: NUMBER OF ATOMS
1
ITEM: BOX BOUNDS pp pp pp
-0.1025849084 45.1125849084
-0.0617261856 22.5667261856
-0.0203242698 22.5253242698
ITEM: ATOMS type q x y z
2 3.0 11.7811 11.371 13.7682
ITEM: TIMESTEP
156000
ITEM: NUMBER OF ATOMS
1
ITEM: BOX BOUNDS pp pp pp
-0.1025849084 45.1125849084
-0.0617261856 22.5667261856
-0.0203242698 22.5253242698
ITEM: ATOMS type q x y z
2 3.0 11.169 11.3272 13.5483
ITEM: TIMESTEP
157000
ITEM: NUMBER OF ATOMS
1
ITEM: BOX BOUNDS pp pp pp
-0.1025849084 45.1125849084
-0.0617261856 22.5667261856
-0.0203242698 22.5253242698
ITEM: ATOMS type q x y z
2 3.0 11.1439 11.205 13.4214
ITEM: TIMESTEP
158000
ITEM: NUMBER OF ATOMS
1
ITEM: BOX BOUNDS pp pp pp
-0.1025849084 45.1125849084
-0.0617261856 22.5667261856
-0.0203242698 22.5253242698
ITEM: ATOMS type q x y z
2 3.0 11.2379 10.9693 13.6647
ITEM: TIMESTEP
159000
ITEM: NUMBER OF ATOMS
1
ITEM: BOX BOUNDS pp pp pp
-0.1025849084 45.1125849084
-0.0617261856 22.5667261856
-0.0203242698 22.5253242698
ITEM: ATOMS type q x y z
2 3.0 11.2744 10.9969 13.5746
ITEM: TIMESTEP
160000
ITEM: NUMBER OF ATOMS
1
ITEM: BOX BOUNDS pp pp pp
-0.1025849084 45.1125849084
-0.0617261856 22.5667261856
-0.0203242698 22.5253242698
ITEM: ATOMS type q x y z
2 3.0 11.5645 11.0052 13.5452
ITEM: TIMESTEP
161000
ITEM: NUMBER OF ATOMS
1
ITEM: BOX BOUNDS pp pp pp
-0.1025849084 45.1125849084
-0.0617261856 22.5667261856
-0.0203242698 22.5253242698
ITEM: ATOMS type q x y z
2 3.0 11.6247 11.4087 13.4594
ITEM: TIMESTEP
162000
ITEM: NUMBER OF ATOMS
1
ITEM: BOX BOUNDS pp pp pp
-0.1025849084 45.1125849084
-0.0617261856 22.5667261856
-0.0203242698 22.5253242698
ITEM: ATOMS type q x y z
2 3.0 10.8718 11.1702 13.4164
ITEM: TIMESTEP
163000
ITEM: NUMBER OF ATOMS
1
ITEM: BOX BOUNDS pp pp pp
-0.1025849084 45.1125849084
-0.0617261856 22.5667261856
-0.0203242698 22.5253242698
ITEM: ATOMS type q x y z
2 3.0 11.1076 11.5779 13.4549
ITEM: TIMESTEP
164000
ITEM: NUMBER OF ATOMS
1
ITEM: BOX BOUNDS pp pp pp
-0.1025849084 45.1125849084
-0.0617261856 22.5667261856
-0.0203242698 22.5253242698
ITEM: ATOMS type q x y z
2 3.0 11.2856 10.7793 13.2695
ITEM: TIMESTEP
165000
ITEM: NUMBER OF ATOMS
1
ITEM: BOX BOUNDS pp pp pp
-0.1025849084 45.1125849084
-0.0617261856 22.5667261856
-0.0203242698 22.5253242698
ITEM: ATOMS type q x y z
2 3.0 11.5925 11.0438 13.5949
ITEM: TIMESTEP
166000
ITEM: NUMBER OF ATOMS
1
ITEM: BOX BOUNDS pp pp pp
-0.1025849084 45.1125849084
-0.0617261856 22.5667261856
-0.0203242698 22.5253242698
ITEM: ATOMS type q x y z
2 3.0 10.9842 11.3008 13.6859
ITEM: TIMESTEP
167000
ITEM: NUMBER OF ATOMS
1
ITEM: BOX BOUNDS pp pp pp
-0.1025849084 45.1125849084
-0.0617261856 22.5667261856
-0.0203242698 22.5253242698
ITEM: ATOMS type q x y z
2 3.0 11.283 11.5269 13.1663
ITEM: TIMESTEP
168000
ITEM: NUMBER OF ATOMS
1
ITEM: BOX BOUNDS pp pp pp
-0.1025849084 45.1125849084
-0.0617261856 22.5667261856
-0.0203242698 22.5253242698
ITEM: ATOMS type q x y z
2 3.0 10.8192 11.2798 13.5741
ITEM: TIMESTEP
169000
ITEM: NUMBER OF ATOMS
1
ITEM: BOX BOUNDS pp pp pp
-0.1025849084 45.1125849084
-0.0617261856 22.5667261856
-0.0203242698 22.5253242698
ITEM: ATOMS type q x y z
2 3.0 11.3134 10.7829 13.3814
ITEM: TIMESTEP
170000
ITEM: NUMBER OF ATOMS
1
ITEM: BOX BOUNDS pp pp pp
-0.1025849084 45.1125849084
-0.0617261856 22.5667261856
-0.0203242698 22.5253242698
ITEM: ATOMS type q x y z
2 3.0 10.9025 11.2768 13.3836
ITEM: TIMESTEP
171000
ITEM: NUMBER OF ATOMS
1
ITEM: BOX BOUNDS pp pp pp
-0.1025849084 45.1125849084
-0.0617261856 22.5667261856
-0.0203242698 22.5253242698
ITEM: ATOMS type q x y z
2 3.0 10.9126 11.3211 13.4106
ITEM: TIMESTEP
172000
ITEM: NUMBER OF ATOMS
1
ITEM: BOX BOUNDS pp pp pp
-0.1025849084 45.1125849084
-0.0617261856 22.5667261856
-0.0203242698 22.5253242698
ITEM: ATOMS type q x y z
2 3.0 11.2999 11.6074 13.2674
ITEM: TIMESTEP
173000
ITEM: NUMBER OF ATOMS
1
ITEM: BOX BOUNDS pp pp pp
-0.1025849084 45.1125849084
-0.0617261856 22.5667261856
-0.0203242698 22.5253242698
ITEM: ATOMS type q x y z
2 3.0 11.3085 11.495 13.8287
ITEM: TIMESTEP
174000
ITEM: NUMBER OF ATOMS
1
ITEM: BOX BOUNDS pp pp pp
-0.1025849084 45.1125849084
-0.0617261856 22.5667261856
-0.0203242698 22.5253242698
ITEM: ATOMS type q x y z
2 3.0 11.0917 11.6752 13.3075
ITEM: TIMESTEP
175000
ITEM: NUMBER OF ATOMS
1
ITEM: BOX BOUNDS pp pp pp
-0.1025849084 45.1125849084
-0.0617261856 22.5667261856
-0.0203242698 22.5253242698
ITEM: ATOMS type q x y z
2 3.0 11.1552 11.1927 13.2558
ITEM: TIMESTEP
176000
ITEM: NUMBER OF ATOMS
1
ITEM: BOX BOUNDS pp pp pp
-0.1025849084 45.1125849084
-0.0617261856 22.5667261856
-0.0203242698 22.5253242698
ITEM: ATOMS type q x y z
2 3.0 10.7482 11.0103 13.1086
ITEM: TIMESTEP
177000
ITEM: NUMBER OF ATOMS
1
ITEM: BOX BOUNDS pp pp pp
-0.1025849084 45.1125849084
-0.0617261856 22.5667261856
-0.0203242698 22.5253242698
ITEM: ATOMS type q x y z
2 3.0 11.5378 11.297 13.2192
ITEM: TIMESTEP
178000
ITEM: NUMBER OF ATOMS
1
ITEM: BOX BOUNDS pp pp pp
-0.1025849084 45.1125849084
-0.0617261856 22.5667261856
-0.0203242698 22.5253242698
ITEM: ATOMS type q x y z
2 3.0 11.3585 11.269 13.3848
ITEM: TIMESTEP
179000
ITEM: NUMBER OF ATOMS
1
ITEM: BOX BOUNDS pp pp pp
-0.1025849084 45.1125849084
-0.0617261856 22.5667261856
-0.0203242698 22.5253242698
ITEM: ATOMS type q x y z
2 3.0 11.4941 10.978 13.3774
ITEM: TIMESTEP
180000
ITEM: NUMBER OF ATOMS
1
ITEM: BOX BOUNDS pp pp pp
-0.1025849084 45.1125849084
-0.0617261856 22.5667261856
-0.0203242698 22.5253242698
ITEM: ATOMS type q x y z
2 3.0 10.9553 11.1492 13.4409
ITEM: TIMESTEP
181000
ITEM: NUMBER OF ATOMS
1
ITEM: BOX BOUNDS pp pp pp
-0.1025849084 45.1125849084
-0.0617261856 22.5667261856
-0.0203242698 22.5253242698
ITEM: ATOMS type q x y z
2 3.0 11.2646 10.9125 13.976
ITEM: TIMESTEP
182000
ITEM: NUMBER OF ATOMS
1
ITEM: BOX BOUNDS pp pp pp
-0.1025849084 45.1125849084
-0.0617261856 22.5667261856
-0.0203242698 22.5253242698
ITEM: ATOMS type q x y z
2 3.0 11.2454 11.5697 13.4166
ITEM: TIMESTEP
183000
ITEM: NUMBER OF ATOMS
1
ITEM: BOX BOUNDS pp pp pp
-0.1025849084 45.1125849084
-0.0617261856 22.5667261856
-0.0203242698 22.5253242698
ITEM: ATOMS type q x y z
2 3.0 11.4761 11.2905 13.238
ITEM: TIMESTEP
184000
ITEM: NUMBER OF ATOMS
1
ITEM: BOX BOUNDS pp pp pp
-0.1025849084 45.1125849084
-0.0617261856 22.5667261856
-0.0203242698 22.5253242698
ITEM: ATOMS type q x y z
2 3.0 10.5815 10.9585 13.4097
ITEM: TIMESTEP
185000
ITEM: NUMBER OF ATOMS
1
ITEM: BOX BOUNDS pp pp pp
-0.1025849084 45.1125849084
-0.0617261856 22.5667261856
-0.0203242698 22.5253242698
ITEM: ATOMS type q x y z
2 3.0 11.2461 11.2594 13.6248
ITEM: TIMESTEP
186000
ITEM: NUMBER OF ATOMS
1
ITEM: BOX BOUNDS pp pp pp
-0.1025849084 45.1125849084
-0.0617261856 22.5667261856
-0.0203242698 22.5253242698
ITEM: ATOMS type q x y z
2 3.0 11.2635 11.5204 13.4544
ITEM: TIMESTEP
187000
ITEM: NUMBER OF ATOMS
1
ITEM: BOX BOUNDS pp pp pp
-0.1025849084 45.1125849084
-0.0617261856 22.5667261856
-0.0203242698 22.5253242698
ITEM: ATOMS type q x y z
2 3.0 11.6321 11.497 13.2701
ITEM: TIMESTEP
188000
ITEM: NUMBER OF ATOMS
1
ITEM: BOX BOUNDS pp pp pp
-0.1025849084 45.1125849084
-0.0617261856 22.5667261856
-0.0203242698 22.5253242698
ITEM: ATOMS type q x y z
2 3.0 11.2423 11.3527 13.1424
ITEM: TIMESTEP
189000
ITEM: NUMBER OF ATOMS
1
ITEM: BOX BOUNDS pp pp pp
-0.1025849084 45.1125849084
-0.0617261856 22.5667261856
-0.0203242698 22.5253242698
ITEM: ATOMS type q x y z
2 3.0 11.3232 11.3526 13.4892
ITEM: TIMESTEP
190000
ITEM: NUMBER OF ATOMS
1
ITEM: BOX BOUNDS pp pp pp
-0.1025849084 45.1125849084
-0.0617261856 22.5667261856
-0.0203242698 22.5253242698
ITEM: ATOMS type q x y z
2 3.0 10.9327 11.4357 13.4757
ITEM: TIMESTEP
191000
ITEM: NUMBER OF ATOMS
1
ITEM: BOX BOUNDS pp pp pp
-0.1025849084 45.1125849084
-0.0617261856 22.5667261856
-0.0203242698 22.5253242698
ITEM: ATOMS type q x y z
2 3.0 11.3629 11.0246 13.1378
ITEM: TIMESTEP
192000
ITEM: NUMBER OF ATOMS
1
ITEM: BOX BOUNDS pp pp pp
-0.1025849084 45.1125849084
-0.0617261856 22.5667261856
-0.0203242698 22.5253242698
ITEM: ATOMS type q x y z
2 3.0 11.3583 10.941 14.0652
ITEM: TIMESTEP
193000
ITEM: NUMBER OF ATOMS
1
ITEM: BOX BOUNDS pp pp pp
-0.1025849084 45.1125849084
-0.0617261856 22.5667261856
-0.0203242698 22.5253242698
ITEM: ATOMS type q x y z
2 3.0 10.9746 11.3222 13.5526
ITEM: TIMESTEP
194000
ITEM: NUMBER OF ATOMS
1
ITEM: BOX BOUNDS pp pp pp
-0.1025849084 45.1125849084
-0.0617261856 22.5667261856
-0.0203242698 22.5253242698
ITEM: ATOMS type q x y z
2 3.0 11.2019 11.1813 13.3869
ITEM: TIMESTEP
195000
ITEM: NUMBER OF ATOMS
1
ITEM: BOX BOUNDS pp pp pp
-0.1025849084 45.1125849084
-0.0617261856 22.5667261856
-0.0203242698 22.5253242698
ITEM: ATOMS type q x y z
2 3.0 11.4264 11.2464 13.4349
ITEM: TIMESTEP
196000
ITEM: NUMBER OF ATOMS
1
ITEM: BOX BOUNDS pp pp pp
-0.1025849084 45.1125849084
-0.0617261856 22.5667261856
-0.0203242698 22.5253242698
ITEM: ATOMS type q x y z
2 3.0 10.8205 11.3849 13.6155
ITEM: TIMESTEP
197000
ITEM: NUMBER OF ATOMS
1
ITEM: BOX BOUNDS pp pp pp
-0.1025849084 45.1125849084
-0.0617261856 22.5667261856
-0.0203242698 22.5253242698
ITEM: ATOMS type q x y z
2 3.0 10.9785 11.6587 13.6926
ITEM: TIMESTEP
198000
ITEM: NUMBER OF ATOMS
1
ITEM: BOX BOUNDS pp pp pp
-0.1025849084 45.1125849084
-0.0617261856 22.5667261856
-0.0203242698 22.5253242698
ITEM: ATOMS type q x y z
2 3.0 11.2194 11.2222 13.4469
ITEM: TIMESTEP
199000
ITEM: NUMBER OF ATOMS
1
ITEM: BOX BOUNDS pp pp pp
-0.1025849084 45.1125849084
-0.0617261856 22.5667261856
-0.0203242698 22.5253242698
ITEM: ATOMS type q x y z
2 3.0 11.386 10.9448 13.5791
ITEM: TIMESTEP
200000
ITEM: NUMBER OF ATOMS
1
ITEM: BOX BOUNDS pp pp pp
-0.1025849084 45.1125849084
-0.0617261856 22.5667261856
-0.0203242698 22.5253242698
ITEM: ATOMS type q x y z
2 3.0 10.7972 11.2696 13.1389
ITEM: TIMESTEP
201000
ITEM: NUMBER OF ATOMS
1
ITEM: BOX BOUNDS pp pp pp
-0.1025849084 45.1125849084
-0.0617261856 22.5667261856
-0.0203242698 22.5253242698
ITEM: ATOMS type q x y z
2 3.0 10.9421 11.3146 13.6536
ITEM: TIMESTEP
202000
ITEM: NUMBER OF ATOMS
1
ITEM: BOX BOUNDS pp pp pp
-0.1025849084 45.1125849084
-0.0617261856 22.5667261856
-0.0203242698 22.5253242698
ITEM: ATOMS type q x y z
2 3.0 11.1688 11.4129 13.7468
ITEM: TIMESTEP
203000
ITEM: NUMBER OF ATOMS
1
ITEM: BOX BOUNDS pp pp pp
-0.1025849084 45.1125849084
-0.0617261856 22.5667261856
-0.0203242698 22.5253242698
ITEM: ATOMS type q x y z
2 3.0 11.5098 11.0199 13.209
ITEM: TIMESTEP
204000
ITEM: NUMBER OF ATOMS
1
ITEM: BOX BOUNDS pp pp pp
-0.1025849084 45.1125849084
-0.0617261856 22.5667261856
-0.0203242698 22.5253242698
ITEM: ATOMS type q x y z
2 3.0 10.9832 11.6319 13.5711
ITEM: TIMESTEP
205000
ITEM: NUMBER OF ATOMS
1
ITEM: BOX BOUNDS pp pp pp
-0.1025849084 45.1125849084
-0.0617261856 22.5667261856
-0.0203242698 22.5253242698
ITEM: ATOMS type q x y z
2 3.0 10.968 11.1681 13.6109
ITEM: TIMESTEP
206000
ITEM: NUMBER OF ATOMS
1
ITEM: BOX BOUNDS pp pp pp
-0.1025849084 45.1125849084
-0.0617261856 22.5667261856
-0.0203242698 22.5253242698
ITEM: ATOMS type q x y z
2 3.0 10.851 11.769 13.3703
ITEM: TIMESTEP
207000
ITEM: NUMBER OF ATOMS
1
ITEM: BOX BOUNDS pp pp pp
-0.1025849084 45.1125849084
-0.0617261856 22.5667261856
-0.0203242698 22.5253242698
ITEM: ATOMS type q x y z
2 3.0 10.9345 11.1637 13.7091
ITEM: TIMESTEP
208000
ITEM: NUMBER OF ATOMS
1
ITEM: BOX BOUNDS pp pp pp
-0.1025849084 45.1125849084
-0.0617261856 22.5667261856
-0.0203242698 22.5253242698
ITEM: ATOMS type q x y z
2 3.0 11.1713 11.1138 13.6906
ITEM: TIMESTEP
209000
ITEM: NUMBER OF ATOMS
1
ITEM: BOX BOUNDS pp pp pp
-0.1025849084 45.1125849084
-0.0617261856 22.5667261856
-0.0203242698 22.5253242698
ITEM: ATOMS type q x y z
2 3.0 11.491 10.9916 13.4076
ITEM: TIMESTEP
210000
ITEM: NUMBER OF ATOMS
1
ITEM: BOX BOUNDS pp pp pp
-0.1025849084 45.1125849084
-0.0617261856 22.5667261856
-0.0203242698 22.5253242698
ITEM: ATOMS type q x y z
2 3.0 11.2095 11.3946 13.6313
ITEM: TIMESTEP
211000
ITEM: NUMBER OF ATOMS
1
ITEM: BOX BOUNDS pp pp pp
-0.1025849084 45.1125849084
-0.0617261856 22.5667261856
-0.0203242698 22.5253242698
ITEM: ATOMS type q x y z
2 3.0 11.249 11.1511 13.3948
ITEM: TIMESTEP
212000
ITEM: NUMBER OF ATOMS
1
ITEM: BOX BOUNDS pp pp pp
-0.1025849084 45.1125849084
-0.0617261856 22.5667261856
-0.0203242698 22.5253242698
ITEM: ATOMS type q x y z
2 3.0 11.0059 11.0038 13.8562
ITEM: TIMESTEP
213000
ITEM: NUMBER OF ATOMS
1
ITEM: BOX BOUNDS pp pp pp
-0.1025849084 45.1125849084
-0.0617261856 22.5667261856
-0.0203242698 22.5253242698
ITEM: ATOMS type q x y z
2 3.0 11.3826 11.1827 13.2116
ITEM: TIMESTEP
214000
ITEM: NUMBER OF ATOMS
1
ITEM: BOX BOUNDS pp pp pp
-0.1025849084 45.1125849084
-0.0617261856 22.5667261856
-0.0203242698 22.5253242698
ITEM: ATOMS type q x y z
2 3.0 11.1755 11.3416 13.4232
ITEM: TIMESTEP
215000
ITEM: NUMBER OF ATOMS
1
ITEM: BOX BOUNDS pp pp pp
-0.1025849084 45.1125849084
-0.0617261856 22.5667261856
-0.0203242698 22.5253242698
ITEM: ATOMS type q x y z
2 3.0 11.5032 11.2532 13.3338
ITEM: TIMESTEP
216000
ITEM: NUMBER OF ATOMS
1
ITEM: BOX BOUNDS pp pp pp
-0.1025849084 45.1125849084
-0.0617261856 22.5667261856
-0.0203242698 22.5253242698
ITEM: ATOMS type q x y z
2 3.0 10.7988 11.2159 13.5573
ITEM: TIMESTEP
217000
ITEM: NUMBER OF ATOMS
1
ITEM: BOX BOUNDS pp pp pp
-0.1025849084 45.1125849084
-0.0617261856 22.5667261856
-0.0203242698 22.5253242698
ITEM: ATOMS type q x y z
2 3.0 11.1845 11.3076 13.4508
ITEM: TIMESTEP
218000
ITEM: NUMBER OF ATOMS
1
ITEM: BOX BOUNDS pp pp pp
-0.1025849084 45.1125849084
-0.0617261856 22.5667261856
-0.0203242698 22.5253242698
ITEM: ATOMS type q x y z
2 3.0 11.6968 11.3883 13.6916
ITEM: TIMESTEP
219000
ITEM: NUMBER OF ATOMS
1
ITEM: BOX BOUNDS pp pp pp
-0.1025849084 45.1125849084
-0.0617261856 22.5667261856
-0.0203242698 22.5253242698
ITEM: ATOMS type q x y z
2 3.0 11.276 11.7322 13.4164
ITEM: TIMESTEP
220000
ITEM: NUMBER OF ATOMS
1
ITEM: BOX BOUNDS pp pp pp
-0.1025849084 45.1125849084
-0.0617261856 22.5667261856
-0.0203242698 22.5253242698
ITEM: ATOMS type q x y z
2 3.0 11.545 11.1016 13.3413
ITEM: TIMESTEP
221000
ITEM: NUMBER OF ATOMS
1
ITEM: BOX BOUNDS pp pp pp
-0.1025849084 45.1125849084
-0.0617261856 22.5667261856
-0.0203242698 22.5253242698
ITEM: ATOMS type q x y z
2 3.0 11.4983 11.6675 13.2436
ITEM: TIMESTEP
222000
ITEM: NUMBER OF ATOMS
1
ITEM: BOX BOUNDS pp pp pp
-0.1025849084 45.1125849084
-0.0617261856 22.5667261856
-0.0203242698 22.5253242698
ITEM: ATOMS type q x y z
2 3.0 11.5456 11.0948 13.4809
ITEM: TIMESTEP
223000
ITEM: NUMBER OF ATOMS
1
ITEM: BOX BOUNDS pp pp pp
-0.1025849084 45.1125849084
-0.0617261856 22.5667261856
-0.0203242698 22.5253242698
ITEM: ATOMS type q x y z
2 3.0 11.5958 10.6506 13.3857
ITEM: TIMESTEP
224000
ITEM: NUMBER OF ATOMS
1
ITEM: BOX BOUNDS pp pp pp
-0.1025849084 45.1125849084
-0.0617261856 22.5667261856
-0.0203242698 22.5253242698
ITEM: ATOMS type q x y z
2 3.0 11.068 11.5624 13.6028
ITEM: TIMESTEP
225000
ITEM: NUMBER OF ATOMS
1
ITEM: BOX BOUNDS pp pp pp
-0.1025849084 45.1125849084
-0.0617261856 22.5667261856
-0.0203242698 22.5253242698
ITEM: ATOMS type q x y z
2 3.0 11.4327 10.9637 13.365
ITEM: TIMESTEP
226000
ITEM: NUMBER OF ATOMS
1
ITEM: BOX BOUNDS pp pp pp
-0.1025849084 45.1125849084
-0.0617261856 22.5667261856
-0.0203242698 22.5253242698
ITEM: ATOMS type q x y z
2 3.0 11.0027 11.2419 13.3005
ITEM: TIMESTEP
227000
ITEM: NUMBER OF ATOMS
1
ITEM: BOX BOUNDS pp pp pp
-0.1025849084 45.1125849084
-0.0617261856 22.5667261856
-0.0203242698 22.5253242698
ITEM: ATOMS type q x y z
2 3.0 11.1849 11.1851 13.492
ITEM: TIMESTEP
228000
ITEM: NUMBER OF ATOMS
1
ITEM: BOX BOUNDS pp pp pp
-0.1025849084 45.1125849084
-0.0617261856 22.5667261856
-0.0203242698 22.5253242698
ITEM: ATOMS type q x y z
2 3.0 11.1163 11.0317 13.5667
ITEM: TIMESTEP
229000
ITEM: NUMBER OF ATOMS
1
ITEM: BOX BOUNDS pp pp pp
-0.1025849084 45.1125849084
-0.0617261856 22.5667261856
-0.0203242698 22.5253242698
ITEM: ATOMS type q x y z
2 3.0 11.3936 11.3899 13.5953
ITEM: TIMESTEP
230000
ITEM: NUMBER OF ATOMS
1
ITEM: BOX BOUNDS pp pp pp
-0.1025849084 45.1125849084
-0.0617261856 22.5667261856
-0.0203242698 22.5253242698
ITEM: ATOMS type q x y z
2 3.0 11.2909 11.1205 13.5842
ITEM: TIMESTEP
231000
ITEM: NUMBER OF ATOMS
1
ITEM: BOX BOUNDS pp pp pp
-0.1025849084 45.1125849084
-0.0617261856 22.5667261856
-0.0203242698 22.5253242698
ITEM: ATOMS type q x y z
2 3.0 11.6927 11.6836 13.6784
ITEM: TIMESTEP
232000
ITEM: NUMBER OF ATOMS
1
ITEM: BOX BOUNDS pp pp pp
-0.1025849084 45.1125849084
-0.0617261856 22.5667261856
-0.0203242698 22.5253242698
ITEM: ATOMS type q x y z
2 3.0 11.0363 11.5484 13.3191
ITEM: TIMESTEP
233000
ITEM: NUMBER OF ATOMS
1
ITEM: BOX BOUNDS pp pp pp
-0.1025849084 45.1125849084
-0.0617261856 22.5667261856
-0.0203242698 22.5253242698
ITEM: ATOMS type q x y z
2 3.0 11.3115 11.5237 13.6331
ITEM: TIMESTEP
234000
ITEM: NUMBER OF ATOMS
1
ITEM: BOX BOUNDS pp pp pp
-0.1025849084 45.1125849084
-0.0617261856 22.5667261856
-0.0203242698 22.5253242698
ITEM: ATOMS type q x y z
2 3.0 11.3124 11.5079 13.5397
ITEM: TIMESTEP
235000
ITEM: NUMBER OF ATOMS
1
ITEM: BOX BOUNDS pp pp pp
-0.1025849084 45.1125849084
-0.0617261856 22.5667261856
-0.0203242698 22.5253242698
ITEM: ATOMS type q x y z
2 3.0 11.0076 10.9834 13.5186
ITEM: TIMESTEP
236000
ITEM: NUMBER OF ATOMS
1
ITEM: BOX BOUNDS pp pp pp
-0.1025849084 45.1125849084
-0.0617261856 22.5667261856
-0.0203242698 22.5253242698
ITEM: ATOMS type q x y z
2 3.0 10.983 11.6519 13.703
ITEM: TIMESTEP
237000
ITEM: NUMBER OF ATOMS
1
ITEM: BOX BOUNDS pp pp pp
-0.1025849084 45.1125849084
-0.0617261856 22.5667261856
-0.0203242698 22.5253242698
ITEM: ATOMS type q x y z
2 3.0 11.1254 11.2647 13.4786
ITEM: TIMESTEP
238000
ITEM: NUMBER OF ATOMS
1
ITEM: BOX BOUNDS pp pp pp
-0.1025849084 45.1125849084
-0.0617261856 22.5667261856
-0.0203242698 22.5253242698
ITEM: ATOMS type q x y z
2 3.0 11.2819 11.105 13.4453
ITEM: TIMESTEP
239000
ITEM: NUMBER OF ATOMS
1
ITEM: BOX BOUNDS pp pp pp
-0.1025849084 45.1125849084
-0.0617261856 22.5667261856
-0.0203242698 22.5253242698
ITEM: ATOMS type q x y z
2 3.0 10.836 11.2686 13.5769
ITEM: TIMESTEP
240000
ITEM: NUMBER OF ATOMS
1
ITEM: BOX BOUNDS pp pp pp
-0.1025849084 45.1125849084
-0.0617261856 22.5667261856
-0.0203242698 22.5253242698
ITEM: ATOMS type q x y z
2 3.0 11.0354 11.4311 13.6032
ITEM: TIMESTEP
241000
ITEM: NUMBER OF ATOMS
1
ITEM: BOX BOUNDS pp pp pp
-0.1025849084 45.1125849084
-0.0617261856 22.5667261856
-0.0203242698 22.5253242698
ITEM: ATOMS type q x y z
2 3.0 11.3545 11.2111 13.6304
ITEM: TIMESTEP
242000
ITEM: NUMBER OF ATOMS
1
ITEM: BOX BOUNDS pp pp pp