********************************************************************************
*                       GENERAL UTILITY LATTICE PROGRAM                        *
*                                 Julian Gale                                  *
*                       Curtin Institute for Computation                       *
*                    School of Molecular and Life Sciences                     *
*                    Curtin University, Western Australia                      *
********************************************************************************
* Version = 5.2.0 * Last modified =  10th September 2020                       *
********************************************************************************
*  optimise     - perform optimisation run                                     *
*  conp         - constant pressure calculation                                *
*  property     - calculate properties for final geometry                      *
*  defect       - perform defect calculation after bulk run                    *
*  compare      - compare initial and final structures                         *
********************************************************************************

  Job Started  at 14:32.47  2nd January    2021                               

  Number of CPUs =     1


  Total number of configurations input =      1

********************************************************************************
*  Input for Configuration =   1                                               *
********************************************************************************

  Formula = ClONa3                                                      

  Number of irreducible atoms/shells =       5


  Total number atoms/shells =       7

  Dimensionality = 3               :  Bulk   


  Symmetry :

  Crystal family                   :  Cubic       
  Crystal class  (Groth - 1921)    :  Cubic Hexakisoctahedral              

  Space group (centrosymmetric)    :  P M 3 M         

  Patterson group                  :  P m -3 m 

  Cartesian lattice vectors (Angstroms) :

        4.504000    0.000000    0.000000
        0.000000    4.504000    0.000000
        0.000000    0.000000    4.504000

  Cell parameters (Angstroms/Degrees):

  a =       4.5040    alpha =  90.0000
  b =       4.5040    beta  =  90.0000
  c =       4.5040    gamma =  90.0000

  Initial cell volume =          91.368216 Angs**3

  Temperature of configuration =   0.00     K 

  Pressure of configuration =         0.000 GPa 

  Fractional coordinates of asymmetric unit :

--------------------------------------------------------------------------------
   No.  Atomic       x           y          z         Charge      Occupancy
        Label      (Frac)      (Frac)     (Frac)        (e)         (Frac)  
--------------------------------------------------------------------------------
      1 Cl    c    0.000000    0.000000    0.000000     1.48500    1.000000    
      2 O     c    0.500000    0.500000    0.500000     0.18300    1.000000    
      3 Na    c    0.500000    0.500000    0.000000     1.00000    1.000000    
      4 Cl    s    0.000000    0.000000    0.000000    -2.48500    1.000000    
      5 O     s    0.500000    0.500000    0.500000    -2.18300    1.000000    
--------------------------------------------------------------------------------


  Constraints : 

--------------------------------------------------------------------------------
  Constraint no.      Unconstrained     Constrained    Coefficient    Offset
                         Variable         Variable
--------------------------------------------------------------------------------
           1              Strain 1        Strain 2       1.00000      0.0000
           2              Strain 1        Strain 3       1.00000      0.0000
--------------------------------------------------------------------------------


********************************************************************************
*  General input information                                                   *
********************************************************************************

  Species output for all configurations : 

--------------------------------------------------------------------------------
  Species    Type    Atomic    Atomic    Charge       Radii (Angs)     Library
                     Number     Mass       (e)     Cova   Ionic  VDW   Symbol
--------------------------------------------------------------------------------
    Na       Core       11      22.99   1.000000   0.970  0.000  2.300          
    O        Core        8      16.00   0.183000   0.730  0.000  1.360          
    O        Shell       8       0.00  -2.183000   0.730  0.000  1.360          
    Cl       Core       17      35.45   1.485000   0.990  0.000  1.650          
    Cl       Shell      17       0.00  -2.485000   0.990  0.000  1.650          
    Mg       Core       12      24.31   0.415000   1.100  0.000  0.000          
    Mg       Shell      12       0.00   1.585000   1.100  0.000  0.000          
    Ca       Core       20      40.08  -1.135000   0.990  0.000  0.000          
    Ca       Shell      20       0.00   3.135000   0.990  0.000  0.000          
    Sr       Core       38      87.62  -1.251000   1.120  0.000  0.000          
    Sr       Shell      38       0.00   3.251000   1.120  0.000  0.000          
    Ba       Core       56     137.33  -7.203000   1.340  0.000  0.000          
    Ba       Shell      56       0.00   9.203000   1.340  0.000  0.000          
--------------------------------------------------------------------------------


  Lattice summation method               =    Ewald          (3-D)
                                         =    Parry          (2-D)
                                         =    Saunders et al (1-D)
  Accuracy factor for lattice sums       =   12.000


  Analytic derivatives to be used

  Time limit = Infinity

  Maximum range for interatomic potentials =    100000.000000 Angstroms

  General interatomic potentials :

--------------------------------------------------------------------------------
Atom  Types   Potential      Parameter       Value         Units   Cutoffs(Ang)
  1     2                                                            Min /  Max 
--------------------------------------------------------------------------------
O    c O    s Spring (c-s)  Spring k 2       593.71600    eV*Ang^-2 0.000  0.800
                            Spring k 4       0.0000000    eV*Ang^-4 
--------------------------------------------------------------------------------
Cl   c Cl   s Spring (c-s)  Spring k 2       29.380000    eV*Ang^-2 0.000  0.800
                            Spring k 4       0.0000000    eV*Ang^-4 
--------------------------------------------------------------------------------
Mg   c Mg   s Spring (c-s)  Spring k 2       361.60000    eV*Ang^-2 0.000  0.800
                            Spring k 4       0.0000000    eV*Ang^-4 
--------------------------------------------------------------------------------
Ca   c Ca   s Spring (c-s)  Spring k 2       110.20000    eV*Ang^-2 0.000  0.800
                            Spring k 4       0.0000000    eV*Ang^-4 
--------------------------------------------------------------------------------
Sr   c Sr   s Spring (c-s)  Spring k 2       71.700000    eV*Ang^-2 0.000  0.800
                            Spring k 4       0.0000000    eV*Ang^-4 
--------------------------------------------------------------------------------
Ba   c Ba   s Spring (c-s)  Spring k 2       495.20000    eV*Ang^-2 0.000  0.800
                            Spring k 4       0.0000000    eV*Ang^-4 
--------------------------------------------------------------------------------
Na   c Na   c Buckingham    Buckingham A     1788.1900    eV        0.000 12.000
                            Buckingham rho  0.15900000    Ang       
                            Buckingham C     0.0000000    eV*Ang^6  
--------------------------------------------------------------------------------
Na   c O    s Buckingham    Buckingham A     1226.8400    eV        0.000 12.000
                            Buckingham rho  0.30700000    Ang       
                            Buckingham C     0.0000000    eV*Ang^6  
--------------------------------------------------------------------------------
Na   c Cl   s Buckingham    Buckingham A     2314.7000    eV        0.000 12.000
                            Buckingham rho  0.29000000    Ang       
                            Buckingham C     0.0000000    eV*Ang^6  
--------------------------------------------------------------------------------
O    s O    s Buckingham    Buckingham A     22764.300    eV        0.000 12.000
                            Buckingham rho  0.14900000    Ang       
                            Buckingham C     13.190000    eV*Ang^6  
--------------------------------------------------------------------------------
O    s Cl   s Buckingham    Buckingham A     8286.9100    eV        0.000 12.000
                            Buckingham rho  0.25900000    Ang       
                            Buckingham C     62.200000    eV*Ang^6  
--------------------------------------------------------------------------------
Cl   s Cl   s Buckingham    Buckingham A     1227.2000    eV        0.000 12.000
                            Buckingham rho  0.32100000    Ang       
                            Buckingham C     14.530000    eV*Ang^6  
--------------------------------------------------------------------------------
O    s Mg   s Buckingham    Buckingham A     1428.5000    eV        0.000 12.000
                            Buckingham rho  0.29450000    Ang       
                            Buckingham C     0.0000000    eV*Ang^6  
--------------------------------------------------------------------------------
Mg   s Cl   s Buckingham    Buckingham A     4914.5400    eV        0.000 12.000
                            Buckingham rho  0.25700000    Ang       
                            Buckingham C     0.0000000    eV*Ang^6  
--------------------------------------------------------------------------------
O    s Ca   s Buckingham    Buckingham A     1090.4000    eV        0.000 12.000
                            Buckingham rho  0.34370000    Ang       
                            Buckingham C     0.0000000    eV*Ang^6  
--------------------------------------------------------------------------------
Cl   s Ca   s Buckingham    Buckingham A     2302.0000    eV        0.000 12.000
                            Buckingham rho  0.34020000    Ang       
                            Buckingham C     0.0000000    eV*Ang^6  
--------------------------------------------------------------------------------
O    s Sr   s Buckingham    Buckingham A     959.10000    eV        0.000 12.000
                            Buckingham rho  0.37210000    Ang       
                            Buckingham C     0.0000000    eV*Ang^6  
--------------------------------------------------------------------------------
Cl   s Sr   s Buckingham    Buckingham A     2191.0900    eV        0.000 12.000
                            Buckingham rho  0.34570000    Ang       
                            Buckingham C     0.0000000    eV*Ang^6  
--------------------------------------------------------------------------------
O    s Ba   s Buckingham    Buckingham A     905.70000    eV        0.000 12.000
                            Buckingham rho  0.39760000    Ang       
                            Buckingham C     0.0000000    eV*Ang^6  
--------------------------------------------------------------------------------
Cl   s Ba   s Buckingham    Buckingham A     2704.5500    eV        0.000 12.000
                            Buckingham rho  0.35280000    Ang       
                            Buckingham C     0.0000000    eV*Ang^6  
--------------------------------------------------------------------------------

********************************************************************************
*  Output for configuration   1                                                *
********************************************************************************


  Components of energy : 

--------------------------------------------------------------------------------
  Interatomic potentials     =           5.13022605 eV    
  Monopole - monopole (real) =         -10.03624526 eV    
  Monopole - monopole (recip)=         -29.53581274 eV    
  Monopole - monopole (total)=         -39.57205800 eV    
--------------------------------------------------------------------------------
  Total lattice energy       =         -34.44183194 eV    
--------------------------------------------------------------------------------
  Total lattice energy       =           -3323.1103 kJ/(mole unit cells)
--------------------------------------------------------------------------------


  Number of variables =        1

  Maximum number of calculations  =          1000
  Maximum Hessian update interval =            10
  Maximum step size               =   1.000000000
  Maximum parameter tolerance     =   0.000010000
  Maximum function  tolerance     =   0.000010000
  Maximum gradient  tolerance     =   0.001000000
  Maximum gradient  component     =   0.010000000

  Symmetry constrained optimisation

  Symmetry used for second derivatives

  Cell parameters to be optimised using strains

  Newton-Raphson optimiser to be used

  BFGS hessian update to be used

  Lower half triangular hessian to be used

  Start of bulk optimisation :

  Cycle:      0 Energy:       -34.441832  Gnorm:      0.196570  CPU:    0.005
  ** Hessian calculated **
  Cycle:      1 Energy:       -34.441914  Gnorm:      0.000103  CPU:    0.006


  **** Optimisation achieved ****


  Final energy =     -34.44191447 eV
  Final Gnorm  =       0.00000000

  Components of energy : 

--------------------------------------------------------------------------------
  Interatomic potentials     =           5.09689708 eV    
  Monopole - monopole (real) =         -10.02781331 eV    
  Monopole - monopole (recip)=         -29.51099824 eV    
  Monopole - monopole (total)=         -39.53881155 eV    
--------------------------------------------------------------------------------
  Total lattice energy       =         -34.44191447 eV    
--------------------------------------------------------------------------------
  Total lattice energy       =           -3323.1183 kJ/(mole unit cells)
--------------------------------------------------------------------------------

  Final asymmetric unit coordinates :

--------------------------------------------------------------------------------
   No.  Atomic        x           y           z         Radius
        Label       (Frac)      (Frac)      (Frac)       (Angs) 
--------------------------------------------------------------------------------
     1  Cl    c     0.000000    0.000000    0.000000    0.000000
     2  O     c     0.500000    0.500000    0.500000    0.000000
     3  Na    c     0.500000    0.500000    0.000000    0.000000
     4  Cl    s     0.000000    0.000000    0.000000    0.000000
     5  O     s     0.500000    0.500000    0.500000    0.000000
--------------------------------------------------------------------------------

  Final Cartesian lattice vectors (Angstroms) :

        4.507787    0.000000    0.000000
        0.000000    4.507787    0.000000
        0.000000    0.000000    4.507787


  Final cell parameters and derivatives :

--------------------------------------------------------------------------------
       a            4.507787 Angstrom     dE/de1(xx)     0.000000 eV/strain
       b            4.507787 Angstrom     dE/de2(yy)     0.000000 eV/strain
       c            4.507787 Angstrom     dE/de3(zz)     0.000000 eV/strain
       alpha       90.000000 Degrees      dE/de4(yz)     0.000000 eV/strain
       beta        90.000000 Degrees      dE/de5(xz)     0.000000 eV/strain
       gamma       90.000000 Degrees      dE/de6(xy)     0.000000 eV/strain
--------------------------------------------------------------------------------

  Primitive cell volume =            91.598892 Angs**3

  Density of cell =      2.183054 g/cm**3

  Non-primitive cell volume =            91.598892 Angs**3


  Final internal derivatives :

--------------------------------------------------------------------------------
   No.  Atomic          a             b             c           Radius
        Label          (eV)          (eV)          (eV)        (eV/Angs)
--------------------------------------------------------------------------------
      1 Cl    c       0.000000      0.000000      0.000000      0.000000
      2 O     c       0.000000      0.000000      0.000000      0.000000
      3 Na    c       0.000000      0.000000      0.000000      0.000000
      4 Cl    s       0.000000      0.000000      0.000000      0.000000
      5 O     s       0.000000      0.000000      0.000000      0.000000
--------------------------------------------------------------------------------
  Maximum abs         0.000000      0.000000      0.000000      0.000000
--------------------------------------------------------------------------------

  Comparison of initial and final structures : 

--------------------------------------------------------------------------------
  Parameter   Initial value   Final value   Difference    Units      Percent
--------------------------------------------------------------------------------
    Volume        91.368216     91.598892     0.230676    Angs**3      0.25
    a              4.504000      4.507787     0.003787    Angstroms    0.08
    b              4.504000      4.507787     0.003787    Angstroms    0.08
    c              4.504000      4.507787     0.003787    Angstroms    0.08
    alpha         90.000000     90.000000     0.000000    Degrees      0.00
    beta          90.000000     90.000000     0.000000    Degrees      0.00
    gamma         90.000000     90.000000     0.000000    Degrees      0.00
      1 x          0.000000      0.000000     0.000000    Fractional   0.00
      1 y          0.000000      0.000000     0.000000    Fractional   0.00
      1 z          0.000000      0.000000     0.000000    Fractional   0.00
      2 x          0.500000      0.500000     0.000000    Fractional   0.00
      2 y          0.500000      0.500000     0.000000    Fractional   0.00
      2 z          0.500000      0.500000     0.000000    Fractional   0.00
      3 x          0.500000      0.500000     0.000000    Fractional   0.00
      3 y          0.500000      0.500000     0.000000    Fractional   0.00
      3 z          0.000000      0.000000     0.000000    Fractional   0.00
      4 x          0.000000      0.000000     0.000000    Fractional   0.00
      4 y          0.000000      0.000000     0.000000    Fractional   0.00
      4 z          0.000000      0.000000     0.000000    Fractional   0.00
      5 x          0.500000      0.500000     0.000000    Fractional   0.00
      5 y          0.500000      0.500000     0.000000    Fractional   0.00
      5 z          0.500000      0.500000     0.000000    Fractional   0.00
--------------------------------------------------------------------------------


  Born effective charge tensors : 

-------------------------------------------------------------------------------
  Atom             x           y             z
-------------------------------------------------------------------------------
    1 Cl    x      -1.0181     -0.0000      0.0000
            y      -0.0000     -1.0181      0.0000
            z       0.0000      0.0000     -1.0181
-------------------------------------------------------------------------------
    2 O     x      -2.2647      0.0000     -0.0000
            y       0.0000     -2.2647     -0.0000
            z      -0.0000     -0.0000     -2.2647
-------------------------------------------------------------------------------
    3 Na    x       1.2258     -0.0000      0.0000
            y      -0.0000      1.2258     -0.0000
            z       0.0000     -0.0000      0.8313
-------------------------------------------------------------------------------




  Elastic Constant Matrix: (Units=GPa)

-------------------------------------------------------------------------------
  Indices      1         2         3         4         5         6    
-------------------------------------------------------------------------------
       1     95.8177   20.0737   20.0737   -0.0000   -0.0000    0.0000
       2     20.0737   95.8177   20.0737   -0.0000   -0.0000    0.0000
       3     20.0737   20.0737   95.8177   -0.0000   -0.0000    0.0000
       4     -0.0000   -0.0000   -0.0000   20.0737   -0.0000    0.0000
       5     -0.0000   -0.0000   -0.0000   -0.0000   20.0737    0.0000
       6      0.0000    0.0000    0.0000    0.0000    0.0000   20.0737
-------------------------------------------------------------------------------


  Elastic Compliance Matrix: (Units=1/GPa)

-------------------------------------------------------------------------------
  Indices      1         2         3         4         5         6    
-------------------------------------------------------------------------------
       1    0.011253 -0.001949 -0.001949  0.000000  0.000000 -0.000000
       2   -0.001949  0.011253 -0.001949  0.000000  0.000000  0.000000
       3   -0.001949 -0.001949  0.011253  0.000000  0.000000 -0.000000
       4    0.000000  0.000000  0.000000  0.049816  0.000000 -0.000000
       5    0.000000  0.000000  0.000000  0.000000  0.049816 -0.000000
       6   -0.000000  0.000000 -0.000000 -0.000000 -0.000000  0.049816
-------------------------------------------------------------------------------

  Mechanical properties :

-------------------------------------------------------------------------------
  Convention :                    Reuss         Voigt         Hill
-------------------------------------------------------------------------------
  Bulk  Modulus (GPa)     =      45.32174      45.32174      45.32174
  Shear Modulus (GPa)     =      24.72085      27.19304      25.95695
-------------------------------------------------------------------------------
  Velocity S-wave (km/s)  =       3.36511       3.52937       3.44822
  Velocity P-wave (km/s)  =       5.98827       6.11304       6.05098
-------------------------------------------------------------------------------
  Compressibility (1/GPa) =    0.02206447
-------------------------------------------------------------------------------
  Stress axis :                     x             y             z
-------------------------------------------------------------------------------
  Youngs Moduli (GPa)     =      88.86373      88.86373      88.86373
-------------------------------------------------------------------------------
  Poissons Ratio (x)      =                     0.17321       0.17321
  Poissons Ratio (y)      =       0.17321                     0.17321
  Poissons Ratio (z)      =       0.17321       0.17321
-------------------------------------------------------------------------------


  Piezoelectric Strain Matrix: (Units=C/m**2)

-------------------------------------------------------------------------------
  Indices      1         2         3         4         5         6    
-------------------------------------------------------------------------------
       x    -0.00000  -0.00000  -0.00000   0.00000  -0.00000  -0.00000
       y    -0.00000  -0.00000   0.00000  -0.00000   0.00000   0.00000
       z    -0.00000  -0.00000  -0.00000  -0.00000   0.00000   0.00000
-------------------------------------------------------------------------------


  Piezoelectric Stress Matrix: (Units=10**-11 C/N)

-------------------------------------------------------------------------------
  Indices      1         2         3         4         5         6    
-------------------------------------------------------------------------------
       x    -0.00000   0.00000   0.00000   0.00000  -0.00000  -0.00000
       y    -0.00000  -0.00000   0.00000  -0.00000   0.00000   0.00000
       z     0.00000   0.00000  -0.00000  -0.00000   0.00000   0.00000
-------------------------------------------------------------------------------


  Static dielectric constant tensor : 

-------------------------------------------------------------------------------
              x         y         z
-------------------------------------------------------------------------------
       x    22.84729   0.00000   0.00000
       y     0.00000  22.84729  -0.00000
       z     0.00000  -0.00000  22.84729
--------------------------------------------------------------------------------

  High frequency dielectric constant tensor : 

-------------------------------------------------------------------------------
              x         y         z
-------------------------------------------------------------------------------
       x     1.47557   0.00000  -0.00000
       y     0.00000   1.47557  -0.00000
       z    -0.00000  -0.00000   1.47557
-------------------------------------------------------------------------------

  Static refractive indices : 

-------------------------------------------------------------------------------
    1 =    4.77988      2 =    4.77988      3 =    4.77988
-------------------------------------------------------------------------------

  High frequency refractive indices : 

-------------------------------------------------------------------------------
    1 =    1.21473      2 =    1.21473      3 =    1.21473
-------------------------------------------------------------------------------


  Time to end of optimisation =       0.0090 seconds

********************************************************************************
*  Defect calculation for configuration   1 :                                  *
********************************************************************************

  Total number of defects =      1

  Total charge on defect  =  -1.00

  Defect centre is at   0.5000   0.5000   0.0000  Frac

  Region 1 radius =  10.0000      Number of ions =    312

  Number of symmetry inequivalent region 1 ions  =     41

  Region 2 radius =  24.0000      Number of ions =   4086

  Number of symmetry inequivalent region 2a ions =    343

  Region 2a mode = 4 : screened electrostatics due to region 1 
                       neglect correction to region 1 forces from 2a
                       region 2a displacements based on defects only

  Region 2a ions will only interact with defects in region 1

  Vacancies:

--------------------------------------------------------------------------------
    Specification type     Symbol/Number         x          y          z
--------------------------------------------------------------------------------
    Fractional                               0.500000   0.500000   0.000000
--------------------------------------------------------------------------------


  Symmetry reduced region 1 (Relative to defect centre) :

--------------------------------------------------------------------------------
   No.   Atomic       x            y             z       Radius  Multiplicity   
         Label      (Angs)       (Angs)        (Angs)    (Angs)     
--------------------------------------------------------------------------------
     1  O     c      0.0000       0.0000      -2.2539 *  0.0000     2          
     2  Cl    c      2.2539 *     2.2539       0.0000    0.0000     4          
     3  Na    c      2.2539 *     0.0000      -2.2539 *  0.0000     8          
     4  Na    c      0.0000       0.0000       4.5078 *  0.0000     2          
     5  Na    c      0.0000      -4.5078 *     0.0000    0.0000     4          
     6  O     c      0.0000      -4.5078 *    -2.2539 *  0.0000     8          
     7  Na    c      2.2539 *    -4.5078 *    -2.2539 *  0.0000    16          
     8  Cl    c      2.2539 *     2.2539       4.5078 *  0.0000     8          
     9  Na    c      0.0000      -4.5078 *     4.5078 *  0.0000     8          
    10  Na    c     -4.5078 *    -4.5078       0.0000    0.0000     4          
    11  O     c     -4.5078 *    -4.5078      -2.2539 *  0.0000     8          
    12  O     c      0.0000       0.0000       6.7617 *  0.0000     2          
    13  Cl    c      2.2539 *     6.7617 *     0.0000    0.0000     8          
    14  Na    c      2.2539 *     0.0000       6.7617 *  0.0000     8          
    15  Na    c      6.7617 *     0.0000      -2.2539 *  0.0000     8          
    16  Na    c      4.5078 *    -4.5078       4.5078 *  0.0000     8          
    17  O     c      0.0000      -4.5078 *     6.7617 *  0.0000     8          
    18  Cl    c      2.2539 *     6.7617 *     4.5078 *  0.0000    16          
    19  Na    c      2.2539 *    -4.5078 *     6.7617 *  0.0000    16          
    20  Na    c      6.7617 *    -4.5078 *    -2.2539 *  0.0000    16          
    21  Na    c      0.0000       0.0000       9.0156 *  0.0000     2          
    22  Na    c      0.0000       9.0156 *     0.0000    0.0000     4          
    23  O     c      0.0000       9.0156 *    -2.2539 *  0.0000     8          
    24  O     c      4.5078 *     4.5078       6.7617 *  0.0000     8          
    25  Cl    c      2.2539 *     2.2539       9.0156 *  0.0000     8          
    26  Na    c      2.2539 *     9.0156 *    -2.2539 *  0.0000    16          
    27  Cl    c      6.7617 *     6.7617       0.0000    0.0000     4          
    28  Na    c      6.7617 *     0.0000       6.7617 *  0.0000     8          
    29  O     s      0.0000       0.0000      -2.2539 *  0.0000     2          
    30  Cl    s      2.2539 *     2.2539       0.0000    0.0000     4          
    31  O     s      0.0000      -4.5078 *    -2.2539 *  0.0000     8          
    32  Cl    s      2.2539 *     2.2539       4.5078 *  0.0000     8          
    33  O     s     -4.5078 *    -4.5078      -2.2539 *  0.0000     8          
    34  O     s      0.0000       0.0000       6.7617 *  0.0000     2          
    35  Cl    s      2.2539 *     6.7617 *     0.0000    0.0000     8          
    36  O     s      0.0000      -4.5078 *     6.7617 *  0.0000     8          
    37  Cl    s      2.2539 *     6.7617 *     4.5078 *  0.0000    16          
    38  O     s      0.0000       9.0156 *    -2.2539 *  0.0000     8          
    39  O     s      4.5078 *     4.5078       6.7617 *  0.0000     8          
    40  Cl    s      2.2539 *     2.2539       9.0156 *  0.0000     8          
    41  Cl    s      6.7617 *     6.7617       0.0000    0.0000     4          
--------------------------------------------------------------------------------


  Constraints on symmetry reduced coordinates :

--------------------------------------------------------------------------------
  Constraint no.      Unconstrained     Constrained    Coefficient    
                         Variable         Variable
--------------------------------------------------------------------------------
           1                 2 x             2 y         1.00000
           2                 8 x             8 y         1.00000
           3                10 x            10 y         1.00000
           4                11 x            11 y         1.00000
           5                16 x            16 y        -1.00000
           6                24 x            24 y         1.00000
           7                25 x            25 y         1.00000
           8                27 x            27 y         1.00000
           9                30 x            30 y         1.00000
          10                32 x            32 y         1.00000
          11                33 x            33 y         1.00000
          12                39 x            39 y         1.00000
          13                40 x            40 y         1.00000
          14                41 x            41 y         1.00000
--------------------------------------------------------------------------------


  Components of defect energy : 

--------------------------------------------------------------------------------
  Region 1 - region 1                   =     18.95271314 eV
  Region 1 - region 2a (unrelaxed)      =    -10.38802009 eV
  Region 1 - 2a (relaxed - correction)  =     -0.79636823 eV
  Region 1 (Total)                      =      7.76832482 eV
  Region 2a                             =      0.39800290 eV
  Region 2b                             =     -0.28811914 eV
--------------------------------------------------------------------------------
  Total defect energy                   =      7.87820859 eV
--------------------------------------------------------------------------------

  Largest displacement in region 2 =   0.0272 Angstroms


  Number of variables =       75

  Maximum number of calculations  =        1000
  Maximum Hessian update interval =          10
  Maximum step size               =   1.0000000
  Maximum parameter tolerance     =   0.0000100
  Maximum function  tolerance     =   0.0000100
  Maximum gradient  tolerance     =   0.0010000

  Symmetry adapted optimisation

  Symmetry to be used for second derivatives

  Newton-Raphson optimiser to be used

  BFGS hessian update to be used

  Lower half triangular hessian to be used

  Start of defect optimisation :

  Cycle:      0 Defect Energy:   7.878209  Gnorm:     0.484662  CPU:    0.246
  ** Hessian calculated **
  Cycle:      1 Defect Energy:   6.749230  Gnorm:     0.348638  CPU:    0.581
  ** Hessian calculated **
  Cycle:      2 Defect Energy:   5.720240  Gnorm:     0.131393  CPU:    0.863
  Cycle:      3 Defect Energy:   5.466423  Gnorm:     0.144810  CPU:    1.139
  Cycle:      4 Defect Energy:   5.266726  Gnorm:     0.067711  CPU:    1.439
  Cycle:      5 Defect Energy:   5.090184  Gnorm:     0.059945  CPU:    1.790
  Cycle:      6 Defect Energy:   4.996089  Gnorm:     0.060163  CPU:    2.045
  Cycle:      7 Defect Energy:   4.897358  Gnorm:     0.070452  CPU:    2.356
  Cycle:      8 Defect Energy:   4.851253  Gnorm:     0.064580  CPU:    2.578
  Cycle:      9 Defect Energy:   4.819492  Gnorm:     0.047810  CPU:    2.799
  Cycle:     10 Defect Energy:   4.811318  Gnorm:     0.042868  CPU:    2.859
  Cycle:     11 Defect Energy:   4.797975  Gnorm:     0.039103  CPU:    2.921
  ** Hessian calculated **
  Cycle:     12 Defect Energy:   4.758759  Gnorm:     0.035384  CPU:    3.086
  Cycle:     13 Defect Energy:   4.707324  Gnorm:     0.029757  CPU:    3.152
  Cycle:     14 Defect Energy:   4.647076  Gnorm:     0.021104  CPU:    3.214
  Cycle:     15 Defect Energy:   4.617354  Gnorm:     0.014754  CPU:    3.277
  Cycle:     16 Defect Energy:   4.603563  Gnorm:     0.010312  CPU:    3.340
  Cycle:     17 Defect Energy:   4.597148  Gnorm:     0.007212  CPU:    3.402
  Cycle:     18 Defect Energy:   4.594180  Gnorm:     0.005045  CPU:    3.467
  Cycle:     19 Defect Energy:   4.592831  Gnorm:     0.003530  CPU:    3.549
  Cycle:     20 Defect Energy:   4.592238  Gnorm:     0.002470  CPU:    3.630
  Cycle:     21 Defect Energy:   4.591993  Gnorm:     0.001729  CPU:    3.697
  ** Hessian calculated **
  Cycle:     22 Defect Energy:   4.591905  Gnorm:     0.001210  CPU:    3.829
  Cycle:     23 Defect Energy:   4.591883  Gnorm:     0.000847  CPU:    3.890
  Cycle:     24 Defect Energy:   4.591888  Gnorm:     0.000593  CPU:    3.952
  Cycle:     25 Defect Energy:   4.591901  Gnorm:     0.000415  CPU:    4.014
  Cycle:     26 Defect Energy:   4.591914  Gnorm:     0.000291  CPU:    4.089
  Cycle:     27 Defect Energy:   4.591926  Gnorm:     0.000203  CPU:    4.171


  **** Optimisation achieved ****


  Final defect energy  =        4.59193560
  Final defect Gnorm   =        0.00014241

  Components of defect energy : 

--------------------------------------------------------------------------------
  Region 1 - region 1                   =     14.62609012 eV
  Region 1 - region 2a (unrelaxed)      =     -9.40193597 eV
  Region 1 - 2a (relaxed - correction)  =     -0.68821752 eV
  Region 1 (Total)                      =      4.53593663 eV
  Region 2a                             =      0.34411811 eV
  Region 2b                             =     -0.28811914 eV
--------------------------------------------------------------------------------
  Total defect energy                   =      4.59193560 eV
--------------------------------------------------------------------------------

  Largest displacement in region 2 =   0.0272 Angstroms

  Final coordinates of region 1 :

--------------------------------------------------------------------------------
   No.  Atomic        x           y           z          Radius      Charge
        Label       (Angs)      (Angs)      (Angs)       (Angs)       (e) 
--------------------------------------------------------------------------------
     1  O     c     2.253894    2.253894   -2.310544    0.000000    0.183000
     2  O     c     2.253894    2.253894    2.310544    0.000000    0.183000
     3  Cl    c     4.632444    4.632444    0.000000    0.000000    1.485000
     4  Cl    c     4.632444   -0.124657    0.000000    0.000000    1.485000
     5  Cl    c    -0.124657    4.632444    0.000000    0.000000    1.485000
     6  Cl    c    -0.124657   -0.124657    0.000000    0.000000    1.485000
     7  Na    c     4.430017    2.253894   -1.838038    0.000000    1.000000
     8  Na    c     4.430017    2.253894    1.838038    0.000000    1.000000
     9  Na    c     0.077770    2.253894   -1.838038    0.000000    1.000000
    10  Na    c     0.077770    2.253894    1.838038    0.000000    1.000000
    11  Na    c     2.253894    4.430017   -1.838038    0.000000    1.000000
    12  Na    c     2.253894    4.430017    1.838038    0.000000    1.000000
    13  Na    c     2.253894    0.077770   -1.838038    0.000000    1.000000
    14  Na    c     2.253894    0.077770    1.838038    0.000000    1.000000
    15  Na    c     2.253894    2.253894    4.493579    0.000000    1.000000
    16  Na    c     2.253894    2.253894   -4.493579    0.000000    1.000000
    17  Na    c     2.253894   -2.572563    0.000000    0.000000    1.000000
    18  Na    c    -2.572563    2.253894    0.000000    0.000000    1.000000
    19  Na    c     2.253894    7.080350    0.000000    0.000000    1.000000
    20  Na    c     7.080350    2.253894    0.000000    0.000000    1.000000
    21  O     c     2.253894   -2.213496   -2.231058    0.000000    0.183000
    22  O     c     2.253894   -2.213496    2.231058    0.000000    0.183000
    23  O     c    -2.213496    2.253894   -2.231058    0.000000    0.183000
    24  O     c    -2.213496    2.253894    2.231058    0.000000    0.183000
    25  O     c     2.253894    6.721283   -2.231058    0.000000    0.183000
    26  O     c     2.253894    6.721283    2.231058    0.000000    0.183000
    27  O     c     6.721283    2.253894   -2.231058    0.000000    0.183000
    28  O     c     6.721283    2.253894    2.231058    0.000000    0.183000
    29  Na    c     4.503595   -2.204078   -2.237870    0.000000    1.000000
    30  Na    c     4.503595   -2.204078    2.237870    0.000000    1.000000
    31  Na    c     0.004192   -2.204078   -2.237870    0.000000    1.000000
    32  Na    c     0.004192   -2.204078    2.237870    0.000000    1.000000
    33  Na    c    -2.204078    4.503595   -2.237870    0.000000    1.000000
    34  Na    c    -2.204078    4.503595    2.237870    0.000000    1.000000
    35  Na    c    -2.204078    0.004192   -2.237870    0.000000    1.000000
    36  Na    c    -2.204078    0.004192    2.237870    0.000000    1.000000
    37  Na    c     4.503595    6.711865   -2.237870    0.000000    1.000000
    38  Na    c     4.503595    6.711865    2.237870    0.000000    1.000000
    39  Na    c     0.004192    6.711865   -2.237870    0.000000    1.000000
    40  Na    c     0.004192    6.711865    2.237870    0.000000    1.000000
    41  Na    c     6.711865    4.503595   -2.237870    0.000000    1.000000
    42  Na    c     6.711865    4.503595    2.237870    0.000000    1.000000
    43  Na    c     6.711865    0.004192   -2.237870    0.000000    1.000000
    44  Na    c     6.711865    0.004192    2.237870    0.000000    1.000000
    45  Cl    c     4.604306    4.604306    4.630034    0.000000    1.485000
    46  Cl    c     4.604306    4.604306   -4.630034    0.000000    1.485000
    47  Cl    c     4.604306   -0.096519    4.630034    0.000000    1.485000
    48  Cl    c     4.604306   -0.096519   -4.630034    0.000000    1.485000
    49  Cl    c    -0.096519    4.604306    4.630034    0.000000    1.485000
    50  Cl    c    -0.096519    4.604306   -4.630034    0.000000    1.485000
    51  Cl    c    -0.096519   -0.096519    4.630034    0.000000    1.485000
    52  Cl    c    -0.096519   -0.096519   -4.630034    0.000000    1.485000
    53  Na    c     2.253894   -1.939538    4.481722    0.000000    1.000000
    54  Na    c     2.253894   -1.939538   -4.481722    0.000000    1.000000
    55  Na    c    -1.939538    2.253894    4.481722    0.000000    1.000000
    56  Na    c    -1.939538    2.253894   -4.481722    0.000000    1.000000
    57  Na    c     2.253894    6.447325    4.481722    0.000000    1.000000
    58  Na    c     2.253894    6.447325   -4.481722    0.000000    1.000000
    59  Na    c     6.447325    2.253894    4.481722    0.000000    1.000000
    60  Na    c     6.447325    2.253894   -4.481722    0.000000    1.000000
    61  Na    c    -2.246324   -2.246324    0.000000    0.000000    1.000000
    62  Na    c     6.754111   -2.246324    0.000000    0.000000    1.000000
    63  Na    c    -2.246324    6.754111    0.000000    0.000000    1.000000
    64  Na    c     6.754111    6.754111    0.000000    0.000000    1.000000
    65  O     c    -2.254869   -2.254869   -2.259725    0.000000    0.183000
    66  O     c    -2.254869   -2.254869    2.259725    0.000000    0.183000
    67  O     c     6.762656   -2.254869   -2.259725    0.000000    0.183000
    68  O     c     6.762656   -2.254869    2.259725    0.000000    0.183000
    69  O     c    -2.254869    6.762656   -2.259725    0.000000    0.183000
    70  O     c    -2.254869    6.762656    2.259725    0.000000    0.183000
    71  O     c     6.762656    6.762656   -2.259725    0.000000    0.183000
    72  O     c     6.762656    6.762656    2.259725    0.000000    0.183000
    73  O     c     2.253894    2.253894    6.784040    0.000000    0.183000
    74  O     c     2.253894    2.253894   -6.784040    0.000000    0.183000
    75  Cl    c     4.522388    9.034084    0.000000    0.000000    1.485000
    76  Cl    c     4.522388   -4.526297    0.000000    0.000000    1.485000
    77  Cl    c     9.034084    4.522388    0.000000    0.000000    1.485000
    78  Cl    c     9.034084   -0.014601    0.000000    0.000000    1.485000
    79  Cl    c    -0.014601    9.034084    0.000000    0.000000    1.485000
    80  Cl    c    -0.014601   -4.526297    0.000000    0.000000    1.485000
    81  Cl    c    -4.526297    4.522388    0.000000    0.000000    1.485000
    82  Cl    c    -4.526297   -0.014601    0.000000    0.000000    1.485000
    83  Na    c     4.494716    2.253894    6.838446    0.000000    1.000000
    84  Na    c     4.494716    2.253894   -6.838446    0.000000    1.000000
    85  Na    c     0.013071    2.253894    6.838446    0.000000    1.000000
    86  Na    c     0.013071    2.253894   -6.838446    0.000000    1.000000
    87  Na    c     2.253894    4.494716    6.838446    0.000000    1.000000
    88  Na    c     2.253894    4.494716   -6.838446    0.000000    1.000000
    89  Na    c     2.253894    0.013071    6.838446    0.000000    1.000000
    90  Na    c     2.253894    0.013071   -6.838446    0.000000    1.000000
    91  Na    c     8.980286    2.253894   -2.487815    0.000000    1.000000
    92  Na    c     8.980286    2.253894    2.487815    0.000000    1.000000
    93  Na    c    -4.472498    2.253894   -2.487815    0.000000    1.000000
    94  Na    c    -4.472498    2.253894    2.487815    0.000000    1.000000
    95  Na    c     2.253894    8.980286   -2.487815    0.000000    1.000000
    96  Na    c     2.253894    8.980286    2.487815    0.000000    1.000000
    97  Na    c     2.253894   -4.472498   -2.487815    0.000000    1.000000
    98  Na    c     2.253894   -4.472498    2.487815    0.000000    1.000000
    99  Na    c     6.743369   -2.235582    4.511602    0.000000    1.000000
   100  Na    c     6.743369   -2.235582   -4.511602    0.000000    1.000000
   101  Na    c    -2.235582    6.743369    4.511602    0.000000    1.000000
   102  Na    c    -2.235582    6.743369   -4.511602    0.000000    1.000000
   103  Na    c    -2.235582   -2.235582    4.511602    0.000000    1.000000
   104  Na    c    -2.235582   -2.235582   -4.511602    0.000000    1.000000
   105  Na    c     6.743369    6.743369    4.511602    0.000000    1.000000
   106  Na    c     6.743369    6.743369   -4.511602    0.000000    1.000000
   107  O     c     2.253894   -2.228914    6.749715    0.000000    0.183000
   108  O     c     2.253894   -2.228914   -6.749715    0.000000    0.183000
   109  O     c    -2.228914    2.253894    6.749715    0.000000    0.183000
   110  O     c    -2.228914    2.253894   -6.749715    0.000000    0.183000
   111  O     c     2.253894    6.736701    6.749715    0.000000    0.183000
   112  O     c     2.253894    6.736701   -6.749715    0.000000    0.183000
   113  O     c     6.736701    2.253894    6.749715    0.000000    0.183000
   114  O     c     6.736701    2.253894   -6.749715    0.000000    0.183000
   115  Cl    c     4.509883    9.064016    4.508504    0.000000    1.485000
   116  Cl    c     4.509883    9.064016   -4.508504    0.000000    1.485000
   117  Cl    c     4.509883   -4.556229    4.508504    0.000000    1.485000
   118  Cl    c     4.509883   -4.556229   -4.508504    0.000000    1.485000
   119  Cl    c     9.064016    4.509883    4.508504    0.000000    1.485000
   120  Cl    c     9.064016    4.509883   -4.508504    0.000000    1.485000
   121  Cl    c     9.064016   -0.002096    4.508504    0.000000    1.485000
   122  Cl    c     9.064016   -0.002096   -4.508504    0.000000    1.485000
   123  Cl    c    -0.002096    9.064016    4.508504    0.000000    1.485000
   124  Cl    c    -0.002096    9.064016   -4.508504    0.000000    1.485000
   125  Cl    c    -0.002096   -4.556229    4.508504    0.000000    1.485000
   126  Cl    c    -0.002096   -4.556229   -4.508504    0.000000    1.485000
   127  Cl    c    -4.556229    4.509883    4.508504    0.000000    1.485000
   128  Cl    c    -4.556229    4.509883   -4.508504    0.000000    1.485000
   129  Cl    c    -4.556229   -0.002096    4.508504    0.000000    1.485000
   130  Cl    c    -4.556229   -0.002096   -4.508504    0.000000    1.485000
   131  Na    c     4.509509   -2.246480    6.719078    0.000000    1.000000
   132  Na    c     4.509509   -2.246480   -6.719078    0.000000    1.000000
   133  Na    c    -0.001722   -2.246480    6.719078    0.000000    1.000000
   134  Na    c    -0.001722   -2.246480   -6.719078    0.000000    1.000000
   135  Na    c    -2.246480    4.509509    6.719078    0.000000    1.000000
   136  Na    c    -2.246480    4.509509   -6.719078    0.000000    1.000000
   137  Na    c    -2.246480   -0.001722    6.719078    0.000000    1.000000
   138  Na    c    -2.246480   -0.001722   -6.719078    0.000000    1.000000
   139  Na    c     4.509509    6.754267    6.719078    0.000000    1.000000
   140  Na    c     4.509509    6.754267   -6.719078    0.000000    1.000000
   141  Na    c    -0.001722    6.754267    6.719078    0.000000    1.000000
   142  Na    c    -0.001722    6.754267   -6.719078    0.000000    1.000000
   143  Na    c     6.754267    4.509509    6.719078    0.000000    1.000000
   144  Na    c     6.754267    4.509509   -6.719078    0.000000    1.000000
   145  Na    c     6.754267   -0.001722    6.719078    0.000000    1.000000
   146  Na    c     6.754267   -0.001722   -6.719078    0.000000    1.000000
   147  Na    c     9.011626   -2.241020   -2.264151    0.000000    1.000000
   148  Na    c     9.011626   -2.241020    2.264151    0.000000    1.000000
   149  Na    c    -4.503839   -2.241020   -2.264151    0.000000    1.000000
   150  Na    c    -4.503839   -2.241020    2.264151    0.000000    1.000000
   151  Na    c    -2.241020    9.011626   -2.264151    0.000000    1.000000
   152  Na    c    -2.241020    9.011626    2.264151    0.000000    1.000000
   153  Na    c    -2.241020   -4.503839   -2.264151    0.000000    1.000000
   154  Na    c    -2.241020   -4.503839    2.264151    0.000000    1.000000
   155  Na    c     9.011626    6.748808   -2.264151    0.000000    1.000000
   156  Na    c     9.011626    6.748808    2.264151    0.000000    1.000000
   157  Na    c    -4.503839    6.748808   -2.264151    0.000000    1.000000
   158  Na    c    -4.503839    6.748808    2.264151    0.000000    1.000000
   159  Na    c     6.748808    9.011626   -2.264151    0.000000    1.000000
   160  Na    c     6.748808    9.011626    2.264151    0.000000    1.000000
   161  Na    c     6.748808   -4.503839   -2.264151    0.000000    1.000000
   162  Na    c     6.748808   -4.503839    2.264151    0.000000    1.000000
   163  Na    c     2.253894    2.253894    9.037395    0.000000    1.000000
   164  Na    c     2.253894    2.253894   -9.037395    0.000000    1.000000
   165  Na    c     2.253894   11.133339    0.000000    0.000000    1.000000
   166  Na    c     2.253894   -6.625552    0.000000    0.000000    1.000000
   167  Na    c    11.133339    2.253894    0.000000    0.000000    1.000000
   168  Na    c    -6.625552    2.253894    0.000000    0.000000    1.000000
   169  O     c     2.253894   11.246317   -2.264607    0.000000    0.183000
   170  O     c     2.253894   11.246317    2.264607    0.000000    0.183000
   171  O     c     2.253894   -6.738530   -2.264607    0.000000    0.183000
   172  O     c     2.253894   -6.738530    2.264607    0.000000    0.183000
   173  O     c    11.246317    2.253894   -2.264607    0.000000    0.183000
   174  O     c    11.246317    2.253894    2.264607    0.000000    0.183000
   175  O     c    -6.738530    2.253894   -2.264607    0.000000    0.183000
   176  O     c    -6.738530    2.253894    2.264607    0.000000    0.183000
   177  O     c     6.772013    6.772013    6.771150    0.000000    0.183000
   178  O     c     6.772013    6.772013   -6.771150    0.000000    0.183000
   179  O     c     6.772013   -2.264226    6.771150    0.000000    0.183000
   180  O     c     6.772013   -2.264226   -6.771150    0.000000    0.183000
   181  O     c    -2.264226    6.772013    6.771150    0.000000    0.183000
   182  O     c    -2.264226    6.772013   -6.771150    0.000000    0.183000
   183  O     c    -2.264226   -2.264226    6.771150    0.000000    0.183000
   184  O     c    -2.264226   -2.264226   -6.771150    0.000000    0.183000
   185  Cl    c     4.489176    4.489176    9.063993    0.000000    1.485000
   186  Cl    c     4.489176    4.489176   -9.063993    0.000000    1.485000
   187  Cl    c     4.489176    0.018611    9.063993    0.000000    1.485000
   188  Cl    c     4.489176    0.018611   -9.063993    0.000000    1.485000
   189  Cl    c     0.018611    4.489176    9.063993    0.000000    1.485000
   190  Cl    c     0.018611    4.489176   -9.063993    0.000000    1.485000
   191  Cl    c     0.018611    0.018611    9.063993    0.000000    1.485000
   192  Cl    c     0.018611    0.018611   -9.063993    0.000000    1.485000
   193  Na    c     4.503801   11.243770   -2.232299    0.000000    1.000000
   194  Na    c     4.503801   11.243770    2.232299    0.000000    1.000000
   195  Na    c     4.503801   -6.735983   -2.232299    0.000000    1.000000
   196  Na    c     4.503801   -6.735983    2.232299    0.000000    1.000000
   197  Na    c     0.003986   11.243770   -2.232299    0.000000    1.000000
   198  Na    c     0.003986   11.243770    2.232299    0.000000    1.000000
   199  Na    c     0.003986   -6.735983   -2.232299    0.000000    1.000000
   200  Na    c     0.003986   -6.735983    2.232299    0.000000    1.000000
   201  Na    c    11.243770    4.503801   -2.232299    0.000000    1.000000
   202  Na    c    11.243770    4.503801    2.232299    0.000000    1.000000
   203  Na    c    11.243770    0.003986   -2.232299    0.000000    1.000000
   204  Na    c    11.243770    0.003986    2.232299    0.000000    1.000000
   205  Na    c    -6.735983    4.503801   -2.232299    0.000000    1.000000
   206  Na    c    -6.735983    4.503801    2.232299    0.000000    1.000000
   207  Na    c    -6.735983    0.003986   -2.232299    0.000000    1.000000
   208  Na    c    -6.735983    0.003986    2.232299    0.000000    1.000000
   209  Cl    c     9.048695    9.048695    0.000000    0.000000    1.485000
   210  Cl    c     9.048695   -4.540908    0.000000    0.000000    1.485000
   211  Cl    c    -4.540908    9.048695    0.000000    0.000000    1.485000
   212  Cl    c    -4.540908   -4.540908    0.000000    0.000000    1.485000
   213  Na    c     8.992925    2.253894    6.680530    0.000000    1.000000
   214  Na    c     8.992925    2.253894   -6.680530    0.000000    1.000000
   215  Na    c    -4.485138    2.253894    6.680530    0.000000    1.000000
   216  Na    c    -4.485138    2.253894   -6.680530    0.000000    1.000000
   217  Na    c     2.253894    8.992925    6.680530    0.000000    1.000000
   218  Na    c     2.253894    8.992925   -6.680530    0.000000    1.000000
   219  Na    c     2.253894   -4.485138    6.680530    0.000000    1.000000
   220  Na    c     2.253894   -4.485138   -6.680530    0.000000    1.000000
   221  O     s     2.253894    2.253894   -2.310675    0.000000   -2.183000
   222  O     s     2.253894    2.253894    2.310675    0.000000   -2.183000
   223  Cl    s     4.634196    4.634196    0.000000    0.000000   -2.485000
   224  Cl    s     4.634196   -0.126409    0.000000    0.000000   -2.485000
   225  Cl    s    -0.126409    4.634196    0.000000    0.000000   -2.485000
   226  Cl    s    -0.126409   -0.126409    0.000000    0.000000   -2.485000
   227  O     s     2.253894   -2.213567   -2.231042    0.000000   -2.183000
   228  O     s     2.253894   -2.213567    2.231042    0.000000   -2.183000
   229  O     s    -2.213567    2.253894   -2.231042    0.000000   -2.183000
   230  O     s    -2.213567    2.253894    2.231042    0.000000   -2.183000
   231  O     s     2.253894    6.721354   -2.231042    0.000000   -2.183000
   232  O     s     2.253894    6.721354    2.231042    0.000000   -2.183000
   233  O     s     6.721354    2.253894   -2.231042    0.000000   -2.183000
   234  O     s     6.721354    2.253894    2.231042    0.000000   -2.183000
   235  Cl    s     4.616584    4.616584    4.643864    0.000000   -2.485000
   236  Cl    s     4.616584    4.616584   -4.643864    0.000000   -2.485000
   237  Cl    s     4.616584   -0.108797    4.643864    0.000000   -2.485000
   238  Cl    s     4.616584   -0.108797   -4.643864    0.000000   -2.485000
   239  Cl    s    -0.108797    4.616584    4.643864    0.000000   -2.485000
   240  Cl    s    -0.108797    4.616584   -4.643864    0.000000   -2.485000
   241  Cl    s    -0.108797   -0.108797    4.643864    0.000000   -2.485000
   242  Cl    s    -0.108797   -0.108797   -4.643864    0.000000   -2.485000
   243  O     s    -2.254866   -2.254866   -2.259729    0.000000   -2.183000
   244  O     s    -2.254866   -2.254866    2.259729    0.000000   -2.183000
   245  O     s     6.762654   -2.254866   -2.259729    0.000000   -2.183000
   246  O     s     6.762654   -2.254866    2.259729    0.000000   -2.183000
   247  O     s    -2.254866    6.762654   -2.259729    0.000000   -2.183000
   248  O     s    -2.254866    6.762654    2.259729    0.000000   -2.183000
   249  O     s     6.762654    6.762654   -2.259729    0.000000   -2.183000
   250  O     s     6.762654    6.762654    2.259729    0.000000   -2.183000
   251  O     s     2.253894    2.253894    6.784125    0.000000   -2.183000
   252  O     s     2.253894    2.253894   -6.784125    0.000000   -2.183000
   253  Cl    s     4.519947    9.034709    0.000000    0.000000   -2.485000
   254  Cl    s     4.519947   -4.526922    0.000000    0.000000   -2.485000
   255  Cl    s     9.034709    4.519947    0.000000    0.000000   -2.485000
   256  Cl    s     9.034709   -0.012160    0.000000    0.000000   -2.485000
   257  Cl    s    -0.012160    9.034709    0.000000    0.000000   -2.485000
   258  Cl    s    -0.012160   -4.526922    0.000000    0.000000   -2.485000
   259  Cl    s    -4.526922    4.519947    0.000000    0.000000   -2.485000
   260  Cl    s    -4.526922   -0.012160    0.000000    0.000000   -2.485000
   261  O     s     2.253894   -2.228860    6.749736    0.000000   -2.183000
   262  O     s     2.253894   -2.228860   -6.749736    0.000000   -2.183000
   263  O     s    -2.228860    2.253894    6.749736    0.000000   -2.183000
   264  O     s    -2.228860    2.253894   -6.749736    0.000000   -2.183000
   265  O     s     2.253894    6.736647    6.749736    0.000000   -2.183000
   266  O     s     2.253894    6.736647   -6.749736    0.000000   -2.183000
   267  O     s     6.736647    2.253894    6.749736    0.000000   -2.183000
   268  O     s     6.736647    2.253894   -6.749736    0.000000   -2.183000
   269  Cl    s     4.507456    9.070295    4.506892    0.000000   -2.485000
   270  Cl    s     4.507456    9.070295   -4.506892    0.000000   -2.485000
   271  Cl    s     4.507456   -4.562507    4.506892    0.000000   -2.485000
   272  Cl    s     4.507456   -4.562507   -4.506892    0.000000   -2.485000
   273  Cl    s     9.070295    4.507456    4.506892    0.000000   -2.485000
   274  Cl    s     9.070295    4.507456   -4.506892    0.000000   -2.485000
   275  Cl    s     9.070295    0.000331    4.506892    0.000000   -2.485000
   276  Cl    s     9.070295    0.000331   -4.506892    0.000000   -2.485000
   277  Cl    s     0.000331    9.070295    4.506892    0.000000   -2.485000
   278  Cl    s     0.000331    9.070295   -4.506892    0.000000   -2.485000
   279  Cl    s     0.000331   -4.562507    4.506892    0.000000   -2.485000
   280  Cl    s     0.000331   -4.562507   -4.506892    0.000000   -2.485000
   281  Cl    s    -4.562507    4.507456    4.506892    0.000000   -2.485000
   282  Cl    s    -4.562507    4.507456   -4.506892    0.000000   -2.485000
   283  Cl    s    -4.562507    0.000331    4.506892    0.000000   -2.485000
   284  Cl    s    -4.562507    0.000331   -4.506892    0.000000   -2.485000
   285  O     s     2.253894   11.246302   -2.264663    0.000000   -2.183000
   286  O     s     2.253894   11.246302    2.264663    0.000000   -2.183000
   287  O     s     2.253894   -6.738515   -2.264663    0.000000   -2.183000
   288  O     s     2.253894   -6.738515    2.264663    0.000000   -2.183000
   289  O     s    11.246302    2.253894   -2.264663    0.000000   -2.183000
   290  O     s    11.246302    2.253894    2.264663    0.000000   -2.183000
   291  O     s    -6.738515    2.253894   -2.264663    0.000000   -2.183000
   292  O     s    -6.738515    2.253894    2.264663    0.000000   -2.183000
   293  O     s     6.772027    6.772027    6.771150    0.000000   -2.183000
   294  O     s     6.772027    6.772027   -6.771150    0.000000   -2.183000
   295  O     s     6.772027   -2.264240    6.771150    0.000000   -2.183000
   296  O     s     6.772027   -2.264240   -6.771150    0.000000   -2.183000
   297  O     s    -2.264240    6.772027    6.771150    0.000000   -2.183000
   298  O     s    -2.264240    6.772027   -6.771150    0.000000   -2.183000
   299  O     s    -2.264240   -2.264240    6.771150    0.000000   -2.183000
   300  O     s    -2.264240   -2.264240   -6.771150    0.000000   -2.183000
   301  Cl    s     4.486081    4.486081    9.066908    0.000000   -2.485000
   302  Cl    s     4.486081    4.486081   -9.066908    0.000000   -2.485000
   303  Cl    s     4.486081    0.021706    9.066908    0.000000   -2.485000
   304  Cl    s     4.486081    0.021706   -9.066908    0.000000   -2.485000
   305  Cl    s     0.021706    4.486081    9.066908    0.000000   -2.485000
   306  Cl    s     0.021706    4.486081   -9.066908    0.000000   -2.485000
   307  Cl    s     0.021706    0.021706    9.066908    0.000000   -2.485000
   308  Cl    s     0.021706    0.021706   -9.066908    0.000000   -2.485000
   309  Cl    s     9.052124    9.052124    0.000000    0.000000   -2.485000
   310  Cl    s     9.052124   -4.544337    0.000000    0.000000   -2.485000
   311  Cl    s    -4.544337    9.052124    0.000000    0.000000   -2.485000
   312  Cl    s    -4.544337   -4.544337    0.000000    0.000000   -2.485000
--------------------------------------------------------------------------------

  Final coordinates of symmetry reduced region 1 (relative to defect centre):

--------------------------------------------------------------------------------
   No.  Atomic        x           y           z          Charge
        Label       (Angs)      (Angs)      (Angs)         (e) 
--------------------------------------------------------------------------------
     1  O     c     0.000000    0.000000   -2.310544    0.183000
     2  Cl    c     2.378551    2.378551    0.000000    1.485000
     3  Na    c     2.176124    0.000000   -1.838038    1.000000
     4  Na    c     0.000000    0.000000    4.493579    1.000000
     5  Na    c     0.000000   -4.826457    0.000000    1.000000
     6  O     c     0.000000   -4.467389   -2.231058    0.183000
     7  Na    c     2.249701   -4.457972   -2.237870    1.000000
     8  Cl    c     2.350412    2.350412    4.630034    1.485000
     9  Na    c     0.000000   -4.193432    4.481722    1.000000
    10  Na    c    -4.500218   -4.500218    0.000000    1.000000
    11  O     c    -4.508762   -4.508762   -2.259725    0.183000
    12  O     c     0.000000    0.000000    6.784040    0.183000
    13  Cl    c     2.268495    6.780190    0.000000    1.485000
    14  Na    c     2.240822    0.000000    6.838446    1.000000
    15  Na    c     6.726392    0.000000   -2.487815    1.000000
    16  Na    c     4.489476   -4.489476    4.511602    1.000000
    17  O     c     0.000000   -4.482807    6.749715    0.183000
    18  Cl    c     2.255990    6.810123    4.508504    1.485000
    19  Na    c     2.255616   -4.500374    6.719078    1.000000
    20  Na    c     6.757732   -4.494914   -2.264151    1.000000
    21  Na    c     0.000000    0.000000    9.037395    1.000000
    22  Na    c     0.000000    8.879445    0.000000    1.000000
    23  O     c     0.000000    8.992423   -2.264607    0.183000
    24  O     c     4.518119    4.518119    6.771150    0.183000
    25  Cl    c     2.235283    2.235283    9.063993    1.485000
    26  Na    c     2.249907    8.989877   -2.232299    1.000000
    27  Cl    c     6.794802    6.794802    0.000000    1.485000
    28  Na    c     6.739032    0.000000    6.680530    1.000000
    29  O     s     0.000000    0.000000   -2.310675   -2.183000
    30  Cl    s     2.380303    2.380303    0.000000   -2.485000
    31  O     s     0.000000   -4.467461   -2.231042   -2.183000
    32  Cl    s     2.362690    2.362690    4.643864   -2.485000
    33  O     s    -4.508760   -4.508760   -2.259729   -2.183000
    34  O     s     0.000000    0.000000    6.784125   -2.183000
    35  Cl    s     2.266053    6.780816    0.000000   -2.485000
    36  O     s     0.000000   -4.482754    6.749736   -2.183000
    37  Cl    s     2.253562    6.816401    4.506892   -2.485000
    38  O     s     0.000000    8.992409   -2.264663   -2.183000
    39  O     s     4.518133    4.518133    6.771150   -2.183000
    40  Cl    s     2.232188    2.232188    9.066908   -2.485000
    41  Cl    s     6.798231    6.798231    0.000000   -2.485000
--------------------------------------------------------------------------------


  Final derivatives for region 1 :

--------------------------------------------------------------------------------
   No.  Atomic          x             y             z            Radius
        Label       (eV/Angs)     (eV/Angs)     (eV/Angs)       (eV/Angs)
--------------------------------------------------------------------------------
     1  O     c       0.000000      0.000000     -0.001252      0.000000
     2  Cl    c      -0.001173      0.000000      0.000000      0.000000
     3  Na    c      -0.000171      0.000000      0.000086      0.000000
     4  Na    c       0.000000      0.000000      0.000077      0.000000
     5  Na    c       0.000000     -0.000006      0.000000      0.000000
     6  O     c       0.000000     -0.001981     -0.002425      0.000000
     7  Na    c      -0.000245      0.000131     -0.000042      0.000000
     8  Cl    c      -0.001427      0.000000     -0.000376      0.000000
     9  Na    c       0.000000      0.000238      0.000270      0.000000
    10  Na    c       0.000359      0.000000      0.000000      0.000000
    11  O     c      -0.002307      0.000000     -0.000335      0.000000
    12  O     c       0.000000      0.000000     -0.000567      0.000000
    13  Cl    c       0.000212     -0.000039      0.000000      0.000000
    14  Na    c       0.000021      0.000000      0.000021      0.000000
    15  Na    c      -0.000281      0.000000     -0.000612      0.000000
    16  Na    c       0.000030      0.000000     -0.000135      0.000000
    17  O     c       0.000000     -0.003625      0.001395      0.000000
    18  Cl    c       0.001112     -0.001347      0.000365      0.000000
    19  Na    c      -0.000031      0.000072     -0.000286      0.000000
    20  Na    c      -0.000269     -0.000138      0.000889      0.000000
    21  Na    c       0.000000      0.000000     -0.000026      0.000000
    22  Na    c       0.000000     -0.000172      0.000000      0.000000
    23  O     c       0.000000      0.002981      0.002830      0.000000
    24  O     c      -0.001611      0.000000     -0.000252      0.000000
    25  Cl    c       0.001031      0.000000     -0.000634      0.000000
    26  Na    c      -0.000082      0.000086      0.000219      0.000000
    27  Cl    c      -0.000411      0.000000      0.000000      0.000000
    28  Na    c      -0.000141      0.000000     -0.000132      0.000000
    29  O     s       0.000000      0.000000     -0.000795      0.000000
    30  Cl    s      -0.000426      0.000000      0.000000      0.000000
    31  O     s       0.000000      0.000348     -0.000348      0.000000
    32  Cl    s      -0.003120      0.000000     -0.002357      0.000000
    33  O     s       0.000250      0.000000      0.000088      0.000000
    34  O     s       0.000000      0.000000     -0.000765      0.000000
    35  Cl    s      -0.000609     -0.000166      0.000000      0.000000
    36  O     s       0.000000     -0.003565      0.001079      0.000000
    37  Cl    s       0.000333     -0.001614     -0.000214      0.000000
    38  O     s       0.000000      0.001699      0.003254      0.000000
    39  O     s      -0.001694      0.000000     -0.000478      0.000000
    40  Cl    s       0.001137      0.000000     -0.000157      0.000000
    41  Cl    s      -0.000071      0.000000      0.000000      0.000000
--------------------------------------------------------------------------------

  Comparison of initial and final region 1 : 

--------------------------------------------------------------------------------
  Parameter   Initial value   Final value   Difference    Units      Percent
--------------------------------------------------------------------------------
      1 x          2.253894      2.253894     0.000000    Cartesian    0.00
      1 y          2.253894      2.253894     0.000000    Cartesian    0.00
      1 z         -2.253894     -2.310544    -0.056650    Cartesian    2.51
      2 x          4.507787      4.632444     0.124657    Cartesian    2.77
      2 y          4.507787      4.632444     0.124657    Cartesian    2.77
      2 z          0.000000      0.000000     0.000000    Cartesian    0.00
      3 x          4.507787      4.430017    -0.077770    Cartesian   -1.73
      3 y          2.253894      2.253894     0.000000    Cartesian    0.00
      3 z         -2.253894     -1.838038     0.415856    Cartesian  -18.45
      4 x          2.253894      2.253894     0.000000    Cartesian    0.00
      4 y          2.253894      2.253894     0.000000    Cartesian    0.00
      4 z          4.507787      4.493579    -0.014208    Cartesian   -0.32
      5 x          2.253894      2.253894     0.000000    Cartesian    0.00
      5 y         -2.253894     -2.572563    -0.318669    Cartesian   14.14
      5 z          0.000000      0.000000     0.000000    Cartesian    0.00
      6 x          2.253894      2.253894     0.000000    Cartesian    0.00
      6 y         -2.253894     -2.213496     0.040398    Cartesian   -1.79
      6 z         -2.253894     -2.231058     0.022835    Cartesian   -1.01
      7 x          4.507787      4.503595    -0.004192    Cartesian   -0.09
      7 y         -2.253894     -2.204078     0.049815    Cartesian   -2.21
      7 z         -2.253894     -2.237870     0.016024    Cartesian   -0.71
      8 x          4.507787      4.604306     0.096519    Cartesian    2.14
      8 y          4.507787      4.604306     0.096519    Cartesian    2.14
      8 z          4.507787      4.630034     0.122247    Cartesian    2.71
      9 x          2.253894      2.253894     0.000000    Cartesian    0.00
      9 y         -2.253894     -1.939538     0.314355    Cartesian  -13.95
      9 z          4.507787      4.481722    -0.026065    Cartesian   -0.58
     10 x         -2.253894     -2.246324     0.007570    Cartesian   -0.34
     10 y         -2.253894     -2.246324     0.007570    Cartesian   -0.34
     10 z          0.000000      0.000000     0.000000    Cartesian    0.00
     11 x         -2.253894     -2.254869    -0.000975    Cartesian    0.04
     11 y         -2.253894     -2.254869    -0.000975    Cartesian    0.04
     11 z         -2.253894     -2.259725    -0.005831    Cartesian    0.26
     12 x          2.253894      2.253894     0.000000    Cartesian    0.00
     12 y          2.253894      2.253894     0.000000    Cartesian    0.00
     12 z          6.761681      6.784040     0.022359    Cartesian    0.33
     13 x          4.507787      4.522388     0.014601    Cartesian    0.32
     13 y          9.015574      9.034084     0.018509    Cartesian    0.21
     13 z          0.000000      0.000000     0.000000    Cartesian    0.00
     14 x          4.507787      4.494716    -0.013071    Cartesian   -0.29
     14 y          2.253894      2.253894     0.000000    Cartesian    0.00
     14 z          6.761681      6.838446     0.076765    Cartesian    1.14
     15 x          9.015574      8.980286    -0.035289    Cartesian   -0.39
     15 y          2.253894      2.253894     0.000000    Cartesian    0.00
     15 z         -2.253894     -2.487815    -0.233922    Cartesian   10.38
     16 x          6.761681      6.743369    -0.018311    Cartesian   -0.27
     16 y         -2.253894     -2.235582     0.018311    Cartesian   -0.81
     16 z          4.507787      4.511602     0.003815    Cartesian    0.08
     17 x          2.253894      2.253894     0.000000    Cartesian    0.00
     17 y         -2.253894     -2.228914     0.024980    Cartesian   -1.11
     17 z          6.761681      6.749715    -0.011966    Cartesian   -0.18
     18 x          4.507787      4.509883     0.002096    Cartesian    0.05
     18 y          9.015574      9.064016     0.048442    Cartesian    0.54
     18 z          4.507787      4.508504     0.000717    Cartesian    0.02
     19 x          4.507787      4.509509     0.001722    Cartesian    0.04
     19 y         -2.253894     -2.246480     0.007413    Cartesian   -0.33
     19 z          6.761681      6.719078    -0.042603    Cartesian   -0.63
     20 x          9.015574      9.011626    -0.003949    Cartesian   -0.04
     20 y         -2.253894     -2.241020     0.012873    Cartesian   -0.57
     20 z         -2.253894     -2.264151    -0.010257    Cartesian    0.46
     21 x          2.253894      2.253894     0.000000    Cartesian    0.00
     21 y          2.253894      2.253894     0.000000    Cartesian    0.00
     21 z          9.015574      9.037395     0.021820    Cartesian    0.24
     22 x          2.253894      2.253894     0.000000    Cartesian    0.00
     22 y         11.269468     11.133339    -0.136129    Cartesian   -1.21
     22 z          0.000000      0.000000     0.000000    Cartesian    0.00
     23 x          2.253894      2.253894     0.000000    Cartesian    0.00
     23 y         11.269468     11.246317    -0.023151    Cartesian   -0.21
     23 z         -2.253894     -2.264607    -0.010714    Cartesian    0.48
     24 x          6.761681      6.772013     0.010332    Cartesian    0.15
     24 y          6.761681      6.772013     0.010332    Cartesian    0.15
     24 z          6.761681      6.771150     0.009470    Cartesian    0.14
     25 x          4.507787      4.489176    -0.018611    Cartesian   -0.41
     25 y          4.507787      4.489176    -0.018611    Cartesian   -0.41
     25 z          9.015574      9.063993     0.048419    Cartesian    0.54
     26 x          4.507787      4.503801    -0.003986    Cartesian   -0.09
     26 y         11.269468     11.243770    -0.025698    Cartesian   -0.23
     26 z         -2.253894     -2.232299     0.021595    Cartesian   -0.96
     27 x          9.015574      9.048695     0.033121    Cartesian    0.37
     27 y          9.015574      9.048695     0.033121    Cartesian    0.37
     27 z          0.000000      0.000000     0.000000    Cartesian    0.00
     28 x          9.015574      8.992925    -0.022649    Cartesian   -0.25
     28 y          2.253894      2.253894     0.000000    Cartesian    0.00
     28 z          6.761681      6.680530    -0.081151    Cartesian   -1.20
     29 x          2.253894      2.253894     0.000000    Cartesian    0.00
     29 y          2.253894      2.253894     0.000000    Cartesian    0.00
     29 z         -2.253894     -2.310675    -0.056782    Cartesian    2.52
     30 x          4.507787      4.634196     0.126409    Cartesian    2.80
     30 y          4.507787      4.634196     0.126409    Cartesian    2.80
     30 z          0.000000      0.000000     0.000000    Cartesian    0.00
     31 x          2.253894      2.253894     0.000000    Cartesian    0.00
     31 y         -2.253894     -2.213567     0.040326    Cartesian   -1.79
     31 z         -2.253894     -2.231042     0.022852    Cartesian   -1.01
     32 x          4.507787      4.616584     0.108797    Cartesian    2.41
     32 y          4.507787      4.616584     0.108797    Cartesian    2.41
     32 z          4.507787      4.643864     0.136077    Cartesian    3.02
     33 x         -2.253894     -2.254866    -0.000973    Cartesian    0.04
     33 y         -2.253894     -2.254866    -0.000973    Cartesian    0.04
     33 z         -2.253894     -2.259729    -0.005835    Cartesian    0.26
     34 x          2.253894      2.253894     0.000000    Cartesian    0.00
     34 y          2.253894      2.253894     0.000000    Cartesian    0.00
     34 z          6.761681      6.784125     0.022445    Cartesian    0.33
     35 x          4.507787      4.519947     0.012160    Cartesian    0.27
     35 y          9.015574      9.034709     0.019135    Cartesian    0.21
     35 z          0.000000      0.000000     0.000000    Cartesian    0.00
     36 x          2.253894      2.253894     0.000000    Cartesian    0.00
     36 y         -2.253894     -2.228860     0.025034    Cartesian   -1.11
     36 z          6.761681      6.749736    -0.011945    Cartesian   -0.18
     37 x          4.507787      4.507456    -0.000331    Cartesian   -0.01
     37 y          9.015574      9.070295     0.054720    Cartesian    0.61
     37 z          4.507787      4.506892    -0.000895    Cartesian   -0.02
     38 x          2.253894      2.253894     0.000000    Cartesian    0.00
     38 y         11.269468     11.246302    -0.023166    Cartesian   -0.21
     38 z         -2.253894     -2.264663    -0.010769    Cartesian    0.48
     39 x          6.761681      6.772027     0.010346    Cartesian    0.15
     39 y          6.761681      6.772027     0.010346    Cartesian    0.15
     39 z          6.761681      6.771150     0.009469    Cartesian    0.14
     40 x          4.507787      4.486081    -0.021706    Cartesian   -0.48
     40 y          4.507787      4.486081    -0.021706    Cartesian   -0.48
     40 z          9.015574      9.066908     0.051334    Cartesian    0.57
     41 x          9.015574      9.052124     0.036550    Cartesian    0.41
     41 y          9.015574      9.052124     0.036550    Cartesian    0.41
     41 z          0.000000      0.000000     0.000000    Cartesian    0.00
--------------------------------------------------------------------------------


  Time to end of optimisation  =        4.2522 seconds


  Peak dynamic memory used =      20.82 MB 


  Timing analysis for GULP :

--------------------------------------------------------------------------------
  Task / Subroutine                                          Time (Seconds)
--------------------------------------------------------------------------------
  Calculation of reciprocal space energy and derivatives          0.0002
  Calculation of reciprocal space energy using symmetry           0.0003
  Calculation of real space energy and derivatives                0.0012
  Calculation of real space energy using symmetry                 0.0028
  Calculation for region 1 energy and derivatives (2-b)           0.8652
  Calculation for region 2a energy                                3.3166
  Calculation and manipulation of Hessian matrix                  0.0152
  Calculation of matrix inversion                                 0.0005
  Symmetry generation of equivalent positions                     0.0015
--------------------------------------------------------------------------------
  Total CPU time                                                  4.2523
--------------------------------------------------------------------------------


  Dump file written as Na3OCl.grs


  Job Finished at 14:32.51  2nd January    2021                               

