********************************************************************************
*                       GENERAL UTILITY LATTICE PROGRAM                        *
*                                 Julian Gale                                  *
*                       Curtin Institute for Computation                       *
*                    School of Molecular and Life Sciences                     *
*                    Curtin University, Western Australia                      *
********************************************************************************
* Version = 5.2.0 * Last modified =  10th September 2020                       *
********************************************************************************
*  optimise     - perform optimisation run                                     *
*  conp         - constant pressure calculation                                *
*  property     - calculate properties for final geometry                      *
*  defect       - perform defect calculation after bulk run                    *
*  compare      - compare initial and final structures                         *
********************************************************************************

  Job Started  at 11:38.18  2nd January    2021                               

  Number of CPUs =     1


  Total number of configurations input =      1

********************************************************************************
*  Input for Configuration =   1                                               *
********************************************************************************

  Formula = ClONa3                                                      

  Number of irreducible atoms/shells =       5


  Total number atoms/shells =       7

  Dimensionality = 3               :  Bulk   


  Symmetry :

  Crystal family                   :  Cubic       
  Crystal class  (Groth - 1921)    :  Cubic Hexakisoctahedral              

  Space group (centrosymmetric)    :  P M 3 M         

  Patterson group                  :  P m -3 m 

  Cartesian lattice vectors (Angstroms) :

        4.504000    0.000000    0.000000
        0.000000    4.504000    0.000000
        0.000000    0.000000    4.504000

  Cell parameters (Angstroms/Degrees):

  a =       4.5040    alpha =  90.0000
  b =       4.5040    beta  =  90.0000
  c =       4.5040    gamma =  90.0000

  Initial cell volume =          91.368216 Angs**3

  Temperature of configuration =   0.00     K 

  Pressure of configuration =         0.000 GPa 

  Fractional coordinates of asymmetric unit :

--------------------------------------------------------------------------------
   No.  Atomic       x           y          z         Charge      Occupancy
        Label      (Frac)      (Frac)     (Frac)        (e)         (Frac)  
--------------------------------------------------------------------------------
      1 Cl    c    0.000000    0.000000    0.000000     1.48500    1.000000    
      2 O     c    0.500000    0.500000    0.500000     0.18300    1.000000    
      3 Na    c    0.500000    0.500000    0.000000     1.00000    1.000000    
      4 Cl    s    0.000000    0.000000    0.000000    -2.48500    1.000000    
      5 O     s    0.500000    0.500000    0.500000    -2.18300    1.000000    
--------------------------------------------------------------------------------


  Constraints : 

--------------------------------------------------------------------------------
  Constraint no.      Unconstrained     Constrained    Coefficient    Offset
                         Variable         Variable
--------------------------------------------------------------------------------
           1              Strain 1        Strain 2       1.00000      0.0000
           2              Strain 1        Strain 3       1.00000      0.0000
--------------------------------------------------------------------------------


********************************************************************************
*  General input information                                                   *
********************************************************************************

  Species output for all configurations : 

--------------------------------------------------------------------------------
  Species    Type    Atomic    Atomic    Charge       Radii (Angs)     Library
                     Number     Mass       (e)     Cova   Ionic  VDW   Symbol
--------------------------------------------------------------------------------
    Na       Core       11      22.99   1.000000   0.970  0.000  2.300          
    O        Core        8      16.00   0.183000   0.730  0.000  1.360          
    O        Shell       8       0.00  -2.183000   0.730  0.000  1.360          
    Cl       Core       17      35.45   1.485000   0.990  0.000  1.650          
    Cl       Shell      17       0.00  -2.485000   0.990  0.000  1.650          
    Mg       Core       12      24.31   0.415000   1.100  0.000  0.000          
    Mg       Shell      12       0.00   1.585000   1.100  0.000  0.000          
    Ca       Core       20      40.08  -1.135000   0.990  0.000  0.000          
    Ca       Shell      20       0.00   3.135000   0.990  0.000  0.000          
    Sr       Core       38      87.62  -1.251000   1.120  0.000  0.000          
    Sr       Shell      38       0.00   3.251000   1.120  0.000  0.000          
    Ba       Core       56     137.33  -7.203000   1.340  0.000  0.000          
    Ba       Shell      56       0.00   9.203000   1.340  0.000  0.000          
--------------------------------------------------------------------------------


  Lattice summation method               =    Ewald          (3-D)
                                         =    Parry          (2-D)
                                         =    Saunders et al (1-D)
  Accuracy factor for lattice sums       =   12.000


  Analytic derivatives to be used

  Time limit = Infinity

  Maximum range for interatomic potentials =    100000.000000 Angstroms

  General interatomic potentials :

--------------------------------------------------------------------------------
Atom  Types   Potential      Parameter       Value         Units   Cutoffs(Ang)
  1     2                                                            Min /  Max 
--------------------------------------------------------------------------------
O    c O    s Spring (c-s)  Spring k 2       593.71600    eV*Ang^-2 0.000  0.800
                            Spring k 4       0.0000000    eV*Ang^-4 
--------------------------------------------------------------------------------
Cl   c Cl   s Spring (c-s)  Spring k 2       29.380000    eV*Ang^-2 0.000  0.800
                            Spring k 4       0.0000000    eV*Ang^-4 
--------------------------------------------------------------------------------
Mg   c Mg   s Spring (c-s)  Spring k 2       361.60000    eV*Ang^-2 0.000  0.800
                            Spring k 4       0.0000000    eV*Ang^-4 
--------------------------------------------------------------------------------
Ca   c Ca   s Spring (c-s)  Spring k 2       110.20000    eV*Ang^-2 0.000  0.800
                            Spring k 4       0.0000000    eV*Ang^-4 
--------------------------------------------------------------------------------
Sr   c Sr   s Spring (c-s)  Spring k 2       71.700000    eV*Ang^-2 0.000  0.800
                            Spring k 4       0.0000000    eV*Ang^-4 
--------------------------------------------------------------------------------
Ba   c Ba   s Spring (c-s)  Spring k 2       495.20000    eV*Ang^-2 0.000  0.800
                            Spring k 4       0.0000000    eV*Ang^-4 
--------------------------------------------------------------------------------
Na   c Na   c Buckingham    Buckingham A     1788.1900    eV        0.000 12.000
                            Buckingham rho  0.15900000    Ang       
                            Buckingham C     0.0000000    eV*Ang^6  
--------------------------------------------------------------------------------
Na   c O    s Buckingham    Buckingham A     1226.8400    eV        0.000 12.000
                            Buckingham rho  0.30700000    Ang       
                            Buckingham C     0.0000000    eV*Ang^6  
--------------------------------------------------------------------------------
Na   c Cl   s Buckingham    Buckingham A     2314.7000    eV        0.000 12.000
                            Buckingham rho  0.29000000    Ang       
                            Buckingham C     0.0000000    eV*Ang^6  
--------------------------------------------------------------------------------
O    s O    s Buckingham    Buckingham A     22764.300    eV        0.000 12.000
                            Buckingham rho  0.14900000    Ang       
                            Buckingham C     13.190000    eV*Ang^6  
--------------------------------------------------------------------------------
O    s Cl   s Buckingham    Buckingham A     8286.9100    eV        0.000 12.000
                            Buckingham rho  0.25900000    Ang       
                            Buckingham C     62.200000    eV*Ang^6  
--------------------------------------------------------------------------------
Cl   s Cl   s Buckingham    Buckingham A     1227.2000    eV        0.000 12.000
                            Buckingham rho  0.32100000    Ang       
                            Buckingham C     14.530000    eV*Ang^6  
--------------------------------------------------------------------------------
O    s Mg   s Buckingham    Buckingham A     1428.5000    eV        0.000 12.000
                            Buckingham rho  0.29450000    Ang       
                            Buckingham C     0.0000000    eV*Ang^6  
--------------------------------------------------------------------------------
Mg   s Cl   s Buckingham    Buckingham A     4914.5400    eV        0.000 12.000
                            Buckingham rho  0.25700000    Ang       
                            Buckingham C     0.0000000    eV*Ang^6  
--------------------------------------------------------------------------------
O    s Ca   s Buckingham    Buckingham A     1090.4000    eV        0.000 12.000
                            Buckingham rho  0.34370000    Ang       
                            Buckingham C     0.0000000    eV*Ang^6  
--------------------------------------------------------------------------------
Cl   s Ca   s Buckingham    Buckingham A     2302.0000    eV        0.000 12.000
                            Buckingham rho  0.34020000    Ang       
                            Buckingham C     0.0000000    eV*Ang^6  
--------------------------------------------------------------------------------
O    s Sr   s Buckingham    Buckingham A     959.10000    eV        0.000 12.000
                            Buckingham rho  0.37210000    Ang       
                            Buckingham C     0.0000000    eV*Ang^6  
--------------------------------------------------------------------------------
Cl   s Sr   s Buckingham    Buckingham A     2191.0900    eV        0.000 12.000
                            Buckingham rho  0.34570000    Ang       
                            Buckingham C     0.0000000    eV*Ang^6  
--------------------------------------------------------------------------------
O    s Ba   s Buckingham    Buckingham A     905.70000    eV        0.000 12.000
                            Buckingham rho  0.39760000    Ang       
                            Buckingham C     0.0000000    eV*Ang^6  
--------------------------------------------------------------------------------
Cl   s Ba   s Buckingham    Buckingham A     2704.5500    eV        0.000 12.000
                            Buckingham rho  0.35280000    Ang       
                            Buckingham C     0.0000000    eV*Ang^6  
--------------------------------------------------------------------------------

********************************************************************************
*  Output for configuration   1                                                *
********************************************************************************


  Components of energy : 

--------------------------------------------------------------------------------
  Interatomic potentials     =           5.13022605 eV    
  Monopole - monopole (real) =         -10.03624526 eV    
  Monopole - monopole (recip)=         -29.53581274 eV    
  Monopole - monopole (total)=         -39.57205800 eV    
--------------------------------------------------------------------------------
  Total lattice energy       =         -34.44183194 eV    
--------------------------------------------------------------------------------
  Total lattice energy       =           -3323.1103 kJ/(mole unit cells)
--------------------------------------------------------------------------------


  Number of variables =        1

  Maximum number of calculations  =          1000
  Maximum Hessian update interval =            10
  Maximum step size               =   1.000000000
  Maximum parameter tolerance     =   0.000010000
  Maximum function  tolerance     =   0.000010000
  Maximum gradient  tolerance     =   0.001000000
  Maximum gradient  component     =   0.010000000

  Symmetry constrained optimisation

  Symmetry used for second derivatives

  Cell parameters to be optimised using strains

  Newton-Raphson optimiser to be used

  BFGS hessian update to be used

  Lower half triangular hessian to be used

  Start of bulk optimisation :

  Cycle:      0 Energy:       -34.441832  Gnorm:      0.196570  CPU:    0.012
  ** Hessian calculated **
  Cycle:      1 Energy:       -34.441914  Gnorm:      0.000103  CPU:    0.014


  **** Optimisation achieved ****


  Final energy =     -34.44191447 eV
  Final Gnorm  =       0.00000000

  Components of energy : 

--------------------------------------------------------------------------------
  Interatomic potentials     =           5.09689708 eV    
  Monopole - monopole (real) =         -10.02781331 eV    
  Monopole - monopole (recip)=         -29.51099824 eV    
  Monopole - monopole (total)=         -39.53881155 eV    
--------------------------------------------------------------------------------
  Total lattice energy       =         -34.44191447 eV    
--------------------------------------------------------------------------------
  Total lattice energy       =           -3323.1183 kJ/(mole unit cells)
--------------------------------------------------------------------------------

  Final asymmetric unit coordinates :

--------------------------------------------------------------------------------
   No.  Atomic        x           y           z         Radius
        Label       (Frac)      (Frac)      (Frac)       (Angs) 
--------------------------------------------------------------------------------
     1  Cl    c     0.000000    0.000000    0.000000    0.000000
     2  O     c     0.500000    0.500000    0.500000    0.000000
     3  Na    c     0.500000    0.500000    0.000000    0.000000
     4  Cl    s     0.000000    0.000000    0.000000    0.000000
     5  O     s     0.500000    0.500000    0.500000    0.000000
--------------------------------------------------------------------------------

  Final Cartesian lattice vectors (Angstroms) :

        4.507787    0.000000    0.000000
        0.000000    4.507787    0.000000
        0.000000    0.000000    4.507787


  Final cell parameters and derivatives :

--------------------------------------------------------------------------------
       a            4.507787 Angstrom     dE/de1(xx)     0.000000 eV/strain
       b            4.507787 Angstrom     dE/de2(yy)     0.000000 eV/strain
       c            4.507787 Angstrom     dE/de3(zz)     0.000000 eV/strain
       alpha       90.000000 Degrees      dE/de4(yz)     0.000000 eV/strain
       beta        90.000000 Degrees      dE/de5(xz)     0.000000 eV/strain
       gamma       90.000000 Degrees      dE/de6(xy)     0.000000 eV/strain
--------------------------------------------------------------------------------

  Primitive cell volume =            91.598892 Angs**3

  Density of cell =      2.183054 g/cm**3

  Non-primitive cell volume =            91.598892 Angs**3


  Final internal derivatives :

--------------------------------------------------------------------------------
   No.  Atomic          a             b             c           Radius
        Label          (eV)          (eV)          (eV)        (eV/Angs)
--------------------------------------------------------------------------------
      1 Cl    c       0.000000      0.000000      0.000000      0.000000
      2 O     c       0.000000      0.000000      0.000000      0.000000
      3 Na    c       0.000000      0.000000      0.000000      0.000000
      4 Cl    s       0.000000      0.000000      0.000000      0.000000
      5 O     s       0.000000      0.000000      0.000000      0.000000
--------------------------------------------------------------------------------
  Maximum abs         0.000000      0.000000      0.000000      0.000000
--------------------------------------------------------------------------------

  Comparison of initial and final structures : 

--------------------------------------------------------------------------------
  Parameter   Initial value   Final value   Difference    Units      Percent
--------------------------------------------------------------------------------
    Volume        91.368216     91.598892     0.230676    Angs**3      0.25
    a              4.504000      4.507787     0.003787    Angstroms    0.08
    b              4.504000      4.507787     0.003787    Angstroms    0.08
    c              4.504000      4.507787     0.003787    Angstroms    0.08
    alpha         90.000000     90.000000     0.000000    Degrees      0.00
    beta          90.000000     90.000000     0.000000    Degrees      0.00
    gamma         90.000000     90.000000     0.000000    Degrees      0.00
      1 x          0.000000      0.000000     0.000000    Fractional   0.00
      1 y          0.000000      0.000000     0.000000    Fractional   0.00
      1 z          0.000000      0.000000     0.000000    Fractional   0.00
      2 x          0.500000      0.500000     0.000000    Fractional   0.00
      2 y          0.500000      0.500000     0.000000    Fractional   0.00
      2 z          0.500000      0.500000     0.000000    Fractional   0.00
      3 x          0.500000      0.500000     0.000000    Fractional   0.00
      3 y          0.500000      0.500000     0.000000    Fractional   0.00
      3 z          0.000000      0.000000     0.000000    Fractional   0.00
      4 x          0.000000      0.000000     0.000000    Fractional   0.00
      4 y          0.000000      0.000000     0.000000    Fractional   0.00
      4 z          0.000000      0.000000     0.000000    Fractional   0.00
      5 x          0.500000      0.500000     0.000000    Fractional   0.00
      5 y          0.500000      0.500000     0.000000    Fractional   0.00
      5 z          0.500000      0.500000     0.000000    Fractional   0.00
--------------------------------------------------------------------------------


  Born effective charge tensors : 

-------------------------------------------------------------------------------
  Atom             x           y             z
-------------------------------------------------------------------------------
    1 Cl    x      -1.0181     -0.0000      0.0000
            y      -0.0000     -1.0181      0.0000
            z       0.0000      0.0000     -1.0181
-------------------------------------------------------------------------------
    2 O     x      -2.2647      0.0000     -0.0000
            y       0.0000     -2.2647     -0.0000
            z      -0.0000     -0.0000     -2.2647
-------------------------------------------------------------------------------
    3 Na    x       1.2258     -0.0000      0.0000
            y      -0.0000      1.2258     -0.0000
            z       0.0000     -0.0000      0.8313
-------------------------------------------------------------------------------




  Elastic Constant Matrix: (Units=GPa)

-------------------------------------------------------------------------------
  Indices      1         2         3         4         5         6    
-------------------------------------------------------------------------------
       1     95.8177   20.0737   20.0737   -0.0000   -0.0000    0.0000
       2     20.0737   95.8177   20.0737   -0.0000   -0.0000    0.0000
       3     20.0737   20.0737   95.8177   -0.0000   -0.0000    0.0000
       4     -0.0000   -0.0000   -0.0000   20.0737   -0.0000    0.0000
       5     -0.0000   -0.0000   -0.0000   -0.0000   20.0737    0.0000
       6      0.0000    0.0000    0.0000    0.0000    0.0000   20.0737
-------------------------------------------------------------------------------


  Elastic Compliance Matrix: (Units=1/GPa)

-------------------------------------------------------------------------------
  Indices      1         2         3         4         5         6    
-------------------------------------------------------------------------------
       1    0.011253 -0.001949 -0.001949  0.000000  0.000000 -0.000000
       2   -0.001949  0.011253 -0.001949  0.000000  0.000000  0.000000
       3   -0.001949 -0.001949  0.011253  0.000000  0.000000 -0.000000
       4    0.000000  0.000000  0.000000  0.049816  0.000000 -0.000000
       5    0.000000  0.000000  0.000000  0.000000  0.049816 -0.000000
       6   -0.000000  0.000000 -0.000000 -0.000000 -0.000000  0.049816
-------------------------------------------------------------------------------

  Mechanical properties :

-------------------------------------------------------------------------------
  Convention :                    Reuss         Voigt         Hill
-------------------------------------------------------------------------------
  Bulk  Modulus (GPa)     =      45.32174      45.32174      45.32174
  Shear Modulus (GPa)     =      24.72085      27.19304      25.95695
-------------------------------------------------------------------------------
  Velocity S-wave (km/s)  =       3.36511       3.52937       3.44822
  Velocity P-wave (km/s)  =       5.98827       6.11304       6.05098
-------------------------------------------------------------------------------
  Compressibility (1/GPa) =    0.02206447
-------------------------------------------------------------------------------
  Stress axis :                     x             y             z
-------------------------------------------------------------------------------
  Youngs Moduli (GPa)     =      88.86373      88.86373      88.86373
-------------------------------------------------------------------------------
  Poissons Ratio (x)      =                     0.17321       0.17321
  Poissons Ratio (y)      =       0.17321                     0.17321
  Poissons Ratio (z)      =       0.17321       0.17321
-------------------------------------------------------------------------------


  Piezoelectric Strain Matrix: (Units=C/m**2)

-------------------------------------------------------------------------------
  Indices      1         2         3         4         5         6    
-------------------------------------------------------------------------------
       x    -0.00000  -0.00000  -0.00000   0.00000  -0.00000  -0.00000
       y    -0.00000  -0.00000   0.00000  -0.00000   0.00000   0.00000
       z    -0.00000  -0.00000  -0.00000  -0.00000   0.00000   0.00000
-------------------------------------------------------------------------------


  Piezoelectric Stress Matrix: (Units=10**-11 C/N)

-------------------------------------------------------------------------------
  Indices      1         2         3         4         5         6    
-------------------------------------------------------------------------------
       x    -0.00000   0.00000   0.00000   0.00000  -0.00000  -0.00000
       y    -0.00000  -0.00000   0.00000  -0.00000   0.00000   0.00000
       z     0.00000   0.00000  -0.00000  -0.00000   0.00000   0.00000
-------------------------------------------------------------------------------


  Static dielectric constant tensor : 

-------------------------------------------------------------------------------
              x         y         z
-------------------------------------------------------------------------------
       x    22.84729   0.00000   0.00000
       y     0.00000  22.84729  -0.00000
       z     0.00000  -0.00000  22.84729
--------------------------------------------------------------------------------

  High frequency dielectric constant tensor : 

-------------------------------------------------------------------------------
              x         y         z
-------------------------------------------------------------------------------
       x     1.47557   0.00000  -0.00000
       y     0.00000   1.47557  -0.00000
       z    -0.00000  -0.00000   1.47557
-------------------------------------------------------------------------------

  Static refractive indices : 

-------------------------------------------------------------------------------
    1 =    4.77988      2 =    4.77988      3 =    4.77988
-------------------------------------------------------------------------------

  High frequency refractive indices : 

-------------------------------------------------------------------------------
    1 =    1.21473      2 =    1.21473      3 =    1.21473
-------------------------------------------------------------------------------


  Time to end of optimisation =       0.0192 seconds

********************************************************************************
*  Defect calculation for configuration   1 :                                  *
********************************************************************************

  Total number of defects =      1

  Total charge on defect  =  -1.00

  Defect centre is at   0.5000   0.5000   0.0000  Frac

  Region 1 radius =  18.0000      Number of ions =   1834

  Number of symmetry inequivalent region 1 ions  =    176

  Region 2 radius =  24.0000      Number of ions =   2564

  Number of symmetry inequivalent region 2a ions =    208

  Region 2a mode = 4 : screened electrostatics due to region 1 
                       neglect correction to region 1 forces from 2a
                       region 2a displacements based on defects only

  Region 2a ions will only interact with defects in region 1

  Vacancies:

--------------------------------------------------------------------------------
    Specification type     Symbol/Number         x          y          z
--------------------------------------------------------------------------------
    Fractional                               0.500000   0.500000   0.000000
--------------------------------------------------------------------------------


  Symmetry reduced region 1 (Relative to defect centre) :

--------------------------------------------------------------------------------
   No.   Atomic       x            y             z       Radius  Multiplicity   
         Label      (Angs)       (Angs)        (Angs)    (Angs)     
--------------------------------------------------------------------------------
     1  O     c      0.0000       0.0000      -2.2539 *  0.0000     2          
     2  Cl    c      2.2539 *     2.2539       0.0000    0.0000     4          
     3  Na    c      2.2539 *     0.0000      -2.2539 *  0.0000     8          
     4  Na    c      0.0000       0.0000       4.5078 *  0.0000     2          
     5  Na    c      0.0000      -4.5078 *     0.0000    0.0000     4          
     6  O     c      0.0000      -4.5078 *    -2.2539 *  0.0000     8          
     7  Na    c      2.2539 *    -4.5078 *    -2.2539 *  0.0000    16          
     8  Cl    c      2.2539 *     2.2539       4.5078 *  0.0000     8          
     9  Na    c      0.0000      -4.5078 *     4.5078 *  0.0000     8          
    10  Na    c     -4.5078 *    -4.5078       0.0000    0.0000     4          
    11  O     c     -4.5078 *    -4.5078      -2.2539 *  0.0000     8          
    12  O     c      0.0000       0.0000       6.7617 *  0.0000     2          
    13  Cl    c      2.2539 *     6.7617 *     0.0000    0.0000     8          
    14  Na    c      2.2539 *     0.0000       6.7617 *  0.0000     8          
    15  Na    c      6.7617 *     0.0000      -2.2539 *  0.0000     8          
    16  Na    c      4.5078 *    -4.5078       4.5078 *  0.0000     8          
    17  O     c      0.0000      -4.5078 *     6.7617 *  0.0000     8          
    18  Cl    c      2.2539 *     6.7617 *     4.5078 *  0.0000    16          
    19  Na    c      2.2539 *    -4.5078 *     6.7617 *  0.0000    16          
    20  Na    c      6.7617 *    -4.5078 *    -2.2539 *  0.0000    16          
    21  Na    c      0.0000       0.0000       9.0156 *  0.0000     2          
    22  Na    c      0.0000       9.0156 *     0.0000    0.0000     4          
    23  O     c      0.0000       9.0156 *    -2.2539 *  0.0000     8          
    24  O     c      4.5078 *     4.5078       6.7617 *  0.0000     8          
    25  Cl    c      2.2539 *     2.2539       9.0156 *  0.0000     8          
    26  Na    c      2.2539 *     9.0156 *    -2.2539 *  0.0000    16          
    27  Cl    c      6.7617 *     6.7617       0.0000    0.0000     4          
    28  Na    c      6.7617 *     0.0000       6.7617 *  0.0000     8          
    29  Na    c      0.0000       9.0156 *     4.5078 *  0.0000     8          
    30  Na    c      0.0000      -4.5078 *     9.0156 *  0.0000     8          
    31  Na    c      9.0156 *    -4.5078 *     0.0000    0.0000     8          
    32  O     c      9.0156 *    -4.5078 *    -2.2539 *  0.0000    16          
    33  Cl    c      6.7617 *     6.7617       4.5078 *  0.0000     8          
    34  Na    c      6.7617 *    -4.5078 *     6.7617 *  0.0000    16          
    35  Na    c      9.0156 *    -4.5078 *     4.5078 *  0.0000    16          
    36  Na    c      4.5078 *     4.5078       9.0156 *  0.0000     8          
    37  O     c      0.0000       0.0000      11.2695 *  0.0000     2          
    38  O     c      0.0000       9.0156 *     6.7617 *  0.0000     8          
    39  Cl    c      2.2539 *    11.2695 *     0.0000    0.0000     8          
    40  Na    c      2.2539 *     0.0000      11.2695 *  0.0000     8          
    41  Na    c     11.2695 *     0.0000      -2.2539 *  0.0000     8          
    42  Cl    c      2.2539 *     6.7617 *     9.0156 *  0.0000    16          
    43  Na    c      2.2539 *     9.0156 *     6.7617 *  0.0000    16          
    44  Na    c      6.7617 *     9.0156 *    -2.2539 *  0.0000    16          
    45  O     c      0.0000       4.5078 *    11.2695 *  0.0000     8          
    46  O     c      4.5078 *     9.0156 *     6.7617 *  0.0000    16          
    47  Cl    c      2.2539 *    11.2695 *     4.5078 *  0.0000    16          
    48  Na    c      2.2539 *     4.5078 *    11.2695 *  0.0000    16          
    49  Na    c     11.2695 *     4.5078 *    -2.2539 *  0.0000    16          
    50  Na    c      0.0000       9.0156 *     9.0156 *  0.0000     8          
    51  Na    c      9.0156 *     9.0156       0.0000    0.0000     4          
    52  O     c     -4.5078 *    -4.5078      11.2695 *  0.0000     8          
    53  O     c      9.0156 *     9.0156      -2.2539 *  0.0000     8          
    54  Cl    c      6.7617 *    11.2695 *     0.0000    0.0000     8          
    55  Na    c      6.7617 *     0.0000      11.2695 *  0.0000     8          
    56  Na    c     11.2695 *     0.0000       6.7617 *  0.0000     8          
    57  Cl    c      6.7617 *     6.7617       9.0156 *  0.0000     8          
    58  Na    c      6.7617 *     9.0156 *     6.7617 *  0.0000    16          
    59  Na    c      9.0156 *     9.0156       4.5078 *  0.0000     8          
    60  Na    c      9.0156 *    -4.5078 *     9.0156 *  0.0000    16          
    61  Na    c      0.0000       0.0000      13.5234 *  0.0000     2          
    62  Na    c      0.0000      13.5234 *     0.0000    0.0000     4          
    63  O     c      0.0000      13.5234 *    -2.2539 *  0.0000     8          
    64  Cl    c      6.7617 *    11.2695 *     4.5078 *  0.0000    16          
    65  Na    c      6.7617 *    -4.5078 *    11.2695 *  0.0000    16          
    66  Na    c     11.2695 *     4.5078 *     6.7617 *  0.0000    16          
    67  Cl    c      2.2539 *     2.2539      13.5234 *  0.0000     8          
    68  Na    c      2.2539 *    13.5234 *    -2.2539 *  0.0000    16          
    69  Na    c      0.0000       4.5078 *    13.5234 *  0.0000     8          
    70  Na    c      0.0000      13.5234 *     4.5078 *  0.0000     8          
    71  Na    c      4.5078 *    13.5234 *     0.0000    0.0000     8          
    72  O     c      0.0000       9.0156 *    11.2695 *  0.0000     8          
    73  O     c      9.0156 *     9.0156       6.7617 *  0.0000     8          
    74  O     c      4.5078 *    13.5234 *    -2.2539 *  0.0000    16          
    75  Cl    c      2.2539 *    11.2695 *     9.0156 *  0.0000    16          
    76  Na    c      2.2539 *     9.0156 *    11.2695 *  0.0000    16          
    77  Na    c     11.2695 *     9.0156 *    -2.2539 *  0.0000    16          
    78  Na    c      4.5078 *    13.5234 *     4.5078 *  0.0000    16          
    79  Na    c      4.5078 *    -4.5078      13.5234 *  0.0000     8          
    80  O     c      4.5078 *     9.0156 *    11.2695 *  0.0000    16          
    81  O     c      0.0000      13.5234 *     6.7617 *  0.0000     8          
    82  Cl    c      2.2539 *     6.7617 *    13.5234 *  0.0000    16          
    83  Na    c      2.2539 *    13.5234 *     6.7617 *  0.0000    16          
    84  Na    c      6.7617 *    13.5234 *    -2.2539 *  0.0000    16          
    85  Na    c      9.0156 *     9.0156       9.0156 *  0.0000     8          
    86  O     c      0.0000       0.0000      15.7773 *  0.0000     2          
    87  O     c      4.5078 *    13.5234 *     6.7617 *  0.0000    16          
    88  Cl    c      2.2539 *   -15.7773 *     0.0000    0.0000     8          
    89  Cl    c      6.7617 *    11.2695 *     9.0156 *  0.0000    16          
    90  Cl    c     11.2695 *    11.2695       0.0000    0.0000     4          
    91  Na    c      2.2539 *     0.0000      15.7773 *  0.0000     8          
    92  Na    c     11.2695 *     0.0000      11.2695 *  0.0000     8          
    93  Na    c    -15.7773 *     0.0000      -2.2539 *  0.0000     8          
    94  Na    c      6.7617 *     9.0156 *    11.2695 *  0.0000    16          
    95  Na    c     11.2695 *     9.0156 *     6.7617 *  0.0000    16          
    96  Na    c      0.0000       9.0156 *    13.5234 *  0.0000     8          
    97  Na    c      0.0000      13.5234 *     9.0156 *  0.0000     8          
    98  Na    c      9.0156 *    13.5234 *     0.0000    0.0000     8          
    99  O     c      0.0000       4.5078 *    15.7773 *  0.0000     8          
   100  O     c      9.0156 *    13.5234 *    -2.2539 *  0.0000    16          
   101  Cl    c      2.2539 *   -15.7773 *     4.5078 *  0.0000    16          
   102  Cl    c     11.2695 *    11.2695       4.5078 *  0.0000     8          
   103  Na    c      2.2539 *     4.5078 *    15.7773 *  0.0000    16          
   104  Na    c     11.2695 *     4.5078 *    11.2695 *  0.0000    16          
   105  Cl    c      6.7617 *     6.7617      13.5234 *  0.0000     8          
   106  Na    c    -15.7773 *     4.5078 *    -2.2539 *  0.0000    16          
   107  Na    c      6.7617 *    13.5234 *     6.7617 *  0.0000    16          
   108  Na    c      4.5078 *    13.5234 *     9.0156 *  0.0000    16          
   109  Na    c      9.0156 *    13.5234 *     4.5078 *  0.0000    16          
   110  Na    c      9.0156 *    -4.5078 *    13.5234 *  0.0000    16          
   111  O     c      4.5078 *     4.5078      15.7773 *  0.0000     8          
   112  O     c      9.0156 *     9.0156      11.2695 *  0.0000     8          
   113  Cl    c      6.7617 *   -15.7773 *     0.0000    0.0000     8          
   114  Na    c      6.7617 *     0.0000      15.7773 *  0.0000     8          
   115  Na    c    -15.7773 *     0.0000       6.7617 *  0.0000     8          
   116  O     c      0.0000      13.5234 *    11.2695 *  0.0000     8          
   117  O     c      9.0156 *    13.5234 *     6.7617 *  0.0000    16          
   118  Cl    c      6.7617 *   -15.7773 *     4.5078 *  0.0000    16          
   119  Na    c      6.7617 *    -4.5078 *    15.7773 *  0.0000    16          
   120  Cl    c      2.2539 *    11.2695 *    13.5234 *  0.0000    16          
   121  Na    c      2.2539 *    13.5234 *    11.2695 *  0.0000    16          
   122  Na    c    -15.7773 *     4.5078 *     6.7617 *  0.0000    16          
   123  Na    c     11.2695 *    13.5234 *    -2.2539 *  0.0000    16          
   124  O     s      0.0000       0.0000      -2.2539 *  0.0000     2          
   125  Cl    s      2.2539 *     2.2539       0.0000    0.0000     4          
   126  O     s      0.0000      -4.5078 *    -2.2539 *  0.0000     8          
   127  Cl    s      2.2539 *     2.2539       4.5078 *  0.0000     8          
   128  O     s     -4.5078 *    -4.5078      -2.2539 *  0.0000     8          
   129  O     s      0.0000       0.0000       6.7617 *  0.0000     2          
   130  Cl    s      2.2539 *     6.7617 *     0.0000    0.0000     8          
   131  O     s      0.0000      -4.5078 *     6.7617 *  0.0000     8          
   132  Cl    s      2.2539 *     6.7617 *     4.5078 *  0.0000    16          
   133  O     s      0.0000       9.0156 *    -2.2539 *  0.0000     8          
   134  O     s      4.5078 *     4.5078       6.7617 *  0.0000     8          
   135  Cl    s      2.2539 *     2.2539       9.0156 *  0.0000     8          
   136  Cl    s      6.7617 *     6.7617       0.0000    0.0000     4          
   137  O     s      9.0156 *    -4.5078 *    -2.2539 *  0.0000    16          
   138  Cl    s      6.7617 *     6.7617       4.5078 *  0.0000     8          
   139  O     s      0.0000       0.0000      11.2695 *  0.0000     2          
   140  O     s      0.0000       9.0156 *     6.7617 *  0.0000     8          
   141  Cl    s      2.2539 *    11.2695 *     0.0000    0.0000     8          
   142  Cl    s      2.2539 *     6.7617 *     9.0156 *  0.0000    16          
   143  O     s      0.0000       4.5078 *    11.2695 *  0.0000     8          
   144  O     s      4.5078 *     9.0156 *     6.7617 *  0.0000    16          
   145  Cl    s      2.2539 *    11.2695 *     4.5078 *  0.0000    16          
   146  O     s     -4.5078 *    -4.5078      11.2695 *  0.0000     8          
   147  O     s      9.0156 *     9.0156      -2.2539 *  0.0000     8          
   148  Cl    s      6.7617 *    11.2695 *     0.0000    0.0000     8          
   149  Cl    s      6.7617 *     6.7617       9.0156 *  0.0000     8          
   150  O     s      0.0000      13.5234 *    -2.2539 *  0.0000     8          
   151  Cl    s      6.7617 *    11.2695 *     4.5078 *  0.0000    16          
   152  Cl    s      2.2539 *     2.2539      13.5234 *  0.0000     8          
   153  O     s      0.0000       9.0156 *    11.2695 *  0.0000     8          
   154  O     s      9.0156 *     9.0156       6.7617 *  0.0000     8          
   155  O     s      4.5078 *    13.5234 *    -2.2539 *  0.0000    16          
   156  Cl    s      2.2539 *    11.2695 *     9.0156 *  0.0000    16          
   157  O     s      4.5078 *     9.0156 *    11.2695 *  0.0000    16          
   158  O     s      0.0000      13.5234 *     6.7617 *  0.0000     8          
   159  Cl    s      2.2539 *     6.7617 *    13.5234 *  0.0000    16          
   160  O     s      0.0000       0.0000      15.7773 *  0.0000     2          
   161  O     s      4.5078 *    13.5234 *     6.7617 *  0.0000    16          
   162  Cl    s      2.2539 *   -15.7773 *     0.0000    0.0000     8          
   163  Cl    s      6.7617 *    11.2695 *     9.0156 *  0.0000    16          
   164  Cl    s     11.2695 *    11.2695       0.0000    0.0000     4          
   165  O     s      0.0000       4.5078 *    15.7773 *  0.0000     8          
   166  O     s      9.0156 *    13.5234 *    -2.2539 *  0.0000    16          
   167  Cl    s      2.2539 *   -15.7773 *     4.5078 *  0.0000    16          
   168  Cl    s     11.2695 *    11.2695       4.5078 *  0.0000     8          
   169  Cl    s      6.7617 *     6.7617      13.5234 *  0.0000     8          
   170  O     s      4.5078 *     4.5078      15.7773 *  0.0000     8          
   171  O     s      9.0156 *     9.0156      11.2695 *  0.0000     8          
   172  Cl    s      6.7617 *   -15.7773 *     0.0000    0.0000     8          
   173  O     s      0.0000      13.5234 *    11.2695 *  0.0000     8          
   174  O     s      9.0156 *    13.5234 *     6.7617 *  0.0000    16          
   175  Cl    s      6.7617 *   -15.7773 *     4.5078 *  0.0000    16          
   176  Cl    s      2.2539 *    11.2695 *    13.5234 *  0.0000    16          
--------------------------------------------------------------------------------


  Constraints on symmetry reduced coordinates :

--------------------------------------------------------------------------------
  Constraint no.      Unconstrained     Constrained    Coefficient    
                         Variable         Variable
--------------------------------------------------------------------------------
           1                 2 x             2 y         1.00000
           2                 8 x             8 y         1.00000
           3                10 x            10 y         1.00000
           4                11 x            11 y         1.00000
           5                16 x            16 y        -1.00000
           6                24 x            24 y         1.00000
           7                25 x            25 y         1.00000
           8                27 x            27 y         1.00000
           9                33 x            33 y         1.00000
          10                36 x            36 y         1.00000
          11                51 x            51 y         1.00000
          12                52 x            52 y         1.00000
          13                53 x            53 y         1.00000
          14                57 x            57 y         1.00000
          15                59 x            59 y         1.00000
          16                67 x            67 y         1.00000
          17                73 x            73 y         1.00000
          18                79 x            79 y        -1.00000
          19                85 x            85 y         1.00000
          20                90 x            90 y         1.00000
          21               102 x           102 y         1.00000
          22               105 x           105 y         1.00000
          23               111 x           111 y         1.00000
          24               112 x           112 y         1.00000
          25               125 x           125 y         1.00000
          26               127 x           127 y         1.00000
          27               128 x           128 y         1.00000
          28               134 x           134 y         1.00000
          29               135 x           135 y         1.00000
          30               136 x           136 y         1.00000
          31               138 x           138 y         1.00000
          32               146 x           146 y         1.00000
          33               147 x           147 y         1.00000
          34               149 x           149 y         1.00000
          35               152 x           152 y         1.00000
          36               154 x           154 y         1.00000
          37               164 x           164 y         1.00000
          38               168 x           168 y         1.00000
          39               169 x           169 y         1.00000
          40               170 x           170 y         1.00000
          41               171 x           171 y         1.00000
--------------------------------------------------------------------------------


  Components of defect energy : 

--------------------------------------------------------------------------------
  Region 1 - region 1                   =      2.62023760 eV
  Region 1 - region 2a (unrelaxed)      =      5.94445512 eV
  Region 1 - 2a (relaxed - correction)  =     -0.19120618 eV
  Region 1 (Total)                      =      8.37348654 eV
  Region 2a                             =      0.09558903 eV
  Region 2b                             =     -0.28811914 eV
--------------------------------------------------------------------------------
  Total defect energy                   =      8.18095643 eV
--------------------------------------------------------------------------------

  Largest displacement in region 2 =   0.0091 Angstroms


  Number of variables =      397

  Maximum number of calculations  =        1000
  Maximum Hessian update interval =          10
  Maximum step size               =   1.0000000
  Maximum parameter tolerance     =   0.0000100
  Maximum function  tolerance     =   0.0000100
  Maximum gradient  tolerance     =   0.0010000

  Symmetry adapted optimisation

  Symmetry to be used for second derivatives

  Newton-Raphson optimiser to be used

  BFGS hessian update to be used

  Lower half triangular hessian to be used

  Start of defect optimisation :

  Cycle:      0 Defect Energy:   8.180956  Gnorm:     0.100566  CPU:    7.792
  ** Hessian calculated **
  Cycle:      1 Defect Energy:   5.873506  Gnorm:     0.038717  CPU:   13.296
  Cycle:      2 Defect Energy:   5.551849  Gnorm:     0.031805  CPU:   18.135
  Cycle:      3 Defect Energy:   5.332630  Gnorm:     0.022824  CPU:   24.684
  Cycle:      4 Defect Energy:   5.189130  Gnorm:     0.023128  CPU:   31.002
  Cycle:      5 Defect Energy:   5.082929  Gnorm:     0.012942  CPU:   36.749
  Cycle:      6 Defect Energy:   4.965077  Gnorm:     0.017400  CPU:   43.312
  Cycle:      7 Defect Energy:   4.832026  Gnorm:     0.015719  CPU:   51.941
  Cycle:      8 Defect Energy:   4.678590  Gnorm:     0.017292  CPU:   58.169
  Cycle:      9 Defect Energy:   4.496368  Gnorm:     0.020755  CPU:   61.954
  Cycle:     10 Defect Energy:   4.328118  Gnorm:     0.017744  CPU:   65.557
  ** Hessian calculated **
  Cycle:     11 Defect Energy:   4.231339  Gnorm:     0.018033  CPU:   69.819
  Cycle:     12 Defect Energy:   4.111241  Gnorm:     0.015103  CPU:   73.580
  Cycle:     13 Defect Energy:   4.028374  Gnorm:     0.017912  CPU:   76.970
  Cycle:     14 Defect Energy:   3.923629  Gnorm:     0.013033  CPU:   80.053
  Cycle:     15 Defect Energy:   3.864419  Gnorm:     0.012219  CPU:   82.741
  Cycle:     16 Defect Energy:   3.813498  Gnorm:     0.013827  CPU:   86.082
  Cycle:     17 Defect Energy:   3.761774  Gnorm:     0.014151  CPU:   89.483
  Cycle:     18 Defect Energy:   3.700100  Gnorm:     0.016458  CPU:   93.164
  Cycle:     19 Defect Energy:   3.605675  Gnorm:     0.016478  CPU:   95.637
  Cycle:     20 Defect Energy:   3.493633  Gnorm:     0.018102  CPU:   98.393
  ** Hessian calculated **
  Cycle:     21 Defect Energy:   3.400718  Gnorm:     0.019507  CPU:  102.284
  Cycle:     22 Defect Energy:   3.331079  Gnorm:     0.016636  CPU:  104.962
  Cycle:     23 Defect Energy:   3.276779  Gnorm:     0.018594  CPU:  107.653
  Cycle:     24 Defect Energy:   3.204344  Gnorm:     0.014938  CPU:  110.871
  Cycle:     25 Defect Energy:   3.143856  Gnorm:     0.018298  CPU:  113.545
  Cycle:     26 Defect Energy:   3.070934  Gnorm:     0.015094  CPU:  116.276
  Cycle:     27 Defect Energy:   2.984269  Gnorm:     0.015762  CPU:  118.955
  Cycle:     28 Defect Energy:   2.935833  Gnorm:     0.015236  CPU:  121.118
  Cycle:     29 Defect Energy:   2.906213  Gnorm:     0.015023  CPU:  123.799
  Cycle:     30 Defect Energy:   2.871440  Gnorm:     0.015423  CPU:  126.496
  ** Hessian calculated **
  Cycle:     31 Defect Energy:   2.692305  Gnorm:     0.011296  CPU:  130.770
  Cycle:     32 Defect Energy:   2.526334  Gnorm:     0.004761  CPU:  133.959
  Cycle:     33 Defect Energy:   2.509029  Gnorm:     0.003310  CPU:  134.566
  Cycle:     34 Defect Energy:   2.500678  Gnorm:     0.002320  CPU:  135.175
  Cycle:     35 Defect Energy:   2.496586  Gnorm:     0.001603  CPU:  135.792
  Cycle:     36 Defect Energy:   2.494566  Gnorm:     0.001115  CPU:  136.415
  Cycle:     37 Defect Energy:   2.493559  Gnorm:     0.000749  CPU:  137.031
  Cycle:     38 Defect Energy:   2.493028  Gnorm:     0.000506  CPU:  137.639
  Cycle:     39 Defect Energy:   2.492665  Gnorm:     0.000317  CPU:  138.237
  Cycle:     40 Defect Energy:   2.492273  Gnorm:     0.000249  CPU:  138.846
  ** Hessian calculated **
  Cycle:     41 Defect Energy:   2.492257  Gnorm:     0.000157  CPU:  140.520
  Cycle:     42 Defect Energy:   2.492243  Gnorm:     0.000130  CPU:  141.132
  Cycle:     43 Defect Energy:   2.492233  Gnorm:     0.000118  CPU:  141.742
  Cycle:     44 Defect Energy:   2.492214  Gnorm:     0.000127  CPU:  142.349
  Cycle:     45 Defect Energy:   2.492207  Gnorm:     0.000136  CPU:  142.957
  Cycle:     46 Defect Energy:   2.492194  Gnorm:     0.000151  CPU:  143.563
  Cycle:     47 Defect Energy:   2.492188  Gnorm:     0.000158  CPU:  144.174
  Cycle:     48 Defect Energy:   2.492176  Gnorm:     0.000170  CPU:  144.784
  Cycle:     49 Defect Energy:   2.492172  Gnorm:     0.000180  CPU:  145.400
  Cycle:     50 Defect Energy:   2.492158  Gnorm:     0.000195  CPU:  146.019
  ** Hessian calculated **
  Cycle:     51 Defect Energy:   2.492156  Gnorm:     0.000185  CPU:  147.708
  Cycle:     52 Defect Energy:   2.492150  Gnorm:     0.000180  CPU:  148.319
  Cycle:     53 Defect Energy:   2.492144  Gnorm:     0.000176  CPU:  148.928
  Cycle:     54 Defect Energy:   2.492134  Gnorm:     0.000171  CPU:  149.540
  Cycle:     55 Defect Energy:   2.492122  Gnorm:     0.000170  CPU:  150.153
  Cycle:     56 Defect Energy:   2.492111  Gnorm:     0.000171  CPU:  150.766
  Cycle:     57 Defect Energy:   2.492101  Gnorm:     0.000173  CPU:  151.378
  Cycle:     58 Defect Energy:   2.492092  Gnorm:     0.000183  CPU:  151.988
  Cycle:     59 Defect Energy:   2.492080  Gnorm:     0.000188  CPU:  152.591
  Cycle:     60 Defect Energy:   2.492066  Gnorm:     0.000205  CPU:  153.205
  ** Hessian calculated **
  Cycle:     61 Defect Energy:   2.492059  Gnorm:     0.000200  CPU:  154.871
  Cycle:     62 Defect Energy:   2.492053  Gnorm:     0.000200  CPU:  155.481
  Cycle:     63 Defect Energy:   2.492042  Gnorm:     0.000199  CPU:  156.091
  Cycle:     64 Defect Energy:   2.492031  Gnorm:     0.000201  CPU:  156.708
  Cycle:     65 Defect Energy:   2.492014  Gnorm:     0.000205  CPU:  157.317
  Cycle:     66 Defect Energy:   2.492003  Gnorm:     0.000214  CPU:  157.927
  Cycle:     67 Defect Energy:   2.491988  Gnorm:     0.000223  CPU:  158.540
  Cycle:     68 Defect Energy:   2.491982  Gnorm:     0.000232  CPU:  159.151
  Cycle:     69 Defect Energy:   2.491968  Gnorm:     0.000243  CPU:  159.766
  Cycle:     70 Defect Energy:   2.491956  Gnorm:     0.000260  CPU:  160.383
  ** Hessian calculated **
  Cycle:     71 Defect Energy:   2.491952  Gnorm:     0.000255  CPU:  162.040
  Cycle:     72 Defect Energy:   2.491945  Gnorm:     0.000252  CPU:  162.572
  Cycle:     73 Defect Energy:   2.491935  Gnorm:     0.000248  CPU:  163.103
  Cycle:     74 Defect Energy:   2.491924  Gnorm:     0.000244  CPU:  163.632
  Cycle:     75 Defect Energy:   2.491905  Gnorm:     0.000241  CPU:  164.165
  Cycle:     76 Defect Energy:   2.491895  Gnorm:     0.000243  CPU:  164.691
  Cycle:     77 Defect Energy:   2.491875  Gnorm:     0.000245  CPU:  165.223
  Cycle:     78 Defect Energy:   2.491867  Gnorm:     0.000247  CPU:  165.753
  Cycle:     79 Defect Energy:   2.491852  Gnorm:     0.000253  CPU:  166.290
  Cycle:     80 Defect Energy:   2.491833  Gnorm:     0.000266  CPU:  166.822
  ** Hessian calculated **
  Cycle:     81 Defect Energy:   2.491826  Gnorm:     0.000262  CPU:  168.278
  Cycle:     82 Defect Energy:   2.491818  Gnorm:     0.000263  CPU:  168.808
  Cycle:     83 Defect Energy:   2.491806  Gnorm:     0.000262  CPU:  169.340
  Cycle:     84 Defect Energy:   2.491790  Gnorm:     0.000263  CPU:  169.869
  Cycle:     85 Defect Energy:   2.491770  Gnorm:     0.000267  CPU:  170.398
  Cycle:     86 Defect Energy:   2.491753  Gnorm:     0.000275  CPU:  170.928
  Cycle:     87 Defect Energy:   2.491735  Gnorm:     0.000284  CPU:  171.454
  Cycle:     88 Defect Energy:   2.491726  Gnorm:     0.000293  CPU:  171.982
  Cycle:     89 Defect Energy:   2.491707  Gnorm:     0.000305  CPU:  172.512
  Cycle:     90 Defect Energy:   2.491692  Gnorm:     0.000326  CPU:  173.041
  ** Hessian calculated **
  Cycle:     91 Defect Energy:   2.491683  Gnorm:     0.000319  CPU:  174.487
  Cycle:     92 Defect Energy:   2.491675  Gnorm:     0.000316  CPU:  175.015
  Cycle:     93 Defect Energy:   2.491660  Gnorm:     0.000311  CPU:  175.544
  Cycle:     94 Defect Energy:   2.491645  Gnorm:     0.000308  CPU:  176.076
  Cycle:     95 Defect Energy:   2.491617  Gnorm:     0.000306  CPU:  176.612
  Cycle:     96 Defect Energy:   2.491604  Gnorm:     0.000309  CPU:  177.140
  Cycle:     97 Defect Energy:   2.491580  Gnorm:     0.000307  CPU:  177.675
  Cycle:     98 Defect Energy:   2.491567  Gnorm:     0.000311  CPU:  178.204
  Cycle:     99 Defect Energy:   2.491546  Gnorm:     0.000319  CPU:  178.734
  Cycle:    100 Defect Energy:   2.491520  Gnorm:     0.000334  CPU:  179.261
  ** Hessian calculated **
  Cycle:    101 Defect Energy:   2.491512  Gnorm:     0.000328  CPU:  180.724
  Cycle:    102 Defect Energy:   2.491499  Gnorm:     0.000329  CPU:  181.265
  Cycle:    103 Defect Energy:   2.491484  Gnorm:     0.000328  CPU:  181.811
  Cycle:    104 Defect Energy:   2.491460  Gnorm:     0.000328  CPU:  182.343
  Cycle:    105 Defect Energy:   2.491437  Gnorm:     0.000335  CPU:  182.871
  Cycle:    106 Defect Energy:   2.491403  Gnorm:     0.000344  CPU:  183.402
  Cycle:    107 Defect Energy:   2.491390  Gnorm:     0.000351  CPU:  183.929
  Cycle:    108 Defect Energy:   2.491368  Gnorm:     0.000361  CPU:  184.462
  Cycle:    109 Defect Energy:   2.491351  Gnorm:     0.000379  CPU:  184.987
  Cycle:    110 Defect Energy:   2.491313  Gnorm:     0.000401  CPU:  185.517
  ** Hessian calculated **
  Cycle:    111 Defect Energy:   2.491305  Gnorm:     0.000393  CPU:  186.986
  Cycle:    112 Defect Energy:   2.491291  Gnorm:     0.000390  CPU:  187.519
  Cycle:    113 Defect Energy:   2.491272  Gnorm:     0.000385  CPU:  188.049
  Cycle:    114 Defect Energy:   2.491245  Gnorm:     0.000379  CPU:  188.578
  Cycle:    115 Defect Energy:   2.491215  Gnorm:     0.000378  CPU:  189.109
  Cycle:    116 Defect Energy:   2.491181  Gnorm:     0.000378  CPU:  189.642
  Cycle:    117 Defect Energy:   2.491167  Gnorm:     0.000385  CPU:  190.171
  Cycle:    118 Defect Energy:   2.491137  Gnorm:     0.000386  CPU:  190.711
  Cycle:    119 Defect Energy:   2.491116  Gnorm:     0.000396  CPU:  191.244
  Cycle:    120 Defect Energy:   2.491073  Gnorm:     0.000414  CPU:  191.777
  ** Hessian calculated **
  Cycle:    121 Defect Energy:   2.491062  Gnorm:     0.000406  CPU:  193.243
  Cycle:    122 Defect Energy:   2.491044  Gnorm:     0.000406  CPU:  193.773
  Cycle:    123 Defect Energy:   2.491020  Gnorm:     0.000405  CPU:  194.304
  Cycle:    124 Defect Energy:   2.490986  Gnorm:     0.000406  CPU:  194.832
  Cycle:    125 Defect Energy:   2.490951  Gnorm:     0.000414  CPU:  195.361
  Cycle:    126 Defect Energy:   2.490903  Gnorm:     0.000424  CPU:  195.896
  Cycle:    127 Defect Energy:   2.490882  Gnorm:     0.000432  CPU:  196.431
  Cycle:    128 Defect Energy:   2.490850  Gnorm:     0.000444  CPU:  196.966
  Cycle:    129 Defect Energy:   2.490822  Gnorm:     0.000465  CPU:  197.499
  Cycle:    130 Defect Energy:   2.490767  Gnorm:     0.000493  CPU:  198.033
  ** Hessian calculated **
  Cycle:    131 Defect Energy:   2.490754  Gnorm:     0.000482  CPU:  199.497
  Cycle:    132 Defect Energy:   2.490733  Gnorm:     0.000479  CPU:  199.959
  Cycle:    133 Defect Energy:   2.490703  Gnorm:     0.000473  CPU:  200.399
  Cycle:    134 Defect Energy:   2.490663  Gnorm:     0.000467  CPU:  200.835
  Cycle:    135 Defect Energy:   2.490617  Gnorm:     0.000465  CPU:  201.274
  Cycle:    136 Defect Energy:   2.490571  Gnorm:     0.000466  CPU:  201.709
  Cycle:    137 Defect Energy:   2.490546  Gnorm:     0.000474  CPU:  202.146
  Cycle:    138 Defect Energy:   2.490504  Gnorm:     0.000477  CPU:  202.577
  Cycle:    139 Defect Energy:   2.490473  Gnorm:     0.000490  CPU:  203.017
  Cycle:    140 Defect Energy:   2.490408  Gnorm:     0.000513  CPU:  203.456
  ** Hessian calculated **
  Cycle:    141 Defect Energy:   2.490392  Gnorm:     0.000503  CPU:  204.652
  Cycle:    142 Defect Energy:   2.490364  Gnorm:     0.000503  CPU:  205.085
  Cycle:    143 Defect Energy:   2.490329  Gnorm:     0.000501  CPU:  205.525
  Cycle:    144 Defect Energy:   2.490277  Gnorm:     0.000501  CPU:  205.962
  Cycle:    145 Defect Energy:   2.490224  Gnorm:     0.000511  CPU:  206.409
  Cycle:    146 Defect Energy:   2.490154  Gnorm:     0.000524  CPU:  206.842
  Cycle:    147 Defect Energy:   2.490121  Gnorm:     0.000532  CPU:  207.279
  Cycle:    148 Defect Energy:   2.490078  Gnorm:     0.000546  CPU:  207.731
  Cycle:    149 Defect Energy:   2.490030  Gnorm:     0.000571  CPU:  208.169
  Cycle:    150 Defect Energy:   2.489952  Gnorm:     0.000606  CPU:  208.608
  ** Hessian calculated **
  Cycle:    151 Defect Energy:   2.489927  Gnorm:     0.000593  CPU:  209.816
  Cycle:    152 Defect Energy:   2.489896  Gnorm:     0.000589  CPU:  210.254
  Cycle:    153 Defect Energy:   2.489850  Gnorm:     0.000582  CPU:  210.691
  Cycle:    154 Defect Energy:   2.489793  Gnorm:     0.000575  CPU:  211.125
  Cycle:    155 Defect Energy:   2.489713  Gnorm:     0.000576  CPU:  211.562
  Cycle:    156 Defect Energy:   2.489662  Gnorm:     0.000579  CPU:  211.998
  Cycle:    157 Defect Energy:   2.489601  Gnorm:     0.000581  CPU:  212.435
  Cycle:    158 Defect Energy:   2.489563  Gnorm:     0.000590  CPU:  212.874
  Cycle:    159 Defect Energy:   2.489495  Gnorm:     0.000608  CPU:  213.309
  Cycle:    160 Defect Energy:   2.489417  Gnorm:     0.000636  CPU:  213.747
  ** Hessian calculated **
  Cycle:    161 Defect Energy:   2.489385  Gnorm:     0.000624  CPU:  214.940
  Cycle:    162 Defect Energy:   2.489344  Gnorm:     0.000624  CPU:  215.376
  Cycle:    163 Defect Energy:   2.489285  Gnorm:     0.000621  CPU:  215.808
  Cycle:    164 Defect Energy:   2.489210  Gnorm:     0.000620  CPU:  216.251
  Cycle:    165 Defect Energy:   2.489111  Gnorm:     0.000628  CPU:  216.689
  Cycle:    166 Defect Energy:   2.489040  Gnorm:     0.000642  CPU:  217.131
  Cycle:    167 Defect Energy:   2.488955  Gnorm:     0.000659  CPU:  217.568
  Cycle:    168 Defect Energy:   2.488904  Gnorm:     0.000674  CPU:  218.009
  Cycle:    169 Defect Energy:   2.488821  Gnorm:     0.000699  CPU:  218.447
  Cycle:    170 Defect Energy:   2.488721  Gnorm:     0.000743  CPU:  218.880
  ** Hessian calculated **
  Cycle:    171 Defect Energy:   2.488684  Gnorm:     0.000727  CPU:  220.097
  Cycle:    172 Defect Energy:   2.488638  Gnorm:     0.000723  CPU:  220.534
  Cycle:    173 Defect Energy:   2.488570  Gnorm:     0.000715  CPU:  220.974
  Cycle:    174 Defect Energy:   2.488484  Gnorm:     0.000707  CPU:  221.416
  Cycle:    175 Defect Energy:   2.488369  Gnorm:     0.000708  CPU:  221.855
  Cycle:    176 Defect Energy:   2.488291  Gnorm:     0.000712  CPU:  222.292
  Cycle:    177 Defect Energy:   2.488206  Gnorm:     0.000715  CPU:  222.729
  Cycle:    178 Defect Energy:   2.488149  Gnorm:     0.000726  CPU:  223.164
  Cycle:    179 Defect Energy:   2.488049  Gnorm:     0.000749  CPU:  223.600
  Cycle:    180 Defect Energy:   2.487932  Gnorm:     0.000784  CPU:  224.037
  ** Hessian calculated **
  Cycle:    181 Defect Energy:   2.487884  Gnorm:     0.000769  CPU:  225.227
  Cycle:    182 Defect Energy:   2.487823  Gnorm:     0.000768  CPU:  225.667
  Cycle:    183 Defect Energy:   2.487735  Gnorm:     0.000763  CPU:  226.101
  Cycle:    184 Defect Energy:   2.487623  Gnorm:     0.000762  CPU:  226.541
  Cycle:    185 Defect Energy:   2.487476  Gnorm:     0.000770  CPU:  226.975
  Cycle:    186 Defect Energy:   2.487379  Gnorm:     0.000787  CPU:  227.411
  Cycle:    187 Defect Energy:   2.487259  Gnorm:     0.000804  CPU:  227.846
  Cycle:    188 Defect Energy:   2.487184  Gnorm:     0.000820  CPU:  228.289
  Cycle:    189 Defect Energy:   2.487071  Gnorm:     0.000848  CPU:  228.730
  Cycle:    190 Defect Energy:   2.486921  Gnorm:     0.000897  CPU:  229.171
  ** Hessian calculated **
  Cycle:    191 Defect Energy:   2.486872  Gnorm:     0.000880  CPU:  230.377
  Cycle:    192 Defect Energy:   2.486806  Gnorm:     0.000875  CPU:  230.811
  Cycle:    193 Defect Energy:   2.486711  Gnorm:     0.000866  CPU:  231.252
  Cycle:    194 Defect Energy:   2.486587  Gnorm:     0.000857  CPU:  231.691
  Cycle:    195 Defect Energy:   2.486434  Gnorm:     0.000858  CPU:  232.133
  Cycle:    196 Defect Energy:   2.486315  Gnorm:     0.000859  CPU:  232.568
  Cycle:    197 Defect Energy:   2.486215  Gnorm:     0.000865  CPU:  233.007
  Cycle:    198 Defect Energy:   2.486124  Gnorm:     0.000876  CPU:  233.446
  Cycle:    199 Defect Energy:   2.485995  Gnorm:     0.000901  CPU:  233.880
  Cycle:    200 Defect Energy:   2.485829  Gnorm:     0.000942  CPU:  234.320
  ** Hessian calculated **
  Cycle:    201 Defect Energy:   2.485760  Gnorm:     0.000923  CPU:  235.527
  Cycle:    202 Defect Energy:   2.485679  Gnorm:     0.000921  CPU:  235.963
  Cycle:    203 Defect Energy:   2.485559  Gnorm:     0.000915  CPU:  236.400
  Cycle:    204 Defect Energy:   2.485411  Gnorm:     0.000916  CPU:  236.839
  Cycle:    205 Defect Energy:   2.485208  Gnorm:     0.000925  CPU:  237.276
  Cycle:    206 Defect Energy:   2.485082  Gnorm:     0.000944  CPU:  237.717
  Cycle:    207 Defect Energy:   2.484948  Gnorm:     0.000950  CPU:  238.156
  Cycle:    208 Defect Energy:   2.484842  Gnorm:     0.000971  CPU:  238.592
  Cycle:    209 Defect Energy:   2.484684  Gnorm:     0.001009  CPU:  239.028
  Cycle:    210 Defect Energy:   2.484459  Gnorm:     0.001056  CPU:  239.473
  ** Hessian calculated **
  Cycle:    211 Defect Energy:   2.484399  Gnorm:     0.001037  CPU:  240.673
  Cycle:    212 Defect Energy:   2.484305  Gnorm:     0.001031  CPU:  241.109
  Cycle:    213 Defect Energy:   2.484179  Gnorm:     0.001019  CPU:  241.549
  Cycle:    214 Defect Energy:   2.484009  Gnorm:     0.001009  CPU:  241.986
  Cycle:    215 Defect Energy:   2.483828  Gnorm:     0.001008  CPU:  242.424
  Cycle:    216 Defect Energy:   2.483669  Gnorm:     0.001013  CPU:  242.856
  Cycle:    217 Defect Energy:   2.483574  Gnorm:     0.001013  CPU:  243.294
  Cycle:    218 Defect Energy:   2.483457  Gnorm:     0.001021  CPU:  243.733
  Cycle:    219 Defect Energy:   2.483328  Gnorm:     0.001050  CPU:  244.170
  Cycle:    220 Defect Energy:   2.483102  Gnorm:     0.001076  CPU:  244.605
  ** Hessian calculated **
  Cycle:    221 Defect Energy:   2.483033  Gnorm:     0.001061  CPU:  245.800
  Cycle:    222 Defect Energy:   2.482934  Gnorm:     0.001059  CPU:  246.239
  Cycle:    223 Defect Energy:   2.482796  Gnorm:     0.001051  CPU:  246.676
  Cycle:    224 Defect Energy:   2.482617  Gnorm:     0.001050  CPU:  247.107
  Cycle:    225 Defect Energy:   2.482396  Gnorm:     0.001054  CPU:  247.549
  Cycle:    226 Defect Energy:   2.482241  Gnorm:     0.001069  CPU:  247.988
  Cycle:    227 Defect Energy:   2.482093  Gnorm:     0.001078  CPU:  248.429
  Cycle:    228 Defect Energy:   2.481965  Gnorm:     0.001096  CPU:  248.866
  Cycle:    229 Defect Energy:   2.481793  Gnorm:     0.001121  CPU:  249.308
  Cycle:    230 Defect Energy:   2.481557  Gnorm:     0.001167  CPU:  249.749
  ** Hessian calculated **
  Cycle:    231 Defect Energy:   2.481479  Gnorm:     0.001148  CPU:  250.957
  Cycle:    232 Defect Energy:   2.481387  Gnorm:     0.001143  CPU:  251.396
  Cycle:    233 Defect Energy:   2.481245  Gnorm:     0.001130  CPU:  251.834
  Cycle:    234 Defect Energy:   2.481072  Gnorm:     0.001118  CPU:  252.271
  Cycle:    235 Defect Energy:   2.480850  Gnorm:     0.001119  CPU:  252.711
  Cycle:    236 Defect Energy:   2.480722  Gnorm:     0.001114  CPU:  253.154
  Cycle:    237 Defect Energy:   2.480590  Gnorm:     0.001110  CPU:  253.592
  Cycle:    238 Defect Energy:   2.480486  Gnorm:     0.001119  CPU:  254.029
  Cycle:    239 Defect Energy:   2.480325  Gnorm:     0.001135  CPU:  254.466
  Cycle:    240 Defect Energy:   2.480104  Gnorm:     0.001163  CPU:  254.898
  ** Hessian calculated **
  Cycle:    241 Defect Energy:   2.479364  Gnorm:     0.001154  CPU:  256.100
  Cycle:    242 Defect Energy:   2.478256  Gnorm:     0.001138  CPU:  256.534
  Cycle:    243 Defect Energy:   2.476594  Gnorm:     0.001102  CPU:  256.975
  Cycle:    244 Defect Energy:   2.474171  Gnorm:     0.001015  CPU:  257.411
  Cycle:    245 Defect Energy:   2.470982  Gnorm:     0.000801  CPU:  257.846
  Cycle:    246 Defect Energy:   2.469437  Gnorm:     0.000538  CPU:  258.285
  Cycle:    247 Defect Energy:   2.468924  Gnorm:     0.000366  CPU:  258.723
  Cycle:    248 Defect Energy:   2.468711  Gnorm:     0.000258  CPU:  259.158
  Cycle:    249 Defect Energy:   2.468620  Gnorm:     0.000177  CPU:  259.606
  Cycle:    250 Defect Energy:   2.468581  Gnorm:     0.000126  CPU:  260.048
  ** Hessian calculated **
  Cycle:    251 Defect Energy:   2.468567  Gnorm:     0.000088  CPU:  261.238


  **** Optimisation achieved ****


  Final defect energy  =        2.46856327
  Final defect Gnorm   =        0.00006187

  Components of defect energy : 

--------------------------------------------------------------------------------
  Region 1 - region 1                   =     -1.41045012 eV
  Region 1 - region 2a (unrelaxed)      =      4.24638110 eV
  Region 1 - 2a (relaxed - correction)  =     -0.15838593 eV
  Region 1 (Total)                      =      2.67754505 eV
  Region 2a                             =      0.07913736 eV
  Region 2b                             =     -0.28811914 eV
--------------------------------------------------------------------------------
  Total defect energy                   =      2.46856327 eV
--------------------------------------------------------------------------------

  Largest displacement in region 2 =   0.0091 Angstroms

  Final coordinates of region 1 :

--------------------------------------------------------------------------------
   No.  Atomic        x           y           z          Radius      Charge
        Label       (Angs)      (Angs)      (Angs)       (Angs)       (e) 
--------------------------------------------------------------------------------
     1  O     c     2.253894    2.253894   -2.343754    0.000000    0.183000
     2  O     c     2.253894    2.253894    2.343754    0.000000    0.183000
     3  Cl    c     4.578561    4.578561    0.000000    0.000000    1.485000
     4  Cl    c     4.578561   -0.070774    0.000000    0.000000    1.485000
     5  Cl    c    -0.070774    4.578561    0.000000    0.000000    1.485000
     6  Cl    c    -0.070774   -0.070774    0.000000    0.000000    1.485000
     7  Na    c     4.425854    2.253894   -1.822213    0.000000    1.000000
     8  Na    c     4.425854    2.253894    1.822213    0.000000    1.000000
     9  Na    c     0.081933    2.253894   -1.822213    0.000000    1.000000
    10  Na    c     0.081933    2.253894    1.822213    0.000000    1.000000
    11  Na    c     2.253894    4.425854   -1.822213    0.000000    1.000000
    12  Na    c     2.253894    4.425854    1.822213    0.000000    1.000000
    13  Na    c     2.253894    0.081933   -1.822213    0.000000    1.000000
    14  Na    c     2.253894    0.081933    1.822213    0.000000    1.000000
    15  Na    c     2.253894    2.253894    4.536906    0.000000    1.000000
    16  Na    c     2.253894    2.253894   -4.536906    0.000000    1.000000
    17  Na    c     2.253894   -2.533862    0.000000    0.000000    1.000000
    18  Na    c    -2.533862    2.253894    0.000000    0.000000    1.000000
    19  Na    c     2.253894    7.041649    0.000000    0.000000    1.000000
    20  Na    c     7.041649    2.253894    0.000000    0.000000    1.000000
    21  O     c     2.253894   -2.215523   -2.261027    0.000000    0.183000
    22  O     c     2.253894   -2.215523    2.261027    0.000000    0.183000
    23  O     c    -2.215523    2.253894   -2.261027    0.000000    0.183000
    24  O     c    -2.215523    2.253894    2.261027    0.000000    0.183000
    25  O     c     2.253894    6.723310   -2.261027    0.000000    0.183000
    26  O     c     2.253894    6.723310    2.261027    0.000000    0.183000
    27  O     c     6.723310    2.253894   -2.261027    0.000000    0.183000
    28  O     c     6.723310    2.253894    2.261027    0.000000    0.183000
    29  Na    c     4.515099   -2.243355   -2.389163    0.000000    1.000000
    30  Na    c     4.515099   -2.243355    2.389163    0.000000    1.000000
    31  Na    c    -0.007312   -2.243355   -2.389163    0.000000    1.000000
    32  Na    c    -0.007312   -2.243355    2.389163    0.000000    1.000000
    33  Na    c    -2.243355    4.515099   -2.389163    0.000000    1.000000
    34  Na    c    -2.243355    4.515099    2.389163    0.000000    1.000000
    35  Na    c    -2.243355   -0.007312   -2.389163    0.000000    1.000000
    36  Na    c    -2.243355   -0.007312    2.389163    0.000000    1.000000
    37  Na    c     4.515099    6.751142   -2.389163    0.000000    1.000000
    38  Na    c     4.515099    6.751142    2.389163    0.000000    1.000000
    39  Na    c    -0.007312    6.751142   -2.389163    0.000000    1.000000
    40  Na    c    -0.007312    6.751142    2.389163    0.000000    1.000000
    41  Na    c     6.751142    4.515099   -2.389163    0.000000    1.000000
    42  Na    c     6.751142    4.515099    2.389163    0.000000    1.000000
    43  Na    c     6.751142   -0.007312   -2.389163    0.000000    1.000000
    44  Na    c     6.751142   -0.007312    2.389163    0.000000    1.000000
    45  Cl    c     4.614019    4.614019    4.589928    0.000000    1.485000
    46  Cl    c     4.614019    4.614019   -4.589928    0.000000    1.485000
    47  Cl    c     4.614019   -0.106231    4.589928    0.000000    1.485000
    48  Cl    c     4.614019   -0.106231   -4.589928    0.000000    1.485000
    49  Cl    c    -0.106231    4.614019    4.589928    0.000000    1.485000
    50  Cl    c    -0.106231    4.614019   -4.589928    0.000000    1.485000
    51  Cl    c    -0.106231   -0.106231    4.589928    0.000000    1.485000
    52  Cl    c    -0.106231   -0.106231   -4.589928    0.000000    1.485000
    53  Na    c     2.253894   -1.750113    4.471774    0.000000    1.000000
    54  Na    c     2.253894   -1.750113   -4.471774    0.000000    1.000000
    55  Na    c    -1.750113    2.253894    4.471774    0.000000    1.000000
    56  Na    c    -1.750113    2.253894   -4.471774    0.000000    1.000000
    57  Na    c     2.253894    6.257900    4.471774    0.000000    1.000000
    58  Na    c     2.253894    6.257900   -4.471774    0.000000    1.000000
    59  Na    c     6.257900    2.253894    4.471774    0.000000    1.000000
    60  Na    c     6.257900    2.253894   -4.471774    0.000000    1.000000
    61  Na    c    -2.019774   -2.019774    0.000000    0.000000    1.000000
    62  Na    c     6.527561   -2.019774    0.000000    0.000000    1.000000
    63  Na    c    -2.019774    6.527561    0.000000    0.000000    1.000000
    64  Na    c     6.527561    6.527561    0.000000    0.000000    1.000000
    65  O     c    -2.275291   -2.275291   -2.231017    0.000000    0.183000
    66  O     c    -2.275291   -2.275291    2.231017    0.000000    0.183000
    67  O     c     6.783078   -2.275291   -2.231017    0.000000    0.183000
    68  O     c     6.783078   -2.275291    2.231017    0.000000    0.183000
    69  O     c    -2.275291    6.783078   -2.231017    0.000000    0.183000
    70  O     c    -2.275291    6.783078    2.231017    0.000000    0.183000
    71  O     c     6.783078    6.783078   -2.231017    0.000000    0.183000
    72  O     c     6.783078    6.783078    2.231017    0.000000    0.183000
    73  O     c     2.253894    2.253894    6.823271    0.000000    0.183000
    74  O     c     2.253894    2.253894   -6.823271    0.000000    0.183000
    75  Cl    c     4.533798    9.028434    0.000000    0.000000    1.485000
    76  Cl    c     4.533798   -4.520647    0.000000    0.000000    1.485000
    77  Cl    c     9.028434    4.533798    0.000000    0.000000    1.485000
    78  Cl    c     9.028434   -0.026011    0.000000    0.000000    1.485000
    79  Cl    c    -0.026011    9.028434    0.000000    0.000000    1.485000
    80  Cl    c    -0.026011   -4.520647    0.000000    0.000000    1.485000
    81  Cl    c    -4.520647    4.533798    0.000000    0.000000    1.485000
    82  Cl    c    -4.520647   -0.026011    0.000000    0.000000    1.485000
    83  Na    c     4.517772    2.253894    6.984084    0.000000    1.000000
    84  Na    c     4.517772    2.253894   -6.984084    0.000000    1.000000
    85  Na    c    -0.009985    2.253894    6.984084    0.000000    1.000000
    86  Na    c    -0.009985    2.253894   -6.984084    0.000000    1.000000
    87  Na    c     2.253894    4.517772    6.984084    0.000000    1.000000
    88  Na    c     2.253894    4.517772   -6.984084    0.000000    1.000000
    89  Na    c     2.253894   -0.009985    6.984084    0.000000    1.000000
    90  Na    c     2.253894   -0.009985   -6.984084    0.000000    1.000000
    91  Na    c     8.982605    2.253894   -2.638580    0.000000    1.000000
    92  Na    c     8.982605    2.253894    2.638580    0.000000    1.000000
    93  Na    c    -4.474818    2.253894   -2.638580    0.000000    1.000000
    94  Na    c    -4.474818    2.253894    2.638580    0.000000    1.000000
    95  Na    c     2.253894    8.982605   -2.638580    0.000000    1.000000
    96  Na    c     2.253894    8.982605    2.638580    0.000000    1.000000
    97  Na    c     2.253894   -4.474818   -2.638580    0.000000    1.000000
    98  Na    c     2.253894   -4.474818    2.638580    0.000000    1.000000
    99  Na    c     6.969674   -2.461886    4.505132    0.000000    1.000000
   100  Na    c     6.969674   -2.461886   -4.505132    0.000000    1.000000
   101  Na    c    -2.461886    6.969674    4.505132    0.000000    1.000000
   102  Na    c    -2.461886    6.969674   -4.505132    0.000000    1.000000
   103  Na    c    -2.461886   -2.461886    4.505132    0.000000    1.000000
   104  Na    c    -2.461886   -2.461886   -4.505132    0.000000    1.000000
   105  Na    c     6.969674    6.969674    4.505132    0.000000    1.000000
   106  Na    c     6.969674    6.969674   -4.505132    0.000000    1.000000
   107  O     c     2.253894   -2.251679    6.703065    0.000000    0.183000
   108  O     c     2.253894   -2.251679   -6.703065    0.000000    0.183000
   109  O     c    -2.251679    2.253894    6.703065    0.000000    0.183000
   110  O     c    -2.251679    2.253894   -6.703065    0.000000    0.183000
   111  O     c     2.253894    6.759466    6.703065    0.000000    0.183000
   112  O     c     2.253894    6.759466   -6.703065    0.000000    0.183000
   113  O     c     6.759466    2.253894    6.703065    0.000000    0.183000
   114  O     c     6.759466    2.253894   -6.703065    0.000000    0.183000
   115  Cl    c     4.507011    8.999367    4.496684    0.000000    1.485000
   116  Cl    c     4.507011    8.999367   -4.496684    0.000000    1.485000
   117  Cl    c     4.507011   -4.491580    4.496684    0.000000    1.485000
   118  Cl    c     4.507011   -4.491580   -4.496684    0.000000    1.485000
   119  Cl    c     8.999367    4.507011    4.496684    0.000000    1.485000
   120  Cl    c     8.999367    4.507011   -4.496684    0.000000    1.485000
   121  Cl    c     8.999367    0.000776    4.496684    0.000000    1.485000
   122  Cl    c     8.999367    0.000776   -4.496684    0.000000    1.485000
   123  Cl    c     0.000776    8.999367    4.496684    0.000000    1.485000
   124  Cl    c     0.000776    8.999367   -4.496684    0.000000    1.485000
   125  Cl    c     0.000776   -4.491580    4.496684    0.000000    1.485000
   126  Cl    c     0.000776   -4.491580   -4.496684    0.000000    1.485000
   127  Cl    c    -4.491580    4.507011    4.496684    0.000000    1.485000
   128  Cl    c    -4.491580    4.507011   -4.496684    0.000000    1.485000
   129  Cl    c    -4.491580    0.000776    4.496684    0.000000    1.485000
   130  Cl    c    -4.491580    0.000776   -4.496684    0.000000    1.485000
   131  Na    c     4.521130   -2.297732    6.540709    0.000000    1.000000
   132  Na    c     4.521130   -2.297732   -6.540709    0.000000    1.000000
   133  Na    c    -0.013342   -2.297732    6.540709    0.000000    1.000000
   134  Na    c    -0.013342   -2.297732   -6.540709    0.000000    1.000000
   135  Na    c    -2.297732    4.521130    6.540709    0.000000    1.000000
   136  Na    c    -2.297732    4.521130   -6.540709    0.000000    1.000000
   137  Na    c    -2.297732   -0.013342    6.540709    0.000000    1.000000
   138  Na    c    -2.297732   -0.013342   -6.540709    0.000000    1.000000
   139  Na    c     4.521130    6.805519    6.540709    0.000000    1.000000
   140  Na    c     4.521130    6.805519   -6.540709    0.000000    1.000000
   141  Na    c    -0.013342    6.805519    6.540709    0.000000    1.000000
   142  Na    c    -0.013342    6.805519   -6.540709    0.000000    1.000000
   143  Na    c     6.805519    4.521130    6.540709    0.000000    1.000000
   144  Na    c     6.805519    4.521130   -6.540709    0.000000    1.000000
   145  Na    c     6.805519   -0.013342    6.540709    0.000000    1.000000
   146  Na    c     6.805519   -0.013342   -6.540709    0.000000    1.000000
   147  Na    c     9.026532   -2.274233   -1.933048    0.000000    1.000000
   148  Na    c     9.026532   -2.274233    1.933048    0.000000    1.000000
   149  Na    c    -4.518745   -2.274233   -1.933048    0.000000    1.000000
   150  Na    c    -4.518745   -2.274233    1.933048    0.000000    1.000000
   151  Na    c    -2.274233    9.026532   -1.933048    0.000000    1.000000
   152  Na    c    -2.274233    9.026532    1.933048    0.000000    1.000000
   153  Na    c    -2.274233   -4.518745   -1.933048    0.000000    1.000000
   154  Na    c    -2.274233   -4.518745    1.933048    0.000000    1.000000
   155  Na    c     9.026532    6.782020   -1.933048    0.000000    1.000000
   156  Na    c     9.026532    6.782020    1.933048    0.000000    1.000000
   157  Na    c    -4.518745    6.782020   -1.933048    0.000000    1.000000
   158  Na    c    -4.518745    6.782020    1.933048    0.000000    1.000000
   159  Na    c     6.782020    9.026532   -1.933048    0.000000    1.000000
   160  Na    c     6.782020    9.026532    1.933048    0.000000    1.000000
[...]
     96 y         11.269468     11.438185     0.168717    Cartesian    1.50
     96 z         13.523362     13.502997    -0.020365    Cartesian   -0.15
     97 x          2.253894      2.253894     0.000000    Cartesian    0.00
     97 y         15.777255     15.991615     0.214360    Cartesian    1.36
     97 z          9.015574      8.999863    -0.015711    Cartesian   -0.17
     98 x         11.269468     11.104068    -0.165400    Cartesian   -1.47
     98 y         15.777255     15.907417     0.130161    Cartesian    0.82
     98 z          0.000000      0.000000     0.000000    Cartesian    0.00
     99 x          2.253894      2.253894     0.000000    Cartesian    0.00
     99 y          6.761681      6.741954    -0.019727    Cartesian   -0.29
     99 z         15.777255     15.769666    -0.007589    Cartesian   -0.05
    100 x         11.269468     11.260533    -0.008935    Cartesian   -0.08
    100 y         15.777255     15.776086    -0.001169    Cartesian   -0.01
    100 z         -2.253894     -2.241988     0.011906    Cartesian   -0.53
    101 x          4.507787      4.461179    -0.046608    Cartesian   -1.03
    101 y        -13.523362    -13.564895    -0.041533    Cartesian    0.31
    101 z          4.507787      4.511283     0.003496    Cartesian    0.08
    102 x         13.523362     13.569885     0.046523    Cartesian    0.34
    102 y         13.523362     13.569885     0.046523    Cartesian    0.34
    102 z          4.507787      4.513406     0.005619    Cartesian    0.12
    103 x          4.507787      4.520335     0.012548    Cartesian    0.28
    103 y          6.761681      6.766124     0.004443    Cartesian    0.07
    103 z         15.777255     15.721345    -0.055910    Cartesian   -0.35
    104 x         13.523362     13.524504     0.001142    Cartesian    0.01
    104 y          6.761681      6.735637    -0.026044    Cartesian   -0.39
    104 z         11.269468     11.451370     0.181902    Cartesian    1.61
    105 x          9.015574      9.039772     0.024197    Cartesian    0.27
    105 y          9.015574      9.039772     0.024197    Cartesian    0.27
    105 z         13.523362     13.554651     0.031290    Cartesian    0.23
    106 x        -13.523362    -13.512533     0.010829    Cartesian   -0.08
    106 y          6.761681      6.774495     0.012814    Cartesian    0.19
    106 z         -2.253894     -2.069827     0.184067    Cartesian   -8.17
    107 x          9.015574      9.017097     0.001523    Cartesian    0.02
    107 y         15.777255     15.797374     0.020119    Cartesian    0.13
    107 z          6.761681      6.662685    -0.098996    Cartesian   -1.46
    108 x          6.761681      6.820943     0.059262    Cartesian    0.88
    108 y         15.777255     15.604296    -0.172959    Cartesian   -1.10
    108 z          9.015574      8.998335    -0.017240    Cartesian   -0.19
    109 x         11.269468     11.373755     0.104287    Cartesian    0.93
    109 y         15.777255     15.668831    -0.108425    Cartesian   -0.69
    109 z          4.507787      4.501366    -0.006421    Cartesian   -0.14
    110 x         11.269468     11.124550    -0.144918    Cartesian   -1.29
    110 y         -2.253894     -2.203623     0.050271    Cartesian   -2.23
    110 z         13.523362     13.507133    -0.016229    Cartesian   -0.12
    111 x          6.761681      6.780688     0.019007    Cartesian    0.28
    111 y          6.761681      6.780688     0.019007    Cartesian    0.28
    111 z         15.777255     15.767682    -0.009574    Cartesian   -0.06
    112 x         11.269468     11.262520    -0.006948    Cartesian   -0.06
    112 y         11.269468     11.262520    -0.006948    Cartesian   -0.06
    112 z         11.269468     11.276769     0.007301    Cartesian    0.06
    113 x          9.015574      9.017684     0.002110    Cartesian    0.02
    113 y        -13.523362    -13.595235    -0.071873    Cartesian    0.53
    113 z          0.000000      0.000000     0.000000    Cartesian    0.00
    114 x          9.015574      9.006995    -0.008579    Cartesian   -0.10
    114 y          2.253894      2.253894     0.000000    Cartesian    0.00
    114 z         15.777255     15.703733    -0.073523    Cartesian   -0.47
    115 x        -13.523362    -13.499053     0.024309    Cartesian   -0.18
    115 y          2.253894      2.253894     0.000000    Cartesian    0.00
    115 z          6.761681      6.593080    -0.168601    Cartesian   -2.49
    116 x          2.253894      2.253894     0.000000    Cartesian    0.00
    116 y         15.777255     15.785592     0.008337    Cartesian    0.05
    116 z         11.269468     11.243354    -0.026114    Cartesian   -0.23
    117 x         11.269468     11.274705     0.005237    Cartesian    0.05
    117 y         15.777255     15.771645    -0.005610    Cartesian   -0.04
    117 z          6.761681      6.762234     0.000554    Cartesian    0.01
    118 x          9.015574      8.999044    -0.016531    Cartesian   -0.18
    118 y        -13.523362    -13.518501     0.004861    Cartesian   -0.04
    118 z          4.507787      4.510886     0.003099    Cartesian    0.07
    119 x          9.015574      9.021098     0.005524    Cartesian    0.06
    119 y         -2.253894     -2.249780     0.004114    Cartesian   -0.18
    119 z         15.777255     15.831382     0.054127    Cartesian    0.34
    120 x          4.507787      4.523239     0.015452    Cartesian    0.34
    120 y         13.523362     13.532982     0.009620    Cartesian    0.07
    120 z         13.523362     13.546748     0.023386    Cartesian    0.17
    121 x          4.507787      4.509532     0.001745    Cartesian    0.04
    121 y         15.777255     15.775720    -0.001536    Cartesian   -0.01
    121 z         11.269468     11.229487    -0.039981    Cartesian   -0.35
    122 x        -13.523362    -13.520219     0.003142    Cartesian   -0.02
    122 y          6.761681      6.751776    -0.009905    Cartesian   -0.15
    122 z          6.761681      6.919176     0.157496    Cartesian    2.33
    123 x         13.523362     13.517723    -0.005639    Cartesian   -0.04
    123 y         15.777255     15.767517    -0.009738    Cartesian   -0.06
    123 z         -2.253894     -2.205051     0.048842    Cartesian   -2.17
    124 x          2.253894      2.253894     0.000000    Cartesian    0.00
    124 y          2.253894      2.253894     0.000000    Cartesian    0.00
    124 z         -2.253894     -2.343843    -0.089949    Cartesian    3.99
    125 x          4.507787      4.583001     0.075214    Cartesian    1.67
    125 y          4.507787      4.583001     0.075214    Cartesian    1.67
    125 z          0.000000      0.000000     0.000000    Cartesian    0.00
    126 x          2.253894      2.253894     0.000000    Cartesian    0.00
    126 y         -2.253894     -2.215554     0.038339    Cartesian   -1.70
    126 z         -2.253894     -2.261097    -0.007204    Cartesian    0.32
    127 x          4.507787      4.625381     0.117594    Cartesian    2.61
    127 y          4.507787      4.625381     0.117594    Cartesian    2.61
    127 z          4.507787      4.599561     0.091774    Cartesian    2.04
    128 x         -2.253894     -2.275281    -0.021388    Cartesian    0.95
    128 y         -2.253894     -2.275281    -0.021388    Cartesian    0.95
    128 z         -2.253894     -2.230934     0.022960    Cartesian   -1.02
    129 x          2.253894      2.253894     0.000000    Cartesian    0.00
    129 y          2.253894      2.253894     0.000000    Cartesian    0.00
    129 z          6.761681      6.823456     0.061775    Cartesian    0.91
    130 x          4.507787      4.534333     0.026546    Cartesian    0.59
    130 y          9.015574      9.037304     0.021730    Cartesian    0.24
    130 z          0.000000      0.000000     0.000000    Cartesian    0.00
    131 x          2.253894      2.253894     0.000000    Cartesian    0.00
    131 y         -2.253894     -2.251637     0.002257    Cartesian   -0.10
    131 z          6.761681      6.702996    -0.058685    Cartesian   -0.87
    132 x          4.507787      4.504121    -0.003666    Cartesian   -0.08
    132 y          9.015574      9.002456    -0.013119    Cartesian   -0.15
    132 z          4.507787      4.498964    -0.008823    Cartesian   -0.20
    133 x          2.253894      2.253894     0.000000    Cartesian    0.00
    133 y         11.269468     11.244468    -0.025000    Cartesian   -0.22
    133 z         -2.253894     -2.229741     0.024153    Cartesian   -1.07
    134 x          6.761681      6.784086     0.022406    Cartesian    0.33
    134 y          6.761681      6.784086     0.022406    Cartesian    0.33
    134 z          6.761681      6.791426     0.029746    Cartesian    0.44
    135 x          4.507787      4.442342    -0.065445    Cartesian   -1.45
    135 y          4.507787      4.442342    -0.065445    Cartesian   -1.45
    135 z          9.015574      9.061205     0.045631    Cartesian    0.51
    136 x          9.015574      8.994754    -0.020821    Cartesian   -0.23
    136 y          9.015574      8.994754    -0.020821    Cartesian   -0.23
    136 z          0.000000      0.000000     0.000000    Cartesian    0.00
    137 x         11.269468     11.275592     0.006124    Cartesian    0.05
    137 y         -2.253894     -2.267544    -0.013650    Cartesian    0.61
    137 z         -2.253894     -2.262797    -0.008903    Cartesian    0.40
    138 x          9.015574      9.059744     0.044170    Cartesian    0.49
    138 y          9.015574      9.059744     0.044170    Cartesian    0.49
    138 z          4.507787      4.507561    -0.000226    Cartesian   -0.01
    139 x          2.253894      2.253894     0.000000    Cartesian    0.00
    139 y          2.253894      2.253894     0.000000    Cartesian    0.00
    139 z         11.269468     11.264262    -0.005206    Cartesian   -0.05
    140 x          2.253894      2.253894     0.000000    Cartesian    0.00
    140 y         11.269468     11.253226    -0.016243    Cartesian   -0.14
    140 z          6.761681      6.752675    -0.009006    Cartesian   -0.13
    141 x          4.507787      4.525704     0.017917    Cartesian    0.40
    141 y         13.523362     13.528512     0.005150    Cartesian    0.04
    141 z          0.000000      0.000000     0.000000    Cartesian    0.00
    142 x          4.507787      4.527192     0.019405    Cartesian    0.43
    142 y          9.015574      9.017929     0.002355    Cartesian    0.03
    142 z          9.015574      9.032260     0.016686    Cartesian    0.19
    143 x          2.253894      2.253894     0.000000    Cartesian    0.00
    143 y          6.761681      6.781711     0.020030    Cartesian    0.30
    143 z         11.269468     11.291105     0.021637    Cartesian    0.19
    144 x          6.761681      6.771514     0.009833    Cartesian    0.15
    144 y         11.269468     11.269449    -0.000019    Cartesian   -0.00
    144 z          6.761681      6.733590    -0.028090    Cartesian   -0.42
    145 x          4.507787      4.523741     0.015953    Cartesian    0.35
    145 y         13.523362     13.536928     0.013567    Cartesian    0.10
    145 z          4.507787      4.515011     0.007224    Cartesian    0.16
    146 x         -2.253894     -2.254464    -0.000570    Cartesian    0.03
    146 y         -2.253894     -2.254464    -0.000570    Cartesian    0.03
    146 z         11.269468     11.224536    -0.044932    Cartesian   -0.40
    147 x         11.269468     11.274668     0.005200    Cartesian    0.05
    147 y         11.269468     11.274668     0.005200    Cartesian    0.05
    147 z         -2.253894     -2.245480     0.008414    Cartesian   -0.37
    148 x          9.015574      9.094887     0.079313    Cartesian    0.88
    148 y         13.523362     13.561247     0.037885    Cartesian    0.28
    148 z          0.000000      0.000000     0.000000    Cartesian    0.00
    149 x          9.015574      9.038126     0.022552    Cartesian    0.25
    149 y          9.015574      9.038126     0.022552    Cartesian    0.25
    149 z          9.015574      9.035460     0.019885    Cartesian    0.22
    150 x          2.253894      2.253894     0.000000    Cartesian    0.00
    150 y         15.777255     15.759647    -0.017609    Cartesian   -0.11
    150 z         -2.253894     -2.216813     0.037081    Cartesian   -1.65
    151 x          9.015574      9.049070     0.033496    Cartesian    0.37
    151 y         13.523362     13.530180     0.006818    Cartesian    0.05
    151 z          4.507787      4.508769     0.000982    Cartesian    0.02
    152 x          4.507787      4.521909     0.014122    Cartesian    0.31
    152 y          4.507787      4.521909     0.014122    Cartesian    0.31
    152 z         13.523362     13.550141     0.026780    Cartesian    0.20
    153 x          2.253894      2.253894     0.000000    Cartesian    0.00
    153 y         11.269468     11.249825    -0.019643    Cartesian   -0.17
    153 z         11.269468     11.242639    -0.026829    Cartesian   -0.24
    154 x         11.269468     11.279490     0.010022    Cartesian    0.09
    154 y         11.269468     11.279490     0.010022    Cartesian    0.09
    154 z          6.761681      6.740724    -0.020957    Cartesian   -0.31
    155 x          6.761681      6.763878     0.002198    Cartesian    0.03
    155 y         15.777255     15.763947    -0.013308    Cartesian   -0.08
    155 z         -2.253894     -2.269198    -0.015304    Cartesian    0.68
    156 x          4.507787      4.515399     0.007611    Cartesian    0.17
    156 y         13.523362     13.538528     0.015167    Cartesian    0.11
    156 z          9.015574      9.022421     0.006846    Cartesian    0.08
    157 x          6.761681      6.766328     0.004647    Cartesian    0.07
    157 y         11.269468     11.284784     0.015316    Cartesian    0.14
    157 z         11.269468     11.238492    -0.030976    Cartesian   -0.27
    158 x          2.253894      2.253894     0.000000    Cartesian    0.00
    158 y         15.777255     15.738640    -0.038616    Cartesian   -0.24
    158 z          6.761681      6.766605     0.004924    Cartesian    0.07
    159 x          4.507787      4.511034     0.003247    Cartesian    0.07
    159 y          9.015574      9.010271    -0.005304    Cartesian   -0.06
    159 z         13.523362     13.538985     0.015623    Cartesian    0.12
    160 x          2.253894      2.253894     0.000000    Cartesian    0.00
    160 y          2.253894      2.253894     0.000000    Cartesian    0.00
    160 z         15.777255     15.792670     0.015415    Cartesian    0.10
    161 x          6.761681      6.757556    -0.004125    Cartesian   -0.06
    161 y         15.777255     15.777294     0.000038    Cartesian    0.00
    161 z          6.761681      6.729445    -0.032235    Cartesian   -0.48
    162 x          4.507787      4.555525     0.047738    Cartesian    1.06
    162 y        -13.523362    -13.535125    -0.011764    Cartesian    0.09
    162 z          0.000000      0.000000     0.000000    Cartesian    0.00
    163 x          9.015574      9.053007     0.037432    Cartesian    0.42
    163 y         13.523362     13.552496     0.029134    Cartesian    0.22
    163 z          9.015574      9.045087     0.029513    Cartesian    0.33
    164 x         13.523362     13.555527     0.032165    Cartesian    0.24
    164 y         13.523362     13.555527     0.032165    Cartesian    0.24
    164 z          0.000000      0.000000     0.000000    Cartesian    0.00
    165 x          2.253894      2.253894     0.000000    Cartesian    0.00
    165 y          6.761681      6.741902    -0.019779    Cartesian   -0.29
    165 z         15.777255     15.769627    -0.007628    Cartesian   -0.05
    166 x         11.269468     11.260525    -0.008943    Cartesian   -0.08
    166 y         15.777255     15.776100    -0.001155    Cartesian   -0.01
    166 z         -2.253894     -2.241962     0.011931    Cartesian   -0.53
    167 x          4.507787      4.457642    -0.050145    Cartesian   -1.11
    167 y        -13.523362    -13.565569    -0.042208    Cartesian    0.31
    167 z          4.507787      4.511111     0.003324    Cartesian    0.07
    168 x         13.523362     13.567193     0.043831    Cartesian    0.32
    168 y         13.523362     13.567193     0.043831    Cartesian    0.32
    168 z          4.507787      4.515402     0.007615    Cartesian    0.17
    169 x          9.015574      9.040608     0.025033    Cartesian    0.28
    169 y          9.015574      9.040608     0.025033    Cartesian    0.28
    169 z         13.523362     13.558411     0.035050    Cartesian    0.26
    170 x          6.761681      6.780723     0.019042    Cartesian    0.28
    170 y          6.761681      6.780723     0.019042    Cartesian    0.28
    170 z         15.777255     15.767718    -0.009537    Cartesian   -0.06
    171 x         11.269468     11.262494    -0.006974    Cartesian   -0.06
    171 y         11.269468     11.262494    -0.006974    Cartesian   -0.06
    171 z         11.269468     11.276821     0.007353    Cartesian    0.07
    172 x          9.015574      9.017181     0.001607    Cartesian    0.02
    172 y        -13.523362    -13.601408    -0.078047    Cartesian    0.58
    172 z          0.000000      0.000000     0.000000    Cartesian    0.00
    173 x          2.253894      2.253894     0.000000    Cartesian    0.00
    173 y         15.777255     15.785665     0.008410    Cartesian    0.05
    173 z         11.269468     11.243291    -0.026177    Cartesian   -0.23
    174 x         11.269468     11.274729     0.005261    Cartesian    0.05
    174 y         15.777255     15.771630    -0.005625    Cartesian   -0.04
    174 z          6.761681      6.762260     0.000579    Cartesian    0.01
    175 x          9.015574      8.995663    -0.019911    Cartesian   -0.22
    175 y        -13.523362    -13.513560     0.009802    Cartesian   -0.07
    175 z          4.507787      4.511029     0.003242    Cartesian    0.07
    176 x          4.507787      4.526249     0.018462    Cartesian    0.41
    176 y         13.523362     13.533524     0.010163    Cartesian    0.08
    176 z         13.523362     13.549123     0.025761    Cartesian    0.19
--------------------------------------------------------------------------------


  Time to end of optimisation  =      261.6824 seconds


  Peak dynamic memory used =     564.97 MB 


  Timing analysis for GULP :

--------------------------------------------------------------------------------
  Task / Subroutine                                          Time (Seconds)
--------------------------------------------------------------------------------
  Calculation of reciprocal space energy and derivatives          0.0004
  Calculation of reciprocal space energy using symmetry           0.0005
  Calculation of real space energy and derivatives                0.0022
  Calculation of real space energy using symmetry                 0.0050
  Calculation for region 1 energy and derivatives (2-b)         154.4472
  Calculation for region 2a energy                               99.2045
  Calculation for region 2b energy                                0.0003
  Calculation and manipulation of Hessian matrix                  6.9344
  Calculation of matrix inversion                                 0.4253
  Symmetry generation of equivalent positions                     0.0029
--------------------------------------------------------------------------------
  Total CPU time                                                261.6824
--------------------------------------------------------------------------------


  Dump file written as Na3OCl.grs


  Job Finished at 11:42.40  2nd January    2021                               

