********************************************************************************
*                       GENERAL UTILITY LATTICE PROGRAM                        *
*                                 Julian Gale                                  *
*                       Curtin Institute for Computation                       *
*                    School of Molecular and Life Sciences                     *
*                    Curtin University, Western Australia                      *
********************************************************************************
* Version = 5.2.0 * Last modified =  10th September 2020                       *
********************************************************************************
*  optimise     - perform optimisation run                                     *
*  conp         - constant pressure calculation                                *
*  property     - calculate properties for final geometry                      *
*  defect       - perform defect calculation after bulk run                    *
*  compare      - compare initial and final structures                         *
********************************************************************************

  Job Started  at 11:38.42  2nd January    2021                               

  Number of CPUs =     1


  Total number of configurations input =      1

********************************************************************************
*  Input for Configuration =   1                                               *
********************************************************************************

  Formula = ClONa3                                                      

  Number of irreducible atoms/shells =       5


  Total number atoms/shells =       7

  Dimensionality = 3               :  Bulk   


  Symmetry :

  Crystal family                   :  Cubic       
  Crystal class  (Groth - 1921)    :  Cubic Hexakisoctahedral              

  Space group (centrosymmetric)    :  P M 3 M         

  Patterson group                  :  P m -3 m 

  Cartesian lattice vectors (Angstroms) :

        4.504000    0.000000    0.000000
        0.000000    4.504000    0.000000
        0.000000    0.000000    4.504000

  Cell parameters (Angstroms/Degrees):

  a =       4.5040    alpha =  90.0000
  b =       4.5040    beta  =  90.0000
  c =       4.5040    gamma =  90.0000

  Initial cell volume =          91.368216 Angs**3

  Temperature of configuration =   0.00     K 

  Pressure of configuration =         0.000 GPa 

  Fractional coordinates of asymmetric unit :

--------------------------------------------------------------------------------
   No.  Atomic       x           y          z         Charge      Occupancy
        Label      (Frac)      (Frac)     (Frac)        (e)         (Frac)  
--------------------------------------------------------------------------------
      1 Cl    c    0.000000    0.000000    0.000000     1.48500    1.000000    
      2 O     c    0.500000    0.500000    0.500000     0.18300    1.000000    
      3 Na    c    0.500000    0.500000    0.000000     1.00000    1.000000    
      4 Cl    s    0.000000    0.000000    0.000000    -2.48500    1.000000    
      5 O     s    0.500000    0.500000    0.500000    -2.18300    1.000000    
--------------------------------------------------------------------------------


  Constraints : 

--------------------------------------------------------------------------------
  Constraint no.      Unconstrained     Constrained    Coefficient    Offset
                         Variable         Variable
--------------------------------------------------------------------------------
           1              Strain 1        Strain 2       1.00000      0.0000
           2              Strain 1        Strain 3       1.00000      0.0000
--------------------------------------------------------------------------------


********************************************************************************
*  General input information                                                   *
********************************************************************************

  Species output for all configurations : 

--------------------------------------------------------------------------------
  Species    Type    Atomic    Atomic    Charge       Radii (Angs)     Library
                     Number     Mass       (e)     Cova   Ionic  VDW   Symbol
--------------------------------------------------------------------------------
    Na       Core       11      22.99   1.000000   0.970  0.000  2.300          
    O        Core        8      16.00   0.183000   0.730  0.000  1.360          
    O        Shell       8       0.00  -2.183000   0.730  0.000  1.360          
    Cl       Core       17      35.45   1.485000   0.990  0.000  1.650          
    Cl       Shell      17       0.00  -2.485000   0.990  0.000  1.650          
    Mg       Core       12      24.31   0.415000   1.100  0.000  0.000          
    Mg       Shell      12       0.00   1.585000   1.100  0.000  0.000          
    Ca       Core       20      40.08  -1.135000   0.990  0.000  0.000          
    Ca       Shell      20       0.00   3.135000   0.990  0.000  0.000          
    Sr       Core       38      87.62  -1.251000   1.120  0.000  0.000          
    Sr       Shell      38       0.00   3.251000   1.120  0.000  0.000          
    Ba       Core       56     137.33  -7.203000   1.340  0.000  0.000          
    Ba       Shell      56       0.00   9.203000   1.340  0.000  0.000          
--------------------------------------------------------------------------------


  Lattice summation method               =    Ewald          (3-D)
                                         =    Parry          (2-D)
                                         =    Saunders et al (1-D)
  Accuracy factor for lattice sums       =   12.000


  Analytic derivatives to be used

  Time limit = Infinity

  Maximum range for interatomic potentials =    100000.000000 Angstroms

  General interatomic potentials :

--------------------------------------------------------------------------------
Atom  Types   Potential      Parameter       Value         Units   Cutoffs(Ang)
  1     2                                                            Min /  Max 
--------------------------------------------------------------------------------
O    c O    s Spring (c-s)  Spring k 2       593.71600    eV*Ang^-2 0.000  0.800
                            Spring k 4       0.0000000    eV*Ang^-4 
--------------------------------------------------------------------------------
Cl   c Cl   s Spring (c-s)  Spring k 2       29.380000    eV*Ang^-2 0.000  0.800
                            Spring k 4       0.0000000    eV*Ang^-4 
--------------------------------------------------------------------------------
Mg   c Mg   s Spring (c-s)  Spring k 2       361.60000    eV*Ang^-2 0.000  0.800
                            Spring k 4       0.0000000    eV*Ang^-4 
--------------------------------------------------------------------------------
Ca   c Ca   s Spring (c-s)  Spring k 2       110.20000    eV*Ang^-2 0.000  0.800
                            Spring k 4       0.0000000    eV*Ang^-4 
--------------------------------------------------------------------------------
Sr   c Sr   s Spring (c-s)  Spring k 2       71.700000    eV*Ang^-2 0.000  0.800
                            Spring k 4       0.0000000    eV*Ang^-4 
--------------------------------------------------------------------------------
Ba   c Ba   s Spring (c-s)  Spring k 2       495.20000    eV*Ang^-2 0.000  0.800
                            Spring k 4       0.0000000    eV*Ang^-4 
--------------------------------------------------------------------------------
Na   c Na   c Buckingham    Buckingham A     1788.1900    eV        0.000 12.000
                            Buckingham rho  0.15900000    Ang       
                            Buckingham C     0.0000000    eV*Ang^6  
--------------------------------------------------------------------------------
Na   c O    s Buckingham    Buckingham A     1226.8400    eV        0.000 12.000
                            Buckingham rho  0.30700000    Ang       
                            Buckingham C     0.0000000    eV*Ang^6  
--------------------------------------------------------------------------------
Na   c Cl   s Buckingham    Buckingham A     2314.7000    eV        0.000 12.000
                            Buckingham rho  0.29000000    Ang       
                            Buckingham C     0.0000000    eV*Ang^6  
--------------------------------------------------------------------------------
O    s O    s Buckingham    Buckingham A     22764.300    eV        0.000 12.000
                            Buckingham rho  0.14900000    Ang       
                            Buckingham C     13.190000    eV*Ang^6  
--------------------------------------------------------------------------------
O    s Cl   s Buckingham    Buckingham A     8286.9100    eV        0.000 12.000
                            Buckingham rho  0.25900000    Ang       
                            Buckingham C     62.200000    eV*Ang^6  
--------------------------------------------------------------------------------
Cl   s Cl   s Buckingham    Buckingham A     1227.2000    eV        0.000 12.000
                            Buckingham rho  0.32100000    Ang       
                            Buckingham C     14.530000    eV*Ang^6  
--------------------------------------------------------------------------------
O    s Mg   s Buckingham    Buckingham A     1428.5000    eV        0.000 12.000
                            Buckingham rho  0.29450000    Ang       
                            Buckingham C     0.0000000    eV*Ang^6  
--------------------------------------------------------------------------------
Mg   s Cl   s Buckingham    Buckingham A     4914.5400    eV        0.000 12.000
                            Buckingham rho  0.25700000    Ang       
                            Buckingham C     0.0000000    eV*Ang^6  
--------------------------------------------------------------------------------
O    s Ca   s Buckingham    Buckingham A     1090.4000    eV        0.000 12.000
                            Buckingham rho  0.34370000    Ang       
                            Buckingham C     0.0000000    eV*Ang^6  
--------------------------------------------------------------------------------
Cl   s Ca   s Buckingham    Buckingham A     2302.0000    eV        0.000 12.000
                            Buckingham rho  0.34020000    Ang       
                            Buckingham C     0.0000000    eV*Ang^6  
--------------------------------------------------------------------------------
O    s Sr   s Buckingham    Buckingham A     959.10000    eV        0.000 12.000
                            Buckingham rho  0.37210000    Ang       
                            Buckingham C     0.0000000    eV*Ang^6  
--------------------------------------------------------------------------------
Cl   s Sr   s Buckingham    Buckingham A     2191.0900    eV        0.000 12.000
                            Buckingham rho  0.34570000    Ang       
                            Buckingham C     0.0000000    eV*Ang^6  
--------------------------------------------------------------------------------
O    s Ba   s Buckingham    Buckingham A     905.70000    eV        0.000 12.000
                            Buckingham rho  0.39760000    Ang       
                            Buckingham C     0.0000000    eV*Ang^6  
--------------------------------------------------------------------------------
Cl   s Ba   s Buckingham    Buckingham A     2704.5500    eV        0.000 12.000
                            Buckingham rho  0.35280000    Ang       
                            Buckingham C     0.0000000    eV*Ang^6  
--------------------------------------------------------------------------------

********************************************************************************
*  Output for configuration   1                                                *
********************************************************************************


  Components of energy : 

--------------------------------------------------------------------------------
  Interatomic potentials     =           5.13022605 eV    
  Monopole - monopole (real) =         -10.03624526 eV    
  Monopole - monopole (recip)=         -29.53581274 eV    
  Monopole - monopole (total)=         -39.57205800 eV    
--------------------------------------------------------------------------------
  Total lattice energy       =         -34.44183194 eV    
--------------------------------------------------------------------------------
  Total lattice energy       =           -3323.1103 kJ/(mole unit cells)
--------------------------------------------------------------------------------


  Number of variables =        1

  Maximum number of calculations  =          1000
  Maximum Hessian update interval =            10
  Maximum step size               =   1.000000000
  Maximum parameter tolerance     =   0.000010000
  Maximum function  tolerance     =   0.000010000
  Maximum gradient  tolerance     =   0.001000000
  Maximum gradient  component     =   0.010000000

  Symmetry constrained optimisation

  Symmetry used for second derivatives

  Cell parameters to be optimised using strains

  Newton-Raphson optimiser to be used

  BFGS hessian update to be used

  Lower half triangular hessian to be used

  Start of bulk optimisation :

  Cycle:      0 Energy:       -34.441832  Gnorm:      0.196570  CPU:    0.015
  ** Hessian calculated **
  Cycle:      1 Energy:       -34.441914  Gnorm:      0.000103  CPU:    0.019


  **** Optimisation achieved ****


  Final energy =     -34.44191447 eV
  Final Gnorm  =       0.00000000

  Components of energy : 

--------------------------------------------------------------------------------
  Interatomic potentials     =           5.09689708 eV    
  Monopole - monopole (real) =         -10.02781331 eV    
  Monopole - monopole (recip)=         -29.51099824 eV    
  Monopole - monopole (total)=         -39.53881155 eV    
--------------------------------------------------------------------------------
  Total lattice energy       =         -34.44191447 eV    
--------------------------------------------------------------------------------
  Total lattice energy       =           -3323.1183 kJ/(mole unit cells)
--------------------------------------------------------------------------------

  Final asymmetric unit coordinates :

--------------------------------------------------------------------------------
   No.  Atomic        x           y           z         Radius
        Label       (Frac)      (Frac)      (Frac)       (Angs) 
--------------------------------------------------------------------------------
     1  Cl    c     0.000000    0.000000    0.000000    0.000000
     2  O     c     0.500000    0.500000    0.500000    0.000000
     3  Na    c     0.500000    0.500000    0.000000    0.000000
     4  Cl    s     0.000000    0.000000    0.000000    0.000000
     5  O     s     0.500000    0.500000    0.500000    0.000000
--------------------------------------------------------------------------------

  Final Cartesian lattice vectors (Angstroms) :

        4.507787    0.000000    0.000000
        0.000000    4.507787    0.000000
        0.000000    0.000000    4.507787


  Final cell parameters and derivatives :

--------------------------------------------------------------------------------
       a            4.507787 Angstrom     dE/de1(xx)     0.000000 eV/strain
       b            4.507787 Angstrom     dE/de2(yy)     0.000000 eV/strain
       c            4.507787 Angstrom     dE/de3(zz)     0.000000 eV/strain
       alpha       90.000000 Degrees      dE/de4(yz)     0.000000 eV/strain
       beta        90.000000 Degrees      dE/de5(xz)     0.000000 eV/strain
       gamma       90.000000 Degrees      dE/de6(xy)     0.000000 eV/strain
--------------------------------------------------------------------------------

  Primitive cell volume =            91.598892 Angs**3

  Density of cell =      2.183054 g/cm**3

  Non-primitive cell volume =            91.598892 Angs**3


  Final internal derivatives :

--------------------------------------------------------------------------------
   No.  Atomic          a             b             c           Radius
        Label          (eV)          (eV)          (eV)        (eV/Angs)
--------------------------------------------------------------------------------
      1 Cl    c       0.000000      0.000000      0.000000      0.000000
      2 O     c       0.000000      0.000000      0.000000      0.000000
      3 Na    c       0.000000      0.000000      0.000000      0.000000
      4 Cl    s       0.000000      0.000000      0.000000      0.000000
      5 O     s       0.000000      0.000000      0.000000      0.000000
--------------------------------------------------------------------------------
  Maximum abs         0.000000      0.000000      0.000000      0.000000
--------------------------------------------------------------------------------

  Comparison of initial and final structures : 

--------------------------------------------------------------------------------
  Parameter   Initial value   Final value   Difference    Units      Percent
--------------------------------------------------------------------------------
    Volume        91.368216     91.598892     0.230676    Angs**3      0.25
    a              4.504000      4.507787     0.003787    Angstroms    0.08
    b              4.504000      4.507787     0.003787    Angstroms    0.08
    c              4.504000      4.507787     0.003787    Angstroms    0.08
    alpha         90.000000     90.000000     0.000000    Degrees      0.00
    beta          90.000000     90.000000     0.000000    Degrees      0.00
    gamma         90.000000     90.000000     0.000000    Degrees      0.00
      1 x          0.000000      0.000000     0.000000    Fractional   0.00
      1 y          0.000000      0.000000     0.000000    Fractional   0.00
      1 z          0.000000      0.000000     0.000000    Fractional   0.00
      2 x          0.500000      0.500000     0.000000    Fractional   0.00
      2 y          0.500000      0.500000     0.000000    Fractional   0.00
      2 z          0.500000      0.500000     0.000000    Fractional   0.00
      3 x          0.500000      0.500000     0.000000    Fractional   0.00
      3 y          0.500000      0.500000     0.000000    Fractional   0.00
      3 z          0.000000      0.000000     0.000000    Fractional   0.00
      4 x          0.000000      0.000000     0.000000    Fractional   0.00
      4 y          0.000000      0.000000     0.000000    Fractional   0.00
      4 z          0.000000      0.000000     0.000000    Fractional   0.00
      5 x          0.500000      0.500000     0.000000    Fractional   0.00
      5 y          0.500000      0.500000     0.000000    Fractional   0.00
      5 z          0.500000      0.500000     0.000000    Fractional   0.00
--------------------------------------------------------------------------------


  Born effective charge tensors : 

-------------------------------------------------------------------------------
  Atom             x           y             z
-------------------------------------------------------------------------------
    1 Cl    x      -1.0181     -0.0000      0.0000
            y      -0.0000     -1.0181      0.0000
            z       0.0000      0.0000     -1.0181
-------------------------------------------------------------------------------
    2 O     x      -2.2647      0.0000     -0.0000
            y       0.0000     -2.2647     -0.0000
            z      -0.0000     -0.0000     -2.2647
-------------------------------------------------------------------------------
    3 Na    x       1.2258     -0.0000      0.0000
            y      -0.0000      1.2258     -0.0000
            z       0.0000     -0.0000      0.8313
-------------------------------------------------------------------------------




  Elastic Constant Matrix: (Units=GPa)

-------------------------------------------------------------------------------
  Indices      1         2         3         4         5         6    
-------------------------------------------------------------------------------
       1     95.8177   20.0737   20.0737   -0.0000   -0.0000    0.0000
       2     20.0737   95.8177   20.0737   -0.0000   -0.0000    0.0000
       3     20.0737   20.0737   95.8177   -0.0000   -0.0000    0.0000
       4     -0.0000   -0.0000   -0.0000   20.0737   -0.0000    0.0000
       5     -0.0000   -0.0000   -0.0000   -0.0000   20.0737    0.0000
       6      0.0000    0.0000    0.0000    0.0000    0.0000   20.0737
-------------------------------------------------------------------------------


  Elastic Compliance Matrix: (Units=1/GPa)

-------------------------------------------------------------------------------
  Indices      1         2         3         4         5         6    
-------------------------------------------------------------------------------
       1    0.011253 -0.001949 -0.001949  0.000000  0.000000 -0.000000
       2   -0.001949  0.011253 -0.001949  0.000000  0.000000  0.000000
       3   -0.001949 -0.001949  0.011253  0.000000  0.000000 -0.000000
       4    0.000000  0.000000  0.000000  0.049816  0.000000 -0.000000
       5    0.000000  0.000000  0.000000  0.000000  0.049816 -0.000000
       6   -0.000000  0.000000 -0.000000 -0.000000 -0.000000  0.049816
-------------------------------------------------------------------------------

  Mechanical properties :

-------------------------------------------------------------------------------
  Convention :                    Reuss         Voigt         Hill
-------------------------------------------------------------------------------
  Bulk  Modulus (GPa)     =      45.32174      45.32174      45.32174
  Shear Modulus (GPa)     =      24.72085      27.19304      25.95695
-------------------------------------------------------------------------------
  Velocity S-wave (km/s)  =       3.36511       3.52937       3.44822
  Velocity P-wave (km/s)  =       5.98827       6.11304       6.05098
-------------------------------------------------------------------------------
  Compressibility (1/GPa) =    0.02206447
-------------------------------------------------------------------------------
  Stress axis :                     x             y             z
-------------------------------------------------------------------------------
  Youngs Moduli (GPa)     =      88.86373      88.86373      88.86373
-------------------------------------------------------------------------------
  Poissons Ratio (x)      =                     0.17321       0.17321
  Poissons Ratio (y)      =       0.17321                     0.17321
  Poissons Ratio (z)      =       0.17321       0.17321
-------------------------------------------------------------------------------


  Piezoelectric Strain Matrix: (Units=C/m**2)

-------------------------------------------------------------------------------
  Indices      1         2         3         4         5         6    
-------------------------------------------------------------------------------
       x    -0.00000  -0.00000  -0.00000   0.00000  -0.00000  -0.00000
       y    -0.00000  -0.00000   0.00000  -0.00000   0.00000   0.00000
       z    -0.00000  -0.00000  -0.00000  -0.00000   0.00000   0.00000
-------------------------------------------------------------------------------


  Piezoelectric Stress Matrix: (Units=10**-11 C/N)

-------------------------------------------------------------------------------
  Indices      1         2         3         4         5         6    
-------------------------------------------------------------------------------
       x    -0.00000   0.00000   0.00000   0.00000  -0.00000  -0.00000
       y    -0.00000  -0.00000   0.00000  -0.00000   0.00000   0.00000
       z     0.00000   0.00000  -0.00000  -0.00000   0.00000   0.00000
-------------------------------------------------------------------------------


  Static dielectric constant tensor : 

-------------------------------------------------------------------------------
              x         y         z
-------------------------------------------------------------------------------
       x    22.84729   0.00000   0.00000
       y     0.00000  22.84729  -0.00000
       z     0.00000  -0.00000  22.84729
--------------------------------------------------------------------------------

  High frequency dielectric constant tensor : 

-------------------------------------------------------------------------------
              x         y         z
-------------------------------------------------------------------------------
       x     1.47557   0.00000  -0.00000
       y     0.00000   1.47557  -0.00000
       z    -0.00000  -0.00000   1.47557
-------------------------------------------------------------------------------

  Static refractive indices : 

-------------------------------------------------------------------------------
    1 =    4.77988      2 =    4.77988      3 =    4.77988
-------------------------------------------------------------------------------

  High frequency refractive indices : 

-------------------------------------------------------------------------------
    1 =    1.21473      2 =    1.21473      3 =    1.21473
-------------------------------------------------------------------------------


  Time to end of optimisation =       0.0273 seconds

********************************************************************************
*  Defect calculation for configuration   1 :                                  *
********************************************************************************

  Total number of defects =      1

  Total charge on defect  =  -1.00

  Defect centre is at   0.5000   0.5000   0.0000  Frac

  Region 1 radius =  20.0000      Number of ions =   2588

  Number of symmetry inequivalent region 1 ions  =    237

  Region 2 radius =  24.0000      Number of ions =   1810

  Number of symmetry inequivalent region 2a ions =    147

  Region 2a mode = 4 : screened electrostatics due to region 1 
                       neglect correction to region 1 forces from 2a
                       region 2a displacements based on defects only

  Region 2a ions will only interact with defects in region 1

  Vacancies:

--------------------------------------------------------------------------------
    Specification type     Symbol/Number         x          y          z
--------------------------------------------------------------------------------
    Fractional                               0.500000   0.500000   0.000000
--------------------------------------------------------------------------------


  Symmetry reduced region 1 (Relative to defect centre) :

--------------------------------------------------------------------------------
   No.   Atomic       x            y             z       Radius  Multiplicity   
         Label      (Angs)       (Angs)        (Angs)    (Angs)     
--------------------------------------------------------------------------------
     1  O     c      0.0000       0.0000      -2.2539 *  0.0000     2          
     2  Cl    c      2.2539 *     2.2539       0.0000    0.0000     4          
     3  Na    c      2.2539 *     0.0000      -2.2539 *  0.0000     8          
     4  Na    c      0.0000       0.0000       4.5078 *  0.0000     2          
     5  Na    c      0.0000      -4.5078 *     0.0000    0.0000     4          
     6  O     c      0.0000      -4.5078 *    -2.2539 *  0.0000     8          
     7  Na    c      2.2539 *    -4.5078 *    -2.2539 *  0.0000    16          
     8  Cl    c      2.2539 *     2.2539       4.5078 *  0.0000     8          
     9  Na    c      0.0000      -4.5078 *     4.5078 *  0.0000     8          
    10  Na    c     -4.5078 *    -4.5078       0.0000    0.0000     4          
    11  O     c     -4.5078 *    -4.5078      -2.2539 *  0.0000     8          
    12  O     c      0.0000       0.0000       6.7617 *  0.0000     2          
    13  Cl    c      2.2539 *     6.7617 *     0.0000    0.0000     8          
    14  Na    c      2.2539 *     0.0000       6.7617 *  0.0000     8          
    15  Na    c      6.7617 *     0.0000      -2.2539 *  0.0000     8          
    16  Na    c      4.5078 *    -4.5078       4.5078 *  0.0000     8          
    17  O     c      0.0000      -4.5078 *     6.7617 *  0.0000     8          
    18  Cl    c      2.2539 *     6.7617 *     4.5078 *  0.0000    16          
    19  Na    c      2.2539 *    -4.5078 *     6.7617 *  0.0000    16          
    20  Na    c      6.7617 *    -4.5078 *    -2.2539 *  0.0000    16          
    21  Na    c      0.0000       0.0000       9.0156 *  0.0000     2          
    22  Na    c      0.0000       9.0156 *     0.0000    0.0000     4          
    23  O     c      0.0000       9.0156 *    -2.2539 *  0.0000     8          
    24  O     c      4.5078 *     4.5078       6.7617 *  0.0000     8          
    25  Cl    c      2.2539 *     2.2539       9.0156 *  0.0000     8          
    26  Na    c      2.2539 *     9.0156 *    -2.2539 *  0.0000    16          
    27  Cl    c      6.7617 *     6.7617       0.0000    0.0000     4          
    28  Na    c      6.7617 *     0.0000       6.7617 *  0.0000     8          
    29  Na    c      0.0000       9.0156 *     4.5078 *  0.0000     8          
    30  Na    c      0.0000      -4.5078 *     9.0156 *  0.0000     8          
    31  Na    c      9.0156 *    -4.5078 *     0.0000    0.0000     8          
    32  O     c      9.0156 *    -4.5078 *    -2.2539 *  0.0000    16          
    33  Cl    c      6.7617 *     6.7617       4.5078 *  0.0000     8          
    34  Na    c      6.7617 *    -4.5078 *     6.7617 *  0.0000    16          
    35  Na    c      9.0156 *    -4.5078 *     4.5078 *  0.0000    16          
    36  Na    c      4.5078 *     4.5078       9.0156 *  0.0000     8          
    37  O     c      0.0000       0.0000      11.2695 *  0.0000     2          
    38  O     c      0.0000       9.0156 *     6.7617 *  0.0000     8          
    39  Cl    c      2.2539 *    11.2695 *     0.0000    0.0000     8          
    40  Na    c      2.2539 *     0.0000      11.2695 *  0.0000     8          
    41  Na    c     11.2695 *     0.0000      -2.2539 *  0.0000     8          
    42  Cl    c      2.2539 *     6.7617 *     9.0156 *  0.0000    16          
    43  Na    c      2.2539 *     9.0156 *     6.7617 *  0.0000    16          
    44  Na    c      6.7617 *     9.0156 *    -2.2539 *  0.0000    16          
    45  O     c      0.0000       4.5078 *    11.2695 *  0.0000     8          
    46  O     c      4.5078 *     9.0156 *     6.7617 *  0.0000    16          
    47  Cl    c      2.2539 *    11.2695 *     4.5078 *  0.0000    16          
    48  Na    c      2.2539 *     4.5078 *    11.2695 *  0.0000    16          
    49  Na    c     11.2695 *     4.5078 *    -2.2539 *  0.0000    16          
    50  Na    c      0.0000       9.0156 *     9.0156 *  0.0000     8          
    51  Na    c      9.0156 *     9.0156       0.0000    0.0000     4          
    52  O     c     -4.5078 *    -4.5078      11.2695 *  0.0000     8          
    53  O     c      9.0156 *     9.0156      -2.2539 *  0.0000     8          
    54  Cl    c      6.7617 *    11.2695 *     0.0000    0.0000     8          
    55  Na    c      6.7617 *     0.0000      11.2695 *  0.0000     8          
    56  Na    c     11.2695 *     0.0000       6.7617 *  0.0000     8          
    57  Cl    c      6.7617 *     6.7617       9.0156 *  0.0000     8          
    58  Na    c      6.7617 *     9.0156 *     6.7617 *  0.0000    16          
    59  Na    c      9.0156 *     9.0156       4.5078 *  0.0000     8          
    60  Na    c      9.0156 *    -4.5078 *     9.0156 *  0.0000    16          
    61  Na    c      0.0000       0.0000      13.5234 *  0.0000     2          
    62  Na    c      0.0000      13.5234 *     0.0000    0.0000     4          
    63  O     c      0.0000      13.5234 *    -2.2539 *  0.0000     8          
    64  Cl    c      6.7617 *    11.2695 *     4.5078 *  0.0000    16          
    65  Na    c      6.7617 *    -4.5078 *    11.2695 *  0.0000    16          
    66  Na    c     11.2695 *     4.5078 *     6.7617 *  0.0000    16          
    67  Cl    c      2.2539 *     2.2539      13.5234 *  0.0000     8          
    68  Na    c      2.2539 *    13.5234 *    -2.2539 *  0.0000    16          
    69  Na    c      0.0000       4.5078 *    13.5234 *  0.0000     8          
    70  Na    c      0.0000      13.5234 *     4.5078 *  0.0000     8          
    71  Na    c      4.5078 *    13.5234 *     0.0000    0.0000     8          
    72  O     c      0.0000       9.0156 *    11.2695 *  0.0000     8          
    73  O     c      9.0156 *     9.0156       6.7617 *  0.0000     8          
    74  O     c      4.5078 *    13.5234 *    -2.2539 *  0.0000    16          
    75  Cl    c      2.2539 *    11.2695 *     9.0156 *  0.0000    16          
    76  Na    c      2.2539 *     9.0156 *    11.2695 *  0.0000    16          
    77  Na    c     11.2695 *     9.0156 *    -2.2539 *  0.0000    16          
    78  Na    c      4.5078 *    13.5234 *     4.5078 *  0.0000    16          
    79  Na    c      4.5078 *    -4.5078      13.5234 *  0.0000     8          
    80  O     c      4.5078 *     9.0156 *    11.2695 *  0.0000    16          
    81  O     c      0.0000      13.5234 *     6.7617 *  0.0000     8          
    82  Cl    c      2.2539 *     6.7617 *    13.5234 *  0.0000    16          
    83  Na    c      2.2539 *    13.5234 *     6.7617 *  0.0000    16          
    84  Na    c      6.7617 *    13.5234 *    -2.2539 *  0.0000    16          
    85  Na    c      9.0156 *     9.0156       9.0156 *  0.0000     8          
    86  O     c      0.0000       0.0000      15.7773 *  0.0000     2          
    87  O     c      4.5078 *    13.5234 *     6.7617 *  0.0000    16          
    88  Cl    c      2.2539 *   -15.7773 *     0.0000    0.0000     8          
    89  Cl    c      6.7617 *    11.2695 *     9.0156 *  0.0000    16          
    90  Cl    c     11.2695 *    11.2695       0.0000    0.0000     4          
    91  Na    c      2.2539 *     0.0000      15.7773 *  0.0000     8          
    92  Na    c     11.2695 *     0.0000      11.2695 *  0.0000     8          
    93  Na    c    -15.7773 *     0.0000      -2.2539 *  0.0000     8          
    94  Na    c      6.7617 *     9.0156 *    11.2695 *  0.0000    16          
    95  Na    c     11.2695 *     9.0156 *     6.7617 *  0.0000    16          
    96  Na    c      0.0000       9.0156 *    13.5234 *  0.0000     8          
    97  Na    c      0.0000      13.5234 *     9.0156 *  0.0000     8          
    98  Na    c      9.0156 *    13.5234 *     0.0000    0.0000     8          
    99  O     c      0.0000       4.5078 *    15.7773 *  0.0000     8          
   100  O     c      9.0156 *    13.5234 *    -2.2539 *  0.0000    16          
   101  Cl    c      2.2539 *   -15.7773 *     4.5078 *  0.0000    16          
   102  Cl    c     11.2695 *    11.2695       4.5078 *  0.0000     8          
   103  Na    c      2.2539 *     4.5078 *    15.7773 *  0.0000    16          
   104  Na    c     11.2695 *     4.5078 *    11.2695 *  0.0000    16          
   105  Cl    c      6.7617 *     6.7617      13.5234 *  0.0000     8          
   106  Na    c    -15.7773 *     4.5078 *    -2.2539 *  0.0000    16          
   107  Na    c      6.7617 *    13.5234 *     6.7617 *  0.0000    16          
   108  Na    c      4.5078 *    13.5234 *     9.0156 *  0.0000    16          
   109  Na    c      9.0156 *    13.5234 *     4.5078 *  0.0000    16          
   110  Na    c      9.0156 *    -4.5078 *    13.5234 *  0.0000    16          
   111  O     c      4.5078 *     4.5078      15.7773 *  0.0000     8          
   112  O     c      9.0156 *     9.0156      11.2695 *  0.0000     8          
   113  Cl    c      6.7617 *   -15.7773 *     0.0000    0.0000     8          
   114  Na    c      6.7617 *     0.0000      15.7773 *  0.0000     8          
   115  Na    c    -15.7773 *     0.0000       6.7617 *  0.0000     8          
   116  O     c      0.0000      13.5234 *    11.2695 *  0.0000     8          
   117  O     c      9.0156 *    13.5234 *     6.7617 *  0.0000    16          
   118  Cl    c      6.7617 *   -15.7773 *     4.5078 *  0.0000    16          
   119  Na    c      6.7617 *    -4.5078 *    15.7773 *  0.0000    16          
   120  Cl    c      2.2539 *    11.2695 *    13.5234 *  0.0000    16          
   121  Na    c      2.2539 *    13.5234 *    11.2695 *  0.0000    16          
   122  Na    c    -15.7773 *     4.5078 *     6.7617 *  0.0000    16          
   123  Na    c     11.2695 *    13.5234 *    -2.2539 *  0.0000    16          
   124  Na    c      0.0000       0.0000      18.0311 *  0.0000     2          
   125  Na    c      0.0000      18.0311 *     0.0000    0.0000     4          
   126  O     c      0.0000       9.0156 *    15.7773 *  0.0000     8          
   127  O     c      0.0000      18.0311 *    -2.2539 *  0.0000     8          
   128  O     c      4.5078 *    13.5234 *    11.2695 *  0.0000    16          
   129  Cl    c      2.2539 *   -15.7773 *     9.0156 *  0.0000    16          
   130  Cl    c     11.2695 *    11.2695       9.0156 *  0.0000     8          
   131  Na    c      2.2539 *     9.0156 *    15.7773 *  0.0000    16          
   132  Cl    c      2.2539 *     2.2539      18.0311 *  0.0000     8          
   133  Na    c     11.2695 *     9.0156 *    11.2695 *  0.0000    16          
   134  Na    c    -15.7773 *     9.0156 *    -2.2539 *  0.0000    16          
   135  Na    c      2.2539 *    18.0311 *    -2.2539 *  0.0000    16          
   136  Na    c      0.0000       4.5078 *    18.0311 *  0.0000     8          
   137  Na    c      0.0000      18.0311 *     4.5078 *  0.0000     8          
   138  Na    c      4.5078 *    18.0311 *     0.0000    0.0000     8          
   139  Na    c      9.0156 *    13.5234 *     9.0156 *  0.0000    16          
   140  Na    c      9.0156 *     9.0156      13.5234 *  0.0000     8          
   141  O     c      4.5078 *     9.0156 *    15.7773 *  0.0000    16          
   142  O     c      4.5078 *    18.0311 *    -2.2539 *  0.0000    16          
   143  Cl    c      6.7617 *    11.2695 *    13.5234 *  0.0000    16          
   144  Na    c      6.7617 *    13.5234 *    11.2695 *  0.0000    16          
   145  Na    c     11.2695 *    13.5234 *     6.7617 *  0.0000    16          
   146  Na    c      4.5078 *     4.5078      18.0311 *  0.0000     8          
   147  Na    c      4.5078 *    18.0311 *     4.5078 *  0.0000    16          
   148  Na    c      0.0000      13.5234 *    13.5234 *  0.0000     8          
   149  Na    c     13.5234 *    13.5234       0.0000    0.0000     4          
   150  O     c      0.0000      18.0311 *     6.7617 *  0.0000     8          
   151  O     c     13.5234 *    13.5234      -2.2539 *  0.0000     8          
   152  Cl    c      6.7617 *   -15.7773 *     9.0156 *  0.0000    16          
   153  Cl    c     11.2695 *   -15.7773 *     0.0000    0.0000     8          
   154  Na    c     11.2695 *     0.0000      15.7773 *  0.0000     8          
   155  Na    c    -15.7773 *     0.0000      11.2695 *  0.0000     8          
   156  Cl    c      2.2539 *     6.7617 *    18.0311 *  0.0000    16          
   157  Na    c      6.7617 *     9.0156 *    15.7773 *  0.0000    16          
   158  Na    c    -15.7773 *     9.0156 *     6.7617 *  0.0000    16          
   159  Na    c      2.2539 *    18.0311 *     6.7617 *  0.0000    16          
   160  Na    c      6.7617 *    18.0311 *    -2.2539 *  0.0000    16          
   161  Na    c      4.5078 *    13.5234 *    13.5234 *  0.0000    16          
   162  Na    c     13.5234 *    13.5234       4.5078 *  0.0000     8          
   163  O     c      4.5078 *    18.0311 *     6.7617 *  0.0000    16          
   164  O     c      9.0156 *    13.5234 *    11.2695 *  0.0000    16          
   165  Cl    c     11.2695 *   -15.7773 *     4.5078 *  0.0000    16          
   166  Na    c     11.2695 *     4.5078 *    15.7773 *  0.0000    16          
   167  Na    c     15.7773 *     4.5078 *    11.2695 *  0.0000    16          
   168  O     s      0.0000       0.0000      -2.2539 *  0.0000     2          
   169  Cl    s      2.2539 *     2.2539       0.0000    0.0000     4          
   170  O     s      0.0000      -4.5078 *    -2.2539 *  0.0000     8          
   171  Cl    s      2.2539 *     2.2539       4.5078 *  0.0000     8          
   172  O     s     -4.5078 *    -4.5078      -2.2539 *  0.0000     8          
   173  O     s      0.0000       0.0000       6.7617 *  0.0000     2          
   174  Cl    s      2.2539 *     6.7617 *     0.0000    0.0000     8          
   175  O     s      0.0000      -4.5078 *     6.7617 *  0.0000     8          
   176  Cl    s      2.2539 *     6.7617 *     4.5078 *  0.0000    16          
   177  O     s      0.0000       9.0156 *    -2.2539 *  0.0000     8          
   178  O     s      4.5078 *     4.5078       6.7617 *  0.0000     8          
   179  Cl    s      2.2539 *     2.2539       9.0156 *  0.0000     8          
   180  Cl    s      6.7617 *     6.7617       0.0000    0.0000     4          
   181  O     s      9.0156 *    -4.5078 *    -2.2539 *  0.0000    16          
   182  Cl    s      6.7617 *     6.7617       4.5078 *  0.0000     8          
   183  O     s      0.0000       0.0000      11.2695 *  0.0000     2          
   184  O     s      0.0000       9.0156 *     6.7617 *  0.0000     8          
   185  Cl    s      2.2539 *    11.2695 *     0.0000    0.0000     8          
   186  Cl    s      2.2539 *     6.7617 *     9.0156 *  0.0000    16          
   187  O     s      0.0000       4.5078 *    11.2695 *  0.0000     8          
   188  O     s      4.5078 *     9.0156 *     6.7617 *  0.0000    16          
   189  Cl    s      2.2539 *    11.2695 *     4.5078 *  0.0000    16          
   190  O     s     -4.5078 *    -4.5078      11.2695 *  0.0000     8          
   191  O     s      9.0156 *     9.0156      -2.2539 *  0.0000     8          
   192  Cl    s      6.7617 *    11.2695 *     0.0000    0.0000     8          
   193  Cl    s      6.7617 *     6.7617       9.0156 *  0.0000     8          
   194  O     s      0.0000      13.5234 *    -2.2539 *  0.0000     8          
   195  Cl    s      6.7617 *    11.2695 *     4.5078 *  0.0000    16          
   196  Cl    s      2.2539 *     2.2539      13.5234 *  0.0000     8          
   197  O     s      0.0000       9.0156 *    11.2695 *  0.0000     8          
   198  O     s      9.0156 *     9.0156       6.7617 *  0.0000     8          
   199  O     s      4.5078 *    13.5234 *    -2.2539 *  0.0000    16          
   200  Cl    s      2.2539 *    11.2695 *     9.0156 *  0.0000    16          
   201  O     s      4.5078 *     9.0156 *    11.2695 *  0.0000    16          
   202  O     s      0.0000      13.5234 *     6.7617 *  0.0000     8          
   203  Cl    s      2.2539 *     6.7617 *    13.5234 *  0.0000    16          
   204  O     s      0.0000       0.0000      15.7773 *  0.0000     2          
   205  O     s      4.5078 *    13.5234 *     6.7617 *  0.0000    16          
   206  Cl    s      2.2539 *   -15.7773 *     0.0000    0.0000     8          
   207  Cl    s      6.7617 *    11.2695 *     9.0156 *  0.0000    16          
   208  Cl    s     11.2695 *    11.2695       0.0000    0.0000     4          
   209  O     s      0.0000       4.5078 *    15.7773 *  0.0000     8          
   210  O     s      9.0156 *    13.5234 *    -2.2539 *  0.0000    16          
   211  Cl    s      2.2539 *   -15.7773 *     4.5078 *  0.0000    16          
   212  Cl    s     11.2695 *    11.2695       4.5078 *  0.0000     8          
   213  Cl    s      6.7617 *     6.7617      13.5234 *  0.0000     8          
   214  O     s      4.5078 *     4.5078      15.7773 *  0.0000     8          
   215  O     s      9.0156 *     9.0156      11.2695 *  0.0000     8          
   216  Cl    s      6.7617 *   -15.7773 *     0.0000    0.0000     8          
   217  O     s      0.0000      13.5234 *    11.2695 *  0.0000     8          
   218  O     s      9.0156 *    13.5234 *     6.7617 *  0.0000    16          
   219  Cl    s      6.7617 *   -15.7773 *     4.5078 *  0.0000    16          
   220  Cl    s      2.2539 *    11.2695 *    13.5234 *  0.0000    16          
   221  O     s      0.0000       9.0156 *    15.7773 *  0.0000     8          
   222  O     s      0.0000      18.0311 *    -2.2539 *  0.0000     8          
   223  O     s      4.5078 *    13.5234 *    11.2695 *  0.0000    16          
   224  Cl    s      2.2539 *   -15.7773 *     9.0156 *  0.0000    16          
   225  Cl    s     11.2695 *    11.2695       9.0156 *  0.0000     8          
   226  Cl    s      2.2539 *     2.2539      18.0311 *  0.0000     8          
   227  O     s      4.5078 *     9.0156 *    15.7773 *  0.0000    16          
   228  O     s      4.5078 *    18.0311 *    -2.2539 *  0.0000    16          
   229  Cl    s      6.7617 *    11.2695 *    13.5234 *  0.0000    16          
   230  O     s      0.0000      18.0311 *     6.7617 *  0.0000     8          
   231  O     s     13.5234 *    13.5234      -2.2539 *  0.0000     8          
   232  Cl    s      6.7617 *   -15.7773 *     9.0156 *  0.0000    16          
   233  Cl    s     11.2695 *   -15.7773 *     0.0000    0.0000     8          
   234  Cl    s      2.2539 *     6.7617 *    18.0311 *  0.0000    16          
   235  O     s      4.5078 *    18.0311 *     6.7617 *  0.0000    16          
   236  O     s      9.0156 *    13.5234 *    11.2695 *  0.0000    16          
   237  Cl    s     11.2695 *   -15.7773 *     4.5078 *  0.0000    16          
--------------------------------------------------------------------------------


  Constraints on symmetry reduced coordinates :

--------------------------------------------------------------------------------
  Constraint no.      Unconstrained     Constrained    Coefficient    
                         Variable         Variable
--------------------------------------------------------------------------------
           1                 2 x             2 y         1.00000
           2                 8 x             8 y         1.00000
           3                10 x            10 y         1.00000
           4                11 x            11 y         1.00000
           5                16 x            16 y        -1.00000
           6                24 x            24 y         1.00000
           7                25 x            25 y         1.00000
           8                27 x            27 y         1.00000
           9                33 x            33 y         1.00000
          10                36 x            36 y         1.00000
          11                51 x            51 y         1.00000
          12                52 x            52 y         1.00000
          13                53 x            53 y         1.00000
          14                57 x            57 y         1.00000
          15                59 x            59 y         1.00000
          16                67 x            67 y         1.00000
          17                73 x            73 y         1.00000
          18                79 x            79 y        -1.00000
          19                85 x            85 y         1.00000
          20                90 x            90 y         1.00000
          21               102 x           102 y         1.00000
          22               105 x           105 y         1.00000
          23               111 x           111 y         1.00000
          24               112 x           112 y         1.00000
          25               130 x           130 y         1.00000
          26               132 x           132 y         1.00000
          27               140 x           140 y         1.00000
          28               146 x           146 y         1.00000
          29               149 x           149 y         1.00000
          30               151 x           151 y         1.00000
          31               162 x           162 y         1.00000
          32               169 x           169 y         1.00000
          33               171 x           171 y         1.00000
          34               172 x           172 y         1.00000
          35               178 x           178 y         1.00000
          36               179 x           179 y         1.00000
          37               180 x           180 y         1.00000
          38               182 x           182 y         1.00000
          39               190 x           190 y         1.00000
          40               191 x           191 y         1.00000
          41               193 x           193 y         1.00000
          42               196 x           196 y         1.00000
          43               198 x           198 y         1.00000
          44               208 x           208 y         1.00000
          45               212 x           212 y         1.00000
          46               213 x           213 y         1.00000
          47               214 x           214 y         1.00000
          48               215 x           215 y         1.00000
          49               225 x           225 y         1.00000
          50               226 x           226 y         1.00000
          51               231 x           231 y         1.00000
--------------------------------------------------------------------------------


  Components of defect energy : 

--------------------------------------------------------------------------------
  Region 1 - region 1                   =      7.74654130 eV
  Region 1 - region 2a (unrelaxed)      =      0.81815195 eV
  Region 1 - 2a (relaxed - correction)  =     -0.10861839 eV
  Region 1 (Total)                      =      8.45607486 eV
  Region 2a                             =      0.05430253 eV
  Region 2b                             =     -0.28811914 eV
--------------------------------------------------------------------------------
  Total defect energy                   =      8.22225825 eV
--------------------------------------------------------------------------------

  Largest displacement in region 2 =   0.0073 Angstroms


  Number of variables =      551

  Maximum number of calculations  =        1000
  Maximum Hessian update interval =          10
  Maximum step size               =   1.0000000
  Maximum parameter tolerance     =   0.0000100
  Maximum function  tolerance     =   0.0000100
  Maximum gradient  tolerance     =   0.0010000

  Symmetry adapted optimisation

  Symmetry to be used for second derivatives

  Newton-Raphson optimiser to be used

  BFGS hessian update to be used

  Lower half triangular hessian to be used

  Start of defect optimisation :

  Cycle:      0 Defect Energy:   8.222258  Gnorm:     0.073357  CPU:   17.691
  ** Hessian calculated **
  Cycle:      1 Defect Energy:   5.879426  Gnorm:     0.028288  CPU:   25.468
  Cycle:      2 Defect Energy:   5.559441  Gnorm:     0.023538  CPU:   30.706
  Cycle:      3 Defect Energy:   5.337886  Gnorm:     0.017223  CPU:   36.003
  Cycle:      4 Defect Energy:   5.194069  Gnorm:     0.017213  CPU:   41.487
  Cycle:      5 Defect Energy:   5.086419  Gnorm:     0.009549  CPU:   45.792
  Cycle:      6 Defect Energy:   4.971625  Gnorm:     0.012994  CPU:   50.541
  Cycle:      7 Defect Energy:   4.850476  Gnorm:     0.009073  CPU:   55.684
  Cycle:      8 Defect Energy:   4.709201  Gnorm:     0.011178  CPU:   60.275
  Cycle:      9 Defect Energy:   4.545215  Gnorm:     0.012593  CPU:   65.198
  Cycle:     10 Defect Energy:   4.368322  Gnorm:     0.012720  CPU:   70.409
  ** Hessian calculated **
  Cycle:     11 Defect Energy:   4.265524  Gnorm:     0.012202  CPU:   75.010
  Cycle:     12 Defect Energy:   4.117792  Gnorm:     0.011732  CPU:   79.873
  Cycle:     13 Defect Energy:   3.946761  Gnorm:     0.014146  CPU:   84.643
  Cycle:     14 Defect Energy:   3.746613  Gnorm:     0.012628  CPU:   88.644
  Cycle:     15 Defect Energy:   3.526700  Gnorm:     0.013309  CPU:   92.646
  Cycle:     16 Defect Energy:   3.337153  Gnorm:     0.013609  CPU:   95.880
  Cycle:     17 Defect Energy:   3.157996  Gnorm:     0.013979  CPU:   99.861
  Cycle:     18 Defect Energy:   2.939897  Gnorm:     0.018689  CPU:  104.623
  Cycle:     19 Defect Energy:   2.676826  Gnorm:     0.018701  CPU:  108.610
  Cycle:     20 Defect Energy:   2.389025  Gnorm:     0.018022  CPU:  112.592
  ** Hessian calculated **
  Cycle:     21 Defect Energy:   1.631828  Gnorm:     0.013766  CPU:  118.599
  Cycle:     22 Defect Energy:   1.193686  Gnorm:     0.007897  CPU:  122.598
  Cycle:     23 Defect Energy:   1.004532  Gnorm:     0.001589  CPU:  125.829
  Cycle:     24 Defect Energy:   0.989009  Gnorm:     0.000939  CPU:  126.773
  Cycle:     25 Defect Energy:   0.985807  Gnorm:     0.000647  CPU:  127.715
  Cycle:     26 Defect Energy:   0.984778  Gnorm:     0.000481  CPU:  128.659
  ** Hessian calculated **
  Cycle:     27 Defect Energy:   0.983639  Gnorm:     0.000335  CPU:  131.609
  Cycle:     28 Defect Energy:   0.983115  Gnorm:     0.000232  CPU:  132.546
  Cycle:     29 Defect Energy:   0.982881  Gnorm:     0.000162  CPU:  133.499
  Cycle:     30 Defect Energy:   0.982770  Gnorm:     0.000113  CPU:  134.439
  Cycle:     31 Defect Energy:   0.982715  Gnorm:     0.000079  CPU:  135.381
  Cycle:     32 Defect Energy:   0.982688  Gnorm:     0.000055  CPU:  136.323
  Cycle:     33 Defect Energy:   0.982674  Gnorm:     0.000039  CPU:  137.274


  **** Optimisation achieved ****


  Final defect energy  =        0.98266618
  Final defect Gnorm   =        0.00002695

  Components of defect energy : 

--------------------------------------------------------------------------------
  Region 1 - region 1                   =     -0.30350616 eV
  Region 1 - region 2a (unrelaxed)      =      1.61062017 eV
  Region 1 - 2a (relaxed - correction)  =     -0.07256747 eV
  Region 1 (Total)                      =      1.23454654 eV
  Region 2a                             =      0.03623877 eV
  Region 2b                             =     -0.28811914 eV
--------------------------------------------------------------------------------
  Total defect energy                   =      0.98266618 eV
--------------------------------------------------------------------------------

  Largest displacement in region 2 =   0.0073 Angstroms

  Final coordinates of region 1 :

--------------------------------------------------------------------------------
   No.  Atomic        x           y           z          Radius      Charge
        Label       (Angs)      (Angs)      (Angs)       (Angs)       (e) 
--------------------------------------------------------------------------------
     1  O     c     2.253894    2.253894   -2.341527    0.000000    0.183000
     2  O     c     2.253894    2.253894    2.341527    0.000000    0.183000
     3  Cl    c     4.580291    4.580291    0.000000    0.000000    1.485000
     4  Cl    c     4.580291   -0.072503    0.000000    0.000000    1.485000
     5  Cl    c    -0.072503    4.580291    0.000000    0.000000    1.485000
     6  Cl    c    -0.072503   -0.072503    0.000000    0.000000    1.485000
     7  Na    c     4.426032    2.253894   -1.821460    0.000000    1.000000
     8  Na    c     4.426032    2.253894    1.821460    0.000000    1.000000
     9  Na    c     0.081755    2.253894   -1.821460    0.000000    1.000000
    10  Na    c     0.081755    2.253894    1.821460    0.000000    1.000000
    11  Na    c     2.253894    4.426032   -1.821460    0.000000    1.000000
    12  Na    c     2.253894    4.426032    1.821460    0.000000    1.000000
    13  Na    c     2.253894    0.081755   -1.821460    0.000000    1.000000
    14  Na    c     2.253894    0.081755    1.821460    0.000000    1.000000
    15  Na    c     2.253894    2.253894    4.534660    0.000000    1.000000
    16  Na    c     2.253894    2.253894   -4.534660    0.000000    1.000000
    17  Na    c     2.253894   -2.534453    0.000000    0.000000    1.000000
    18  Na    c    -2.534453    2.253894    0.000000    0.000000    1.000000
    19  Na    c     2.253894    7.042240    0.000000    0.000000    1.000000
    20  Na    c     7.042240    2.253894    0.000000    0.000000    1.000000
    21  O     c     2.253894   -2.215547   -2.259578    0.000000    0.183000
    22  O     c     2.253894   -2.215547    2.259578    0.000000    0.183000
    23  O     c    -2.215547    2.253894   -2.259578    0.000000    0.183000
    24  O     c    -2.215547    2.253894    2.259578    0.000000    0.183000
    25  O     c     2.253894    6.723335   -2.259578    0.000000    0.183000
    26  O     c     2.253894    6.723335    2.259578    0.000000    0.183000
    27  O     c     6.723335    2.253894   -2.259578    0.000000    0.183000
    28  O     c     6.723335    2.253894    2.259578    0.000000    0.183000
    29  Na    c     4.514344   -2.242214   -2.387184    0.000000    1.000000
    30  Na    c     4.514344   -2.242214    2.387184    0.000000    1.000000
    31  Na    c    -0.006557   -2.242214   -2.387184    0.000000    1.000000
    32  Na    c    -0.006557   -2.242214    2.387184    0.000000    1.000000
    33  Na    c    -2.242214    4.514344   -2.387184    0.000000    1.000000
    34  Na    c    -2.242214    4.514344    2.387184    0.000000    1.000000
    35  Na    c    -2.242214   -0.006557   -2.387184    0.000000    1.000000
    36  Na    c    -2.242214   -0.006557    2.387184    0.000000    1.000000
    37  Na    c     4.514344    6.750001   -2.387184    0.000000    1.000000
    38  Na    c     4.514344    6.750001    2.387184    0.000000    1.000000
    39  Na    c    -0.006557    6.750001   -2.387184    0.000000    1.000000
    40  Na    c    -0.006557    6.750001    2.387184    0.000000    1.000000
    41  Na    c     6.750001    4.514344   -2.387184    0.000000    1.000000
    42  Na    c     6.750001    4.514344    2.387184    0.000000    1.000000
    43  Na    c     6.750001   -0.006557   -2.387184    0.000000    1.000000
    44  Na    c     6.750001   -0.006557    2.387184    0.000000    1.000000
    45  Cl    c     4.613991    4.613991    4.591640    0.000000    1.485000
    46  Cl    c     4.613991    4.613991   -4.591640    0.000000    1.485000
    47  Cl    c     4.613991   -0.106204    4.591640    0.000000    1.485000
    48  Cl    c     4.613991   -0.106204   -4.591640    0.000000    1.485000
    49  Cl    c    -0.106204    4.613991    4.591640    0.000000    1.485000
    50  Cl    c    -0.106204    4.613991   -4.591640    0.000000    1.485000
    51  Cl    c    -0.106204   -0.106204    4.591640    0.000000    1.485000
    52  Cl    c    -0.106204   -0.106204   -4.591640    0.000000    1.485000
    53  Na    c     2.253894   -1.754826    4.471377    0.000000    1.000000
    54  Na    c     2.253894   -1.754826   -4.471377    0.000000    1.000000
    55  Na    c    -1.754826    2.253894    4.471377    0.000000    1.000000
    56  Na    c    -1.754826    2.253894   -4.471377    0.000000    1.000000
    57  Na    c     2.253894    6.262613    4.471377    0.000000    1.000000
    58  Na    c     2.253894    6.262613   -4.471377    0.000000    1.000000
    59  Na    c     6.262613    2.253894    4.471377    0.000000    1.000000
    60  Na    c     6.262613    2.253894   -4.471377    0.000000    1.000000
    61  Na    c    -2.023629   -2.023629    0.000000    0.000000    1.000000
    62  Na    c     6.531416   -2.023629    0.000000    0.000000    1.000000
    63  Na    c    -2.023629    6.531416    0.000000    0.000000    1.000000
    64  Na    c     6.531416    6.531416    0.000000    0.000000    1.000000
    65  O     c    -2.274346   -2.274346   -2.232910    0.000000    0.183000
    66  O     c    -2.274346   -2.274346    2.232910    0.000000    0.183000
    67  O     c     6.782134   -2.274346   -2.232910    0.000000    0.183000
    68  O     c     6.782134   -2.274346    2.232910    0.000000    0.183000
    69  O     c    -2.274346    6.782134   -2.232910    0.000000    0.183000
    70  O     c    -2.274346    6.782134    2.232910    0.000000    0.183000
    71  O     c     6.782134    6.782134   -2.232910    0.000000    0.183000
    72  O     c     6.782134    6.782134    2.232910    0.000000    0.183000
    73  O     c     2.253894    2.253894    6.819611    0.000000    0.183000
    74  O     c     2.253894    2.253894   -6.819611    0.000000    0.183000
    75  Cl    c     4.537041    9.030887    0.000000    0.000000    1.485000
    76  Cl    c     4.537041   -4.523099    0.000000    0.000000    1.485000
    77  Cl    c     9.030887    4.537041    0.000000    0.000000    1.485000
    78  Cl    c     9.030887   -0.029253    0.000000    0.000000    1.485000
    79  Cl    c    -0.029253    9.030887    0.000000    0.000000    1.485000
    80  Cl    c    -0.029253   -4.523099    0.000000    0.000000    1.485000
    81  Cl    c    -4.523099    4.537041    0.000000    0.000000    1.485000
    82  Cl    c    -4.523099   -0.029253    0.000000    0.000000    1.485000
    83  Na    c     4.519503    2.253894    6.978972    0.000000    1.000000
    84  Na    c     4.519503    2.253894   -6.978972    0.000000    1.000000
    85  Na    c    -0.011716    2.253894    6.978972    0.000000    1.000000
    86  Na    c    -0.011716    2.253894   -6.978972    0.000000    1.000000
    87  Na    c     2.253894    4.519503    6.978972    0.000000    1.000000
    88  Na    c     2.253894    4.519503   -6.978972    0.000000    1.000000
    89  Na    c     2.253894   -0.011716    6.978972    0.000000    1.000000
    90  Na    c     2.253894   -0.011716   -6.978972    0.000000    1.000000
    91  Na    c     8.984987    2.253894   -2.632279    0.000000    1.000000
    92  Na    c     8.984987    2.253894    2.632279    0.000000    1.000000
    93  Na    c    -4.477200    2.253894   -2.632279    0.000000    1.000000
    94  Na    c    -4.477200    2.253894    2.632279    0.000000    1.000000
    95  Na    c     2.253894    8.984987   -2.632279    0.000000    1.000000
    96  Na    c     2.253894    8.984987    2.632279    0.000000    1.000000
    97  Na    c     2.253894   -4.477200   -2.632279    0.000000    1.000000
    98  Na    c     2.253894   -4.477200    2.632279    0.000000    1.000000
    99  Na    c     6.963588   -2.455801    4.507125    0.000000    1.000000
   100  Na    c     6.963588   -2.455801   -4.507125    0.000000    1.000000
   101  Na    c    -2.455801    6.963588    4.507125    0.000000    1.000000
   102  Na    c    -2.455801    6.963588   -4.507125    0.000000    1.000000
   103  Na    c    -2.455801   -2.455801    4.507125    0.000000    1.000000
   104  Na    c    -2.455801   -2.455801   -4.507125    0.000000    1.000000
   105  Na    c     6.963588    6.963588    4.507125    0.000000    1.000000
   106  Na    c     6.963588    6.963588   -4.507125    0.000000    1.000000
   107  O     c     2.253894   -2.256209    6.704238    0.000000    0.183000
   108  O     c     2.253894   -2.256209   -6.704238    0.000000    0.183000
   109  O     c    -2.256209    2.253894    6.704238    0.000000    0.183000
   110  O     c    -2.256209    2.253894   -6.704238    0.000000    0.183000
   111  O     c     2.253894    6.763997    6.704238    0.000000    0.183000
   112  O     c     2.253894    6.763997   -6.704238    0.000000    0.183000
   113  O     c     6.763997    2.253894    6.704238    0.000000    0.183000
   114  O     c     6.763997    2.253894   -6.704238    0.000000    0.183000
   115  Cl    c     4.503782    8.990403    4.496983    0.000000    1.485000
   116  Cl    c     4.503782    8.990403   -4.496983    0.000000    1.485000
   117  Cl    c     4.503782   -4.482616    4.496983    0.000000    1.485000
   118  Cl    c     4.503782   -4.482616   -4.496983    0.000000    1.485000
   119  Cl    c     8.990403    4.503782    4.496983    0.000000    1.485000
   120  Cl    c     8.990403    4.503782   -4.496983    0.000000    1.485000
   121  Cl    c     8.990403    0.004005    4.496983    0.000000    1.485000
   122  Cl    c     8.990403    0.004005   -4.496983    0.000000    1.485000
   123  Cl    c     0.004005    8.990403    4.496983    0.000000    1.485000
   124  Cl    c     0.004005    8.990403   -4.496983    0.000000    1.485000
   125  Cl    c     0.004005   -4.482616    4.496983    0.000000    1.485000
   126  Cl    c     0.004005   -4.482616   -4.496983    0.000000    1.485000
   127  Cl    c    -4.482616    4.503782    4.496983    0.000000    1.485000
   128  Cl    c    -4.482616    4.503782   -4.496983    0.000000    1.485000
   129  Cl    c    -4.482616    0.004005    4.496983    0.000000    1.485000
   130  Cl    c    -4.482616    0.004005   -4.496983    0.000000    1.485000
   131  Na    c     4.520707   -2.303670    6.538767    0.000000    1.000000
   132  Na    c     4.520707   -2.303670   -6.538767    0.000000    1.000000
   133  Na    c    -0.012920   -2.303670    6.538767    0.000000    1.000000
   134  Na    c    -0.012920   -2.303670   -6.538767    0.000000    1.000000
   135  Na    c    -2.303670    4.520707    6.538767    0.000000    1.000000
   136  Na    c    -2.303670    4.520707   -6.538767    0.000000    1.000000
   137  Na    c    -2.303670   -0.012920    6.538767    0.000000    1.000000
   138  Na    c    -2.303670   -0.012920   -6.538767    0.000000    1.000000
   139  Na    c     4.520707    6.811457    6.538767    0.000000    1.000000
   140  Na    c     4.520707    6.811457   -6.538767    0.000000    1.000000
   141  Na    c    -0.012920    6.811457    6.538767    0.000000    1.000000
   142  Na    c    -0.012920    6.811457   -6.538767    0.000000    1.000000
   143  Na    c     6.811457    4.520707    6.538767    0.000000    1.000000
   144  Na    c     6.811457    4.520707   -6.538767    0.000000    1.000000
   145  Na    c     6.811457   -0.012920    6.538767    0.000000    1.000000
   146  Na    c     6.811457   -0.012920   -6.538767    0.000000    1.000000
   147  Na    c     9.025513   -2.269477   -1.939439    0.000000    1.000000
   148  Na    c     9.025513   -2.269477    1.939439    0.000000    1.000000
   149  Na    c    -4.517726   -2.269477   -1.939439    0.000000    1.000000
   150  Na    c    -4.517726   -2.269477    1.939439    0.000000    1.000000
   151  Na    c    -2.269477    9.025513   -1.939439    0.000000    1.000000
   152  Na    c    -2.269477    9.025513    1.939439    0.000000    1.000000
   153  Na    c    -2.269477   -4.517726   -1.939439    0.000000    1.000000
   154  Na    c    -2.269477   -4.517726    1.939439    0.000000    1.000000
   155  Na    c     9.025513    6.777265   -1.939439    0.000000    1.000000
   156  Na    c     9.025513    6.777265    1.939439    0.000000    1.000000
   157  Na    c    -4.517726    6.777265   -1.939439    0.000000    1.000000
   158  Na    c    -4.517726    6.777265    1.939439    0.000000    1.000000
   159  Na    c     6.777265    9.025513   -1.939439    0.000000    1.000000
   160  Na    c     6.777265    9.025513    1.939439    0.000000    1.000000
   161  Na    c     6.777265   -4.517726   -1.939439    0.000000    1.000000
   162  Na    c     6.777265   -4.517726    1.939439    0.000000    1.000000
   163  Na    c     2.253894    2.253894    9.044369    0.000000    1.000000
   164  Na    c     2.253894    2.253894   -9.044369    0.000000    1.000000
   165  Na    c     2.253894   10.811992    0.000000    0.000000    1.000000
   166  Na    c     2.253894   -6.304205    0.000000    0.000000    1.000000
   167  Na    c    10.811992    2.253894    0.000000    0.000000    1.000000
   168  Na    c    -6.304205    2.253894    0.000000    0.000000    1.000000
   169  O     c     2.253894   11.245856   -2.234581    0.000000    0.183000
   170  O     c     2.253894   11.245856    2.234581    0.000000    0.183000
   171  O     c     2.253894   -6.738068   -2.234581    0.000000    0.183000
   172  O     c     2.253894   -6.738068    2.234581    0.000000    0.183000
   173  O     c    11.245856    2.253894   -2.234581    0.000000    0.183000
   174  O     c    11.245856    2.253894    2.234581    0.000000    0.183000
   175  O     c    -6.738068    2.253894   -2.234581    0.000000    0.183000
   176  O     c    -6.738068    2.253894    2.234581    0.000000    0.183000
   177  O     c     6.783611    6.783611    6.792910    0.000000    0.183000
   178  O     c     6.783611    6.783611   -6.792910    0.000000    0.183000
   179  O     c     6.783611   -2.275824    6.792910    0.000000    0.183000
   180  O     c     6.783611   -2.275824   -6.792910    0.000000    0.183000
   181  O     c    -2.275824    6.783611    6.792910    0.000000    0.183000
   182  O     c    -2.275824    6.783611   -6.792910    0.000000    0.183000
   183  O     c    -2.275824   -2.275824    6.792910    0.000000    0.183000
   184  O     c    -2.275824   -2.275824   -6.792910    0.000000    0.183000
   185  Cl    c     4.439493    4.439493    9.056710    0.000000    1.485000
   186  Cl    c     4.439493    4.439493   -9.056710    0.000000    1.485000
   187  Cl    c     4.439493    0.068294    9.056710    0.000000    1.485000
   188  Cl    c     4.439493    0.068294   -9.056710    0.000000    1.485000
   189  Cl    c     0.068294    4.439493    9.056710    0.000000    1.485000
   190  Cl    c     0.068294    4.439493   -9.056710    0.000000    1.485000
   191  Cl    c     0.068294    0.068294    9.056710    0.000000    1.485000
   192  Cl    c     0.068294    0.068294   -9.056710    0.000000    1.485000
   193  Na    c     4.514693   11.268828   -2.127578    0.000000    1.000000
   194  Na    c     4.514693   11.268828    2.127578    0.000000    1.000000
   195  Na    c     4.514693   -6.761041   -2.127578    0.000000    1.000000
   196  Na    c     4.514693   -6.761041    2.127578    0.000000    1.000000
   197  Na    c    -0.006905   11.268828   -2.127578    0.000000    1.000000
   198  Na    c    -0.006905   11.268828    2.127578    0.000000    1.000000
   199  Na    c    -0.006905   -6.761041   -2.127578    0.000000    1.000000
   200  Na    c    -0.006905   -6.761041    2.127578    0.000000    1.000000
   201  Na    c    11.268828    4.514693   -2.127578    0.000000    1.000000
   202  Na    c    11.268828    4.514693    2.127578    0.000000    1.000000
   203  Na    c    11.268828   -0.006905   -2.127578    0.000000    1.000000
   204  Na    c    11.268828   -0.006905    2.127578    0.000000    1.000000
   205  Na    c    -6.761041    4.514693   -2.127578    0.000000    1.000000
   206  Na    c    -6.761041    4.514693    2.127578    0.000000    1.000000
   207  Na    c    -6.761041   -0.006905   -2.127578    0.000000    1.000000
   208  Na    c    -6.761041   -0.006905    2.127578    0.000000    1.000000
   209  Cl    c     8.991034    8.991034    0.000000    0.000000    1.485000
   210  Cl    c     8.991034   -4.483247    0.000000    0.000000    1.485000
   211  Cl    c    -4.483247    8.991034    0.000000    0.000000    1.485000
   212  Cl    c    -4.483247   -4.483247    0.000000    0.000000    1.485000
   213  Na    c     9.006905    2.253894    6.348675    0.000000    1.000000
   214  Na    c     9.006905    2.253894   -6.348675    0.000000    1.000000
   215  Na    c    -4.499118    2.253894    6.348675    0.000000    1.000000
   216  Na    c    -4.499118    2.253894   -6.348675    0.000000    1.000000
   217  Na    c     2.253894    9.006905    6.348675    0.000000    1.000000
   218  Na    c     2.253894    9.006905   -6.348675    0.000000    1.000000
   219  Na    c     2.253894   -4.499118    6.348675    0.000000    1.000000
   220  Na    c     2.253894   -4.499118   -6.348675    0.000000    1.000000
   221  Na    c     2.253894   11.609353    4.495684    0.000000    1.000000
   222  Na    c     2.253894   11.609353   -4.495684    0.000000    1.000000
   223  Na    c     2.253894   -7.101566    4.495684    0.000000    1.000000
   224  Na    c     2.253894   -7.101566   -4.495684    0.000000    1.000000
   225  Na    c    11.609353    2.253894    4.495684    0.000000    1.000000
   226  Na    c    11.609353    2.253894   -4.495684    0.000000    1.000000
   227  Na    c    -7.101566    2.253894    4.495684    0.000000    1.000000
   228  Na    c    -7.101566    2.253894   -4.495684    0.000000    1.000000
   229  Na    c     2.253894   -2.496982    8.993189    0.000000    1.000000
   230  Na    c     2.253894   -2.496982   -8.993189    0.000000    1.000000
   231  Na    c    -2.496982    2.253894    8.993189    0.000000    1.000000
   232  Na    c    -2.496982    2.253894   -8.993189    0.000000    1.000000
   233  Na    c     2.253894    7.004770    8.993189    0.000000    1.000000
   234  Na    c     2.253894    7.004770   -8.993189    0.000000    1.000000
   235  Na    c     7.004770    2.253894    8.993189    0.000000    1.000000
   236  Na    c     7.004770    2.253894   -8.993189    0.000000    1.000000
   237  Na    c    11.584224   -2.428728    0.000000    0.000000    1.000000
   238  Na    c    -2.428728   11.584224    0.000000    0.000000    1.000000
   239  Na    c    -2.428728   -7.076436    0.000000    0.000000    1.000000
   240  Na    c    -7.076436   -2.428728    0.000000    0.000000    1.000000
   241  Na    c     6.936515   11.584224    0.000000    0.000000    1.000000
   242  Na    c     6.936515   -7.076436    0.000000    0.000000    1.000000
   243  Na    c    11.584224    6.936515    0.000000    0.000000    1.000000
   244  Na    c    -7.076436    6.936515    0.000000    0.000000    1.000000
   245  O     c    11.274142   -2.269583   -2.270880    0.000000    0.183000
   246  O     c    11.274142   -2.269583    2.270880    0.000000    0.183000
   247  O     c    -2.269583   11.274142   -2.270880    0.000000    0.183000
   248  O     c    -2.269583   11.274142    2.270880    0.000000    0.183000
   249  O     c    -2.269583   -6.766355   -2.270880    0.000000    0.183000
   250  O     c    -2.269583   -6.766355    2.270880    0.000000    0.183000
   251  O     c    -6.766355   -2.269583   -2.270880    0.000000    0.183000
   252  O     c    -6.766355   -2.269583    2.270880    0.000000    0.183000
   253  O     c     6.777370   11.274142   -2.270880    0.000000    0.183000
   254  O     c     6.777370   11.274142    2.270880    0.000000    0.183000
   255  O     c     6.777370   -6.766355   -2.270880    0.000000    0.183000
   256  O     c     6.777370   -6.766355    2.270880    0.000000    0.183000
   257  O     c    11.274142    6.777370   -2.270880    0.000000    0.183000
   258  O     c    11.274142    6.777370    2.270880    0.000000    0.183000
   259  O     c    -6.766355    6.777370   -2.270880    0.000000    0.183000
   260  O     c    -6.766355    6.777370    2.270880    0.000000    0.183000
   261  Cl    c     9.053300    9.053300    4.506570    0.000000    1.485000
   262  Cl    c     9.053300    9.053300   -4.506570    0.000000    1.485000
   263  Cl    c     9.053300   -4.545513    4.506570    0.000000    1.485000
   264  Cl    c     9.053300   -4.545513   -4.506570    0.000000    1.485000
   265  Cl    c    -4.545513    9.053300    4.506570    0.000000    1.485000
   266  Cl    c    -4.545513    9.053300   -4.506570    0.000000    1.485000
   267  Cl    c    -4.545513   -4.545513    4.506570    0.000000    1.485000
   268  Cl    c    -4.545513   -4.545513   -4.506570    0.000000    1.485000
   269  Na    c     9.027587   -2.283544    7.102171    0.000000    1.000000
   270  Na    c     9.027587   -2.283544   -7.102171    0.000000    1.000000
   271  Na    c    -4.519800   -2.283544    7.102171    0.000000    1.000000
   272  Na    c    -4.519800   -2.283544   -7.102171    0.000000    1.000000
   273  Na    c    -2.283544    9.027587    7.102171    0.000000    1.000000
   274  Na    c    -2.283544    9.027587   -7.102171    0.000000    1.000000
   275  Na    c    -2.283544   -4.519800    7.102171    0.000000    1.000000
   276  Na    c    -2.283544   -4.519800   -7.102171    0.000000    1.000000
   277  Na    c     9.027587    6.791331    7.102171    0.000000    1.000000
   278  Na    c     9.027587    6.791331   -7.102171    0.000000    1.000000
   279  Na    c    -4.519800    6.791331    7.102171    0.000000    1.000000
   280  Na    c    -4.519800    6.791331   -7.102171    0.000000    1.000000
   281  Na    c     6.791331    9.027587    7.102171    0.000000    1.000000
   282  Na    c     6.791331    9.027587   -7.102171    0.000000    1.000000
   283  Na    c     6.791331   -4.519800    7.102171    0.000000    1.000000
   284  Na    c     6.791331   -4.519800   -7.102171    0.000000    1.000000
   285  Na    c    10.878537   -2.079679    4.504221    0.000000    1.000000
   286  Na    c    10.878537   -2.079679   -4.504221    0.000000    1.000000
   287  Na    c    -2.079679   10.878537    4.504221    0.000000    1.000000
   288  Na    c    -2.079679   10.878537   -4.504221    0.000000    1.000000
   289  Na    c    -2.079679   -6.370750    4.504221    0.000000    1.000000
   290  Na    c    -2.079679   -6.370750   -4.504221    0.000000    1.000000
   291  Na    c    -6.370750   -2.079679    4.504221    0.000000    1.000000
   292  Na    c    -6.370750   -2.079679   -4.504221    0.000000    1.000000
   293  Na    c     6.587466   10.878537    4.504221    0.000000    1.000000
   294  Na    c     6.587466   10.878537   -4.504221    0.000000    1.000000
   295  Na    c     6.587466   -6.370750    4.504221    0.000000    1.000000
   296  Na    c     6.587466   -6.370750   -4.504221    0.000000    1.000000
   297  Na    c    10.878537    6.587466    4.504221    0.000000    1.000000
   298  Na    c    10.878537    6.587466   -4.504221    0.000000    1.000000
   299  Na    c    -6.370750    6.587466    4.504221    0.000000    1.000000
   300  Na    c    -6.370750    6.587466   -4.504221    0.000000    1.000000
   301  Na    c     6.463329    6.463329    8.997735    0.000000    1.000000
   302  Na    c     6.463329    6.463329   -8.997735    0.000000    1.000000
   303  Na    c     6.463329   -1.955542    8.997735    0.000000    1.000000
   304  Na    c     6.463329   -1.955542   -8.997735    0.000000    1.000000
   305  Na    c    -1.955542    6.463329    8.997735    0.000000    1.000000
   306  Na    c    -1.955542    6.463329   -8.997735    0.000000    1.000000
   307  Na    c    -1.955542   -1.955542    8.997735    0.000000    1.000000
   308  Na    c    -1.955542   -1.955542   -8.997735    0.000000    1.000000
   309  O     c     2.253894    2.253894   11.266170    0.000000    0.183000
   310  O     c     2.253894    2.253894  -11.266170    0.000000    0.183000
   311  O     c     2.253894   11.256521    6.764280    0.000000    0.183000
   312  O     c     2.253894   11.256521   -6.764280    0.000000    0.183000
   313  O     c     2.253894   -6.748733    6.764280    0.000000    0.183000
   314  O     c     2.253894   -6.748733   -6.764280    0.000000    0.183000
   315  O     c    11.256521    2.253894    6.764280    0.000000    0.183000
   316  O     c    11.256521    2.253894   -6.764280    0.000000    0.183000
[...]
    157 y         11.269468     11.265383    -0.004085    Cartesian   -0.04
    157 z         15.777255     15.713882    -0.063373    Cartesian   -0.40
    158 x        -13.523362    -13.513949     0.009413    Cartesian   -0.07
    158 y         11.269468     11.255050    -0.014418    Cartesian   -0.13
    158 z          6.761681      6.629733    -0.131948    Cartesian   -1.95
    159 x          4.507787      4.508840     0.001053    Cartesian    0.02
    159 y         20.285042     20.254087    -0.030956    Cartesian   -0.15
    159 z          6.761681      6.766514     0.004833    Cartesian    0.07
    160 x          9.015574      9.016089     0.000515    Cartesian    0.01
    160 y         20.285042     20.262472    -0.022570    Cartesian   -0.11
    160 z         -2.253894     -2.294158    -0.040264    Cartesian    1.79
    161 x          6.761681      6.786463     0.024782    Cartesian    0.37
    161 y         15.777255     15.927047     0.149792    Cartesian    0.95
    161 z         13.523362     13.521032    -0.002330    Cartesian   -0.02
    162 x         15.777255     15.846740     0.069485    Cartesian    0.44
    162 y         15.777255     15.846740     0.069485    Cartesian    0.44
    162 z          4.507787      4.520377     0.012590    Cartesian    0.28
    163 x          6.761681      6.760799    -0.000882    Cartesian   -0.01
    163 y         20.285042     20.263992    -0.021051    Cartesian   -0.10
    163 z          6.761681      6.773039     0.011358    Cartesian    0.17
    164 x         11.269468     11.279283     0.009815    Cartesian    0.09
    164 y         15.777255     15.788170     0.010915    Cartesian    0.07
    164 z         11.269468     11.248104    -0.021364    Cartesian   -0.19
    165 x         13.523362     13.554224     0.030863    Cartesian    0.23
    165 y        -13.523362    -13.555255    -0.031893    Cartesian    0.24
    165 z          4.507787      4.512294     0.004507    Cartesian    0.10
    166 x         13.523362     13.506197    -0.017165    Cartesian   -0.13
    166 y          6.761681      6.771364     0.009683    Cartesian    0.14
    166 z         15.777255     15.682235    -0.095020    Cartesian   -0.60
    167 x         18.031149     18.009374    -0.021774    Cartesian   -0.12
    167 y          6.761681      6.767596     0.005915    Cartesian    0.09
    167 z         11.269468     11.142171    -0.127297    Cartesian   -1.13
    168 x          2.253894      2.253894     0.000000    Cartesian    0.00
    168 y          2.253894      2.253894     0.000000    Cartesian    0.00
    168 z         -2.253894     -2.341617    -0.087724    Cartesian    3.89
    169 x          4.507787      4.584621     0.076834    Cartesian    1.70
    169 y          4.507787      4.584621     0.076834    Cartesian    1.70
    169 z          0.000000      0.000000     0.000000    Cartesian    0.00
    170 x          2.253894      2.253894     0.000000    Cartesian    0.00
    170 y         -2.253894     -2.215577     0.038316    Cartesian   -1.70
    170 z         -2.253894     -2.259646    -0.005752    Cartesian    0.26
    171 x          4.507787      4.625366     0.117579    Cartesian    2.61
    171 y          4.507787      4.625366     0.117579    Cartesian    2.61
    171 z          4.507787      4.601215     0.093428    Cartesian    2.07
    172 x         -2.253894     -2.274337    -0.020443    Cartesian    0.91
    172 y         -2.253894     -2.274337    -0.020443    Cartesian    0.91
    172 z         -2.253894     -2.232829     0.021065    Cartesian   -0.93
    173 x          2.253894      2.253894     0.000000    Cartesian    0.00
    173 y          2.253894      2.253894     0.000000    Cartesian    0.00
    173 z          6.761681      6.819794     0.058113    Cartesian    0.86
    174 x          4.507787      4.538187     0.030400    Cartesian    0.67
    174 y          9.015574      9.039369     0.023795    Cartesian    0.26
    174 z          0.000000      0.000000     0.000000    Cartesian    0.00
    175 x          2.253894      2.253894     0.000000    Cartesian    0.00
    175 y         -2.253894     -2.256169    -0.002275    Cartesian    0.10
    175 z          6.761681      6.704164    -0.057517    Cartesian   -0.85
    176 x          4.507787      4.501418    -0.006369    Cartesian   -0.14
    176 y          9.015574      8.993143    -0.022432    Cartesian   -0.25
    176 z          4.507787      4.499781    -0.008006    Cartesian   -0.18
    177 x          2.253894      2.253894     0.000000    Cartesian    0.00
    177 y         11.269468     11.245863    -0.023605    Cartesian   -0.21
    177 z         -2.253894     -2.234532     0.019361    Cartesian   -0.86
    178 x          6.761681      6.783600     0.021919    Cartesian    0.32
    178 y          6.761681      6.783600     0.021919    Cartesian    0.32
    178 z          6.761681      6.792987     0.031306    Cartesian    0.46
    179 x          4.507787      4.434687    -0.073100    Cartesian   -1.62
    179 y          4.507787      4.434687    -0.073100    Cartesian   -1.62
    179 z          9.015574      9.059239     0.043664    Cartesian    0.48
    180 x          9.015574      8.988311    -0.027263    Cartesian   -0.30
    180 y          9.015574      8.988311    -0.027263    Cartesian   -0.30
    180 z          0.000000      0.000000     0.000000    Cartesian    0.00
    181 x         11.269468     11.274130     0.004662    Cartesian    0.04
    181 y         -2.253894     -2.269578    -0.015684    Cartesian    0.70
    181 z         -2.253894     -2.270925    -0.017031    Cartesian    0.76
    182 x          9.015574      9.059310     0.043736    Cartesian    0.49
    182 y          9.015574      9.059310     0.043736    Cartesian    0.49
    182 z          4.507787      4.506702    -0.001085    Cartesian   -0.02
    183 x          2.253894      2.253894     0.000000    Cartesian    0.00
    183 y          2.253894      2.253894     0.000000    Cartesian    0.00
    183 z         11.269468     11.266011    -0.003457    Cartesian   -0.03
    184 x          2.253894      2.253894     0.000000    Cartesian    0.00
    184 y         11.269468     11.256520    -0.012948    Cartesian   -0.11
    184 z          6.761681      6.764333     0.002653    Cartesian    0.04
    185 x          4.507787      4.508457     0.000670    Cartesian    0.01
    185 y         13.523362     13.477906    -0.045455    Cartesian   -0.34
    185 z          0.000000      0.000000     0.000000    Cartesian    0.00
    186 x          4.507787      4.531248     0.023460    Cartesian    0.52
    186 y          9.015574      9.015641     0.000067    Cartesian    0.00
    186 z          9.015574      9.026458     0.010884    Cartesian    0.12
    187 x          2.253894      2.253894     0.000000    Cartesian    0.00
    187 y          6.761681      6.782431     0.020750    Cartesian    0.31
    187 z         11.269468     11.292893     0.023425    Cartesian    0.21
    188 x          6.761681      6.774242     0.012561    Cartesian    0.19
    188 y         11.269468     11.272834     0.003366    Cartesian    0.03
    188 z          6.761681      6.738609    -0.023072    Cartesian   -0.34
    189 x          4.507787      4.510235     0.002448    Cartesian    0.05
    189 y         13.523362     13.542147     0.018785    Cartesian    0.14
    189 z          4.507787      4.506120    -0.001667    Cartesian   -0.04
    190 x         -2.253894     -2.258168    -0.004274    Cartesian    0.19
    190 y         -2.253894     -2.258168    -0.004274    Cartesian    0.19
    190 z         11.269468     11.219476    -0.049992    Cartesian   -0.44
    191 x         11.269468     11.278660     0.009192    Cartesian    0.08
    191 y         11.269468     11.278660     0.009192    Cartesian    0.08
    191 z         -2.253894     -2.240239     0.013654    Cartesian   -0.61
    192 x          9.015574      9.046771     0.031196    Cartesian    0.35
    192 y         13.523362     13.565214     0.041852    Cartesian    0.31
    192 z          0.000000      0.000000     0.000000    Cartesian    0.00
    193 x          9.015574      9.020666     0.005092    Cartesian    0.06
    193 y          9.015574      9.020666     0.005092    Cartesian    0.06
    193 z          9.015574      9.026986     0.011412    Cartesian    0.13
    194 x          2.253894      2.253894     0.000000    Cartesian    0.00
    194 y         15.777255     15.752300    -0.024955    Cartesian   -0.16
    194 z         -2.253894     -2.251094     0.002800    Cartesian   -0.12
    195 x          9.015574      9.021541     0.005967    Cartesian    0.07
    195 y         13.523362     13.507289    -0.016072    Cartesian   -0.12
    195 z          4.507787      4.512267     0.004480    Cartesian    0.10
    196 x          4.507787      4.524242     0.016455    Cartesian    0.37
    196 y          4.507787      4.524242     0.016455    Cartesian    0.37
    196 z         13.523362     13.552426     0.029064    Cartesian    0.21
    197 x          2.253894      2.253894     0.000000    Cartesian    0.00
    197 y         11.269468     11.257298    -0.012170    Cartesian   -0.11
    197 z         11.269468     11.226647    -0.042822    Cartesian   -0.38
    198 x         11.269468     11.281164     0.011696    Cartesian    0.10
    198 y         11.269468     11.281164     0.011696    Cartesian    0.10
    198 z          6.761681      6.747297    -0.014384    Cartesian   -0.21
    199 x          6.761681      6.767950     0.006269    Cartesian    0.09
    199 y         15.777255     15.763404    -0.013851    Cartesian   -0.09
    199 z         -2.253894     -2.248526     0.005368    Cartesian   -0.24
    200 x          4.507787      4.519385     0.011598    Cartesian    0.26
    200 y         13.523362     13.498665    -0.024697    Cartesian   -0.18
    200 z          9.015574      9.014114    -0.001461    Cartesian   -0.02
    201 x          6.761681      6.771027     0.009346    Cartesian    0.14
    201 y         11.269468     11.273467     0.003999    Cartesian    0.04
    201 z         11.269468     11.256813    -0.012655    Cartesian   -0.11
    202 x          2.253894      2.253894     0.000000    Cartesian    0.00
    202 y         15.777255     15.754761    -0.022494    Cartesian   -0.14
    202 z          6.761681      6.748765    -0.012916    Cartesian   -0.19
    203 x          4.507787      4.501686    -0.006101    Cartesian   -0.14
    203 y          9.015574      8.981886    -0.033688    Cartesian   -0.37
    203 z         13.523362     13.544566     0.021204    Cartesian    0.16
    204 x          2.253894      2.253894     0.000000    Cartesian    0.00
    204 y          2.253894      2.253894     0.000000    Cartesian    0.00
    204 z         15.777255     15.821124     0.043869    Cartesian    0.28
    205 x          6.761681      6.770923     0.009242    Cartesian    0.14
    205 y         15.777255     15.764059    -0.013197    Cartesian   -0.08
    205 z          6.761681      6.738332    -0.023349    Cartesian   -0.35
    206 x          4.507787      4.535795     0.028008    Cartesian    0.62
    206 y        -13.523362    -13.545884    -0.022522    Cartesian    0.17
    206 z          0.000000      0.000000     0.000000    Cartesian    0.00
    207 x          9.015574      9.067903     0.052328    Cartesian    0.58
    207 y         13.523362     13.583914     0.060553    Cartesian    0.45
    207 z          9.015574      9.014195    -0.001379    Cartesian   -0.02
    208 x         13.523362     13.528872     0.005511    Cartesian    0.04
    208 y         13.523362     13.528872     0.005511    Cartesian    0.04
    208 z          0.000000      0.000000     0.000000    Cartesian    0.00
    209 x          2.253894      2.253894     0.000000    Cartesian    0.00
    209 y          6.761681      6.755979    -0.005702    Cartesian   -0.08
    209 z         15.777255     15.751316    -0.025940    Cartesian   -0.16
    210 x         11.269468     11.275036     0.005568    Cartesian    0.05
    210 y         15.777255     15.772675    -0.004580    Cartesian   -0.03
    210 z         -2.253894     -2.234083     0.019810    Cartesian   -0.88
    211 x          4.507787      4.492635    -0.015152    Cartesian   -0.34
    211 y        -13.523362    -13.519451     0.003911    Cartesian   -0.03
    211 z          4.507787      4.511487     0.003699    Cartesian    0.08
    212 x         13.523362     13.597223     0.073862    Cartesian    0.55
    212 y         13.523362     13.597223     0.073862    Cartesian    0.55
    212 z          4.507787      4.515226     0.007439    Cartesian    0.17
    213 x          9.015574      9.040448     0.024874    Cartesian    0.28
    213 y          9.015574      9.040448     0.024874    Cartesian    0.28
    213 z         13.523362     13.518884    -0.004477    Cartesian   -0.03
    214 x          6.761681      6.769463     0.007782    Cartesian    0.12
    214 y          6.761681      6.769463     0.007782    Cartesian    0.12
    214 z         15.777255     15.771899    -0.005356    Cartesian   -0.03
    215 x         11.269468     11.262412    -0.007056    Cartesian   -0.06
    215 y         11.269468     11.262412    -0.007056    Cartesian   -0.06
    215 z         11.269468     11.257709    -0.011759    Cartesian   -0.10
    216 x          9.015574      9.000169    -0.015405    Cartesian   -0.17
    216 y        -13.523362    -13.516182     0.007180    Cartesian   -0.05
    216 z          0.000000      0.000000     0.000000    Cartesian    0.00
    217 x          2.253894      2.253894     0.000000    Cartesian    0.00
    217 y         15.777255     15.781348     0.004092    Cartesian    0.03
    217 z         11.269468     11.228670    -0.040798    Cartesian   -0.36
    218 x         11.269468     11.261613    -0.007855    Cartesian   -0.07
    218 y         15.777255     15.765398    -0.011857    Cartesian   -0.08
    218 z          6.761681      6.758069    -0.003611    Cartesian   -0.05
    219 x          9.015574      9.081318     0.065743    Cartesian    0.73
    219 y        -13.523362    -13.578961    -0.055599    Cartesian    0.41
    219 z          4.507787      4.502832    -0.004955    Cartesian   -0.11
    220 x          4.507787      4.490437    -0.017350    Cartesian   -0.38
    220 y         13.523362     13.549014     0.025653    Cartesian    0.19
    220 z         13.523362     13.543183     0.019821    Cartesian    0.15
    221 x          2.253894      2.253894     0.000000    Cartesian    0.00
    221 y         11.269468     11.293986     0.024518    Cartesian    0.22
    221 z         15.777255     15.755648    -0.021607    Cartesian   -0.14
    222 x          2.253894      2.253894     0.000000    Cartesian    0.00
    222 y         20.285042     20.267999    -0.017044    Cartesian   -0.08
    222 z         -2.253894     -2.272325    -0.018431    Cartesian    0.82
    223 x          6.761681      6.756191    -0.005489    Cartesian   -0.08
    223 y         15.777255     15.743524    -0.033731    Cartesian   -0.21
    223 z         11.269468     11.270873     0.001405    Cartesian    0.01
    224 x          4.507787      4.555334     0.047547    Cartesian    1.05
    224 y        -13.523362    -13.547577    -0.024216    Cartesian    0.18
    224 z          9.015574      9.026257     0.010682    Cartesian    0.12
    225 x         13.523362     13.530264     0.006902    Cartesian    0.05
    225 y         13.523362     13.530264     0.006902    Cartesian    0.05
    225 z          9.015574      9.025944     0.010369    Cartesian    0.12
    226 x          4.507787      4.498657    -0.009131    Cartesian   -0.20
    226 y          4.507787      4.498657    -0.009131    Cartesian   -0.20
    226 z         18.031149     18.048854     0.017705    Cartesian    0.10
    227 x          6.761681      6.748776    -0.012905    Cartesian   -0.19
    227 y         11.269468     11.237686    -0.031782    Cartesian   -0.28
    227 z         15.777255     15.762456    -0.014799    Cartesian   -0.09
    228 x          6.761681      6.763619     0.001938    Cartesian    0.03
    228 y         20.285042     20.273447    -0.011596    Cartesian   -0.06
    228 z         -2.253894     -2.232625     0.021269    Cartesian   -0.94
    229 x          9.015574      9.026479     0.010904    Cartesian    0.12
    229 y         13.523362     13.522914    -0.000448    Cartesian   -0.00
    229 z         13.523362     13.530753     0.007392    Cartesian    0.05
    230 x          2.253894      2.253894     0.000000    Cartesian    0.00
    230 y         20.285042     20.281630    -0.003412    Cartesian   -0.02
    230 z          6.761681      6.743612    -0.018069    Cartesian   -0.27
    231 x         15.777255     15.776478    -0.000777    Cartesian   -0.00
    231 y         15.777255     15.776478    -0.000777    Cartesian   -0.00
    231 z         -2.253894     -2.281325    -0.027431    Cartesian    1.22
    232 x          9.015574      9.009374    -0.006201    Cartesian   -0.07
    232 y        -13.523362    -13.542448    -0.019086    Cartesian    0.14
    232 z          9.015574      9.021359     0.005785    Cartesian    0.06
    233 x         13.523362     13.537265     0.013904    Cartesian    0.10
    233 y        -13.523362    -13.548411    -0.025050    Cartesian    0.19
    233 z          0.000000      0.000000     0.000000    Cartesian    0.00
    234 x          4.507787      4.541058     0.033271    Cartesian    0.74
    234 y          9.015574      9.023280     0.007706    Cartesian    0.09
    234 z         18.031149     18.063483     0.032334    Cartesian    0.18
    235 x          6.761681      6.760792    -0.000888    Cartesian   -0.01
    235 y         20.285042     20.263973    -0.021069    Cartesian   -0.10
    235 z          6.761681      6.773108     0.011427    Cartesian    0.17
    236 x         11.269468     11.279321     0.009853    Cartesian    0.09
    236 y         15.777255     15.788217     0.010962    Cartesian    0.07
    236 z         11.269468     11.248054    -0.021414    Cartesian   -0.19
    237 x         13.523362     13.556080     0.032718    Cartesian    0.24
    237 y        -13.523362    -13.557026    -0.033664    Cartesian    0.25
    237 z          4.507787      4.511940     0.004153    Cartesian    0.09
--------------------------------------------------------------------------------


  Time to end of optimisation  =      138.2451 seconds


  Peak dynamic memory used =    1116.65 MB 


  Timing analysis for GULP :

--------------------------------------------------------------------------------
  Task / Subroutine                                          Time (Seconds)
--------------------------------------------------------------------------------
  Calculation of reciprocal space energy and derivatives          0.0006
  Calculation of reciprocal space energy using symmetry           0.0009
  Calculation of real space energy and derivatives                0.0036
  Calculation of real space energy using symmetry                 0.0082
  Calculation for region 1 energy and derivatives (2-b)          99.1970
  Calculation for region 2a energy                               33.1872
  Calculation for region 2b energy                                0.0002
  Calculation and manipulation of Hessian matrix                  4.4437
  Calculation of matrix inversion                                 0.2455
  Symmetry generation of equivalent positions                     0.0048
--------------------------------------------------------------------------------
  Total CPU time                                                138.2451
--------------------------------------------------------------------------------


  Dump file written as Na3OCl.grs


  Job Finished at 11:41.00  2nd January    2021                               

