********************************************************************************
*                       GENERAL UTILITY LATTICE PROGRAM                        *
*                                 Julian Gale                                  *
*                       Curtin Institute for Computation                       *
*                    School of Molecular and Life Sciences                     *
*                    Curtin University, Western Australia                      *
********************************************************************************
* Version = 5.2.0 * Last modified =  10th September 2020                       *
********************************************************************************
*  optimise     - perform optimisation run                                     *
*  conp         - constant pressure calculation                                *
*  property     - calculate properties for final geometry                      *
*  defect       - perform defect calculation after bulk run                    *
*  compare      - compare initial and final structures                         *
********************************************************************************

  Job Started  at 13:57.12  5th February   2021                               

  Number of CPUs =     1


  Total number of configurations input =      1

********************************************************************************
*  Input for Configuration =   1                                               *
********************************************************************************

  Formula = O8Cl8Na24                                                   

  Number of irreducible atoms/shells =      56


  Total number atoms/shells =      56

  Dimensionality = 3               :  Bulk   



  Supercell dimensions :  x =   2  y =   2  z =   2

  Cartesian lattice vectors (Angstroms) :

        9.008000    0.000000    0.000000
        0.000000    9.008000    0.000000
        0.000000    0.000000    9.008000

  Cell parameters (Angstroms/Degrees):

  a =       9.0080    alpha =  90.0000
  b =       9.0080    beta  =  90.0000
  c =       9.0080    gamma =  90.0000

  Initial cell volume =         730.945729 Angs**3

  Temperature of configuration =   0.00     K 

  Pressure of configuration =         0.000 GPa 

  Fractional coordinates of asymmetric unit :

--------------------------------------------------------------------------------
   No.  Atomic       x           y          z         Charge      Occupancy
        Label      (Frac)      (Frac)     (Frac)        (e)         (Frac)  
--------------------------------------------------------------------------------
      1 O     c    0.000000    0.000000    0.000000     0.18300    1.000000    
      2 O     c    0.000000 *  0.000000 *  0.500000 *   0.18300    1.000000    
      3 O     c    0.000000 *  0.500000 *  0.000000 *   0.18300    1.000000    
      4 O     c    0.000000 *  0.500000 *  0.500000 *   0.18300    1.000000    
      5 O     c    0.500000 *  0.000000 *  0.000000 *   0.18300    1.000000    
      6 O     c    0.500000 *  0.000000 *  0.500000 *   0.18300    1.000000    
      7 O     c    0.500000 *  0.500000 *  0.000000 *   0.18300    1.000000    
      8 O     c    0.500000 *  0.500000 *  0.500000 *   0.18300    1.000000    
      9 Cl    c    0.250000 *  0.250000 *  0.250000 *   1.48500    1.000000    
     10 Cl    c    0.250000 *  0.250000 *  0.750000 *   1.48500    1.000000    
     11 Cl    c    0.250000 *  0.750000 *  0.250000 *   1.48500    1.000000    
     12 Cl    c    0.250000 *  0.750000 *  0.750000 *   1.48500    1.000000    
     13 Cl    c    0.750000 *  0.250000 *  0.250000 *   1.48500    1.000000    
     14 Cl    c    0.750000 *  0.250000 *  0.750000 *   1.48500    1.000000    
     15 Cl    c    0.750000 *  0.750000 *  0.250000 *   1.48500    1.000000    
     16 Cl    c    0.750000 *  0.750000 *  0.750000 *   1.48500    1.000000    
     17 Na    c    0.250000 *  0.000000 *  0.000000 *   1.00000    1.000000    
     18 Na    c    0.250000 *  0.000000 *  0.500000 *   1.00000    1.000000    
     19 Na    c    0.250000 *  0.500000 *  0.000000 *   1.00000    1.000000    
     20 Na    c    0.250000 *  0.500000 *  0.500000 *   1.00000    1.000000    
     21 Na    c    0.750000 *  0.000000 *  0.000000 *   1.00000    1.000000    
     22 Na    c    0.750000 *  0.000000 *  0.500000 *   1.00000    1.000000    
     23 Na    c    0.750000 *  0.500000 *  0.000000 *   1.00000    1.000000    
     24 Na    c    0.750000 *  0.500000 *  0.500000 *   1.00000    1.000000    
     25 Na    c    0.000000 *  0.250000 *  0.000000 *   1.00000    1.000000    
     26 Na    c    0.000000 *  0.250000 *  0.500000 *   1.00000    1.000000    
     27 Na    c    0.000000 *  0.750000 *  0.000000 *   1.00000    1.000000    
     28 Na    c    0.000000 *  0.750000 *  0.500000 *   1.00000    1.000000    
     29 Na    c    0.500000 *  0.250000 *  0.000000 *   1.00000    1.000000    
     30 Na    c    0.500000 *  0.250000 *  0.500000 *   1.00000    1.000000    
     31 Na    c    0.500000 *  0.750000 *  0.000000 *   1.00000    1.000000    
     32 Na    c    0.500000 *  0.750000 *  0.500000 *   1.00000    1.000000    
     33 Na    c    0.000000 *  0.000000 *  0.250000 *   1.00000    1.000000    
     34 Na    c    0.000000 *  0.000000 *  0.750000 *   1.00000    1.000000    
     35 Na    c    0.000000 *  0.500000 *  0.250000 *   1.00000    1.000000    
     36 Na    c    0.000000 *  0.500000 *  0.750000 *   1.00000    1.000000    
     37 Na    c    0.500000 *  0.000000 *  0.250000 *   1.00000    1.000000    
     38 Na    c    0.500000 *  0.000000 *  0.750000 *   1.00000    1.000000    
     39 Na    c    0.500000 *  0.500000 *  0.250000 *   1.00000    1.000000    
     40 Na    c    0.500000 *  0.500000 *  0.750000 *   1.00000    1.000000    
     41 O     s    0.000000 *  0.000000 *  0.000000 *  -2.18300    1.000000    
     42 O     s    0.000000 *  0.000000 *  0.500000 *  -2.18300    1.000000    
     43 O     s    0.000000 *  0.500000 *  0.000000 *  -2.18300    1.000000    
     44 O     s    0.000000 *  0.500000 *  0.500000 *  -2.18300    1.000000    
     45 O     s    0.500000 *  0.000000 *  0.000000 *  -2.18300    1.000000    
     46 O     s    0.500000 *  0.000000 *  0.500000 *  -2.18300    1.000000    
     47 O     s    0.500000 *  0.500000 *  0.000000 *  -2.18300    1.000000    
     48 O     s    0.500000 *  0.500000 *  0.500000 *  -2.18300    1.000000    
     49 Cl    s    0.250000 *  0.250000 *  0.250000 *  -2.48500    1.000000    
     50 Cl    s    0.250000 *  0.250000 *  0.750000 *  -2.48500    1.000000    
     51 Cl    s    0.250000 *  0.750000 *  0.250000 *  -2.48500    1.000000    
     52 Cl    s    0.250000 *  0.750000 *  0.750000 *  -2.48500    1.000000    
     53 Cl    s    0.750000 *  0.250000 *  0.250000 *  -2.48500    1.000000    
     54 Cl    s    0.750000 *  0.250000 *  0.750000 *  -2.48500    1.000000    
     55 Cl    s    0.750000 *  0.750000 *  0.250000 *  -2.48500    1.000000    
     56 Cl    s    0.750000 *  0.750000 *  0.750000 *  -2.48500    1.000000    
--------------------------------------------------------------------------------



********************************************************************************
*  General input information                                                   *
********************************************************************************

  Species output for all configurations : 

--------------------------------------------------------------------------------
  Species    Type    Atomic    Atomic    Charge       Radii (Angs)     Library
                     Number     Mass       (e)     Cova   Ionic  VDW   Symbol
--------------------------------------------------------------------------------
    Na       Core       11      22.99   1.000000   0.970  0.000  2.300          
    O        Core        8      16.00   0.183000   0.730  0.000  1.360          
    O        Shell       8       0.00  -2.183000   0.730  0.000  1.360          
    Cl       Core       17      35.45   1.485000   0.990  0.000  1.650          
    Cl       Shell      17       0.00  -2.485000   0.990  0.000  1.650          
    Mg       Core       12      24.31   0.415000   1.100  0.000  0.000          
    Mg       Shell      12       0.00   1.585000   1.100  0.000  0.000          
    Ca       Core       20      40.08  -1.135000   0.990  0.000  0.000          
    Ca       Shell      20       0.00   3.135000   0.990  0.000  0.000          
    Sr       Core       38      87.62  -1.251000   1.120  0.000  0.000          
    Sr       Shell      38       0.00   3.251000   1.120  0.000  0.000          
    Ba       Core       56     137.33  -7.203000   1.340  0.000  0.000          
    Ba       Shell      56       0.00   9.203000   1.340  0.000  0.000          
--------------------------------------------------------------------------------


  Lattice summation method               =    Ewald          (3-D)
                                         =    Parry          (2-D)
                                         =    Saunders et al (1-D)
  Accuracy factor for lattice sums       =   12.000


  Analytic derivatives to be used

  Time limit = Infinity

  Maximum range for interatomic potentials =    100000.000000 Angstroms

  General interatomic potentials :

--------------------------------------------------------------------------------
Atom  Types   Potential      Parameter       Value         Units   Cutoffs(Ang)
  1     2                                                            Min /  Max 
--------------------------------------------------------------------------------
O    c O    s Spring (c-s)  Spring k 2       593.71600    eV*Ang^-2 0.000  0.800
                            Spring k 4       0.0000000    eV*Ang^-4 
--------------------------------------------------------------------------------
Cl   c Cl   s Spring (c-s)  Spring k 2       29.380000    eV*Ang^-2 0.000  0.800
                            Spring k 4       0.0000000    eV*Ang^-4 
--------------------------------------------------------------------------------
Mg   c Mg   s Spring (c-s)  Spring k 2       361.60000    eV*Ang^-2 0.000  0.800
                            Spring k 4       0.0000000    eV*Ang^-4 
--------------------------------------------------------------------------------
Ca   c Ca   s Spring (c-s)  Spring k 2       110.20000    eV*Ang^-2 0.000  0.800
                            Spring k 4       0.0000000    eV*Ang^-4 
--------------------------------------------------------------------------------
Sr   c Sr   s Spring (c-s)  Spring k 2       71.700000    eV*Ang^-2 0.000  0.800
                            Spring k 4       0.0000000    eV*Ang^-4 
--------------------------------------------------------------------------------
Ba   c Ba   s Spring (c-s)  Spring k 2       495.20000    eV*Ang^-2 0.000  0.800
                            Spring k 4       0.0000000    eV*Ang^-4 
--------------------------------------------------------------------------------
Na   c Na   c Buckingham    Buckingham A     1788.1900    eV        0.000 12.000
                            Buckingham rho  0.15900000    Ang       
                            Buckingham C     0.0000000    eV*Ang^6  
--------------------------------------------------------------------------------
Na   c O    s Buckingham    Buckingham A     588.38000    eV        0.000 12.000
                            Buckingham rho  0.33800000    Ang       
                            Buckingham C     0.0000000    eV*Ang^6  
--------------------------------------------------------------------------------
Na   c Cl   s Buckingham    Buckingham A     1170.4100    eV        0.000 12.000
                            Buckingham rho  0.31500000    Ang       
                            Buckingham C     0.0000000    eV*Ang^6  
--------------------------------------------------------------------------------
O    s O    s Buckingham    Buckingham A     22764.300    eV        0.000 12.000
                            Buckingham rho  0.14900000    Ang       
                            Buckingham C     13.190000    eV*Ang^6  
--------------------------------------------------------------------------------
O    s Cl   s Buckingham    Buckingham A     8286.9100    eV        0.000 12.000
                            Buckingham rho  0.25900000    Ang       
                            Buckingham C     62.200000    eV*Ang^6  
--------------------------------------------------------------------------------
Cl   s Cl   s Buckingham    Buckingham A     1227.2000    eV        0.000 12.000
                            Buckingham rho  0.32100000    Ang       
                            Buckingham C     14.530000    eV*Ang^6  
--------------------------------------------------------------------------------
O    s Mg   s Buckingham    Buckingham A     1428.5000    eV        0.000 12.000
                            Buckingham rho  0.29450000    Ang       
                            Buckingham C     0.0000000    eV*Ang^6  
--------------------------------------------------------------------------------
Mg   s Cl   s Buckingham    Buckingham A     4914.5400    eV        0.000 12.000
                            Buckingham rho  0.25700000    Ang       
                            Buckingham C     0.0000000    eV*Ang^6  
--------------------------------------------------------------------------------
O    s Ca   s Buckingham    Buckingham A     1090.4000    eV        0.000 12.000
                            Buckingham rho  0.34370000    Ang       
                            Buckingham C     0.0000000    eV*Ang^6  
--------------------------------------------------------------------------------
Cl   s Ca   s Buckingham    Buckingham A     2302.0000    eV        0.000 12.000
                            Buckingham rho  0.34020000    Ang       
                            Buckingham C     0.0000000    eV*Ang^6  
--------------------------------------------------------------------------------
O    s Sr   s Buckingham    Buckingham A     959.10000    eV        0.000 12.000
                            Buckingham rho  0.37210000    Ang       
                            Buckingham C     0.0000000    eV*Ang^6  
--------------------------------------------------------------------------------
Cl   s Sr   s Buckingham    Buckingham A     2191.0900    eV        0.000 12.000
                            Buckingham rho  0.34570000    Ang       
                            Buckingham C     0.0000000    eV*Ang^6  
--------------------------------------------------------------------------------
O    s Ba   s Buckingham    Buckingham A     905.70000    eV        0.000 12.000
                            Buckingham rho  0.39760000    Ang       
                            Buckingham C     0.0000000    eV*Ang^6  
--------------------------------------------------------------------------------
Cl   s Ba   s Buckingham    Buckingham A     2704.5500    eV        0.000 12.000
                            Buckingham rho  0.35280000    Ang       
                            Buckingham C     0.0000000    eV*Ang^6  
--------------------------------------------------------------------------------

********************************************************************************
*  Output for configuration   1                                                *
********************************************************************************


  Components of energy : 

--------------------------------------------------------------------------------
  Interatomic potentials     =          39.54523045 eV    
  Monopole - monopole (real) =        -173.49412932 eV    
  Monopole - monopole (recip)=        -143.08233464 eV    
  Monopole - monopole (total)=        -316.57646396 eV    
--------------------------------------------------------------------------------
  Total lattice energy       =        -277.03123351 eV    
--------------------------------------------------------------------------------
  Total lattice energy       =          -26729.2792 kJ/(mole unit cells)
--------------------------------------------------------------------------------


  Number of variables =      171

  Maximum number of calculations  =          1000
  Maximum Hessian update interval =            10
  Maximum step size               =   1.000000000
  Maximum parameter tolerance     =   0.000010000
  Maximum function  tolerance     =   0.000010000
  Maximum gradient  tolerance     =   0.001000000
  Maximum gradient  component     =   0.010000000

  Cell parameters to be optimised using strains

  Newton-Raphson optimiser to be used

  BFGS hessian update to be used

  Lower half triangular hessian to be used

  Start of bulk optimisation :

  Cycle:      0 Energy:      -277.031234  Gnorm:      0.116908  CPU:    0.090
  ** Hessian calculated **
  Cycle:      1 Energy:      -277.421334  Gnorm:      0.001189  CPU:    0.175
  Cycle:      2 Energy:      -277.421371  Gnorm:      0.000099  CPU:    0.243


  **** Optimisation achieved ****


  Final energy =    -277.42137089 eV
  Final Gnorm  =       0.00000000

  Components of energy : 

--------------------------------------------------------------------------------
  Interatomic potentials     =          46.20368827 eV    
  Monopole - monopole (real) =        -177.35698719 eV    
  Monopole - monopole (recip)=        -146.26807197 eV    
  Monopole - monopole (total)=        -323.62505916 eV    
--------------------------------------------------------------------------------
  Total lattice energy       =        -277.42137089 eV    
--------------------------------------------------------------------------------
  Total lattice energy       =          -26766.9215 kJ/(mole unit cells)
--------------------------------------------------------------------------------

  Final fractional coordinates of atoms :

--------------------------------------------------------------------------------
   No.  Atomic        x           y          z          Radius
        Label       (Frac)      (Frac)     (Frac)       (Angs) 
--------------------------------------------------------------------------------
     1  O     c     0.000000    0.000000    0.000000    0.000000
     2  O     c     0.000000    0.000000    0.500000    0.000000
     3  O     c     1.000000    0.500000    1.000000    0.000000
     4  O     c     0.000000    0.500000    0.500000    0.000000
     5  O     c     0.500000    0.000000    1.000000    0.000000
     6  O     c     0.500000    0.000000    0.500000    0.000000
     7  O     c     0.500000    0.500000    1.000000    0.000000
     8  O     c     0.500000    0.500000    0.500000    0.000000
     9  Cl    c     0.250000    0.250000    0.250000    0.000000
    10  Cl    c     0.250000    0.250000    0.750000    0.000000
    11  Cl    c     0.250000    0.750000    0.250000    0.000000
    12  Cl    c     0.250000    0.750000    0.750000    0.000000
    13  Cl    c     0.750000    0.250000    0.250000    0.000000
    14  Cl    c     0.750000    0.250000    0.750000    0.000000
    15  Cl    c     0.750000    0.750000    0.250000    0.000000
    16  Cl    c     0.750000    0.750000    0.750000    0.000000
    17  Na    c     0.250000    0.000000    1.000000    0.000000
    18  Na    c     0.250000    0.000000    0.500000    0.000000
    19  Na    c     0.250000    0.500000    1.000000    0.000000
    20  Na    c     0.250000    0.500000    0.500000    0.000000
    21  Na    c     0.750000    1.000000    0.000000    0.000000
    22  Na    c     0.750000    1.000000    0.500000    0.000000
    23  Na    c     0.750000    0.500000    0.000000    0.000000
    24  Na    c     0.750000    0.500000    0.500000    0.000000
    25  Na    c     1.000000    0.250000    0.000000    0.000000
    26  Na    c     1.000000    0.250000    0.500000    0.000000
    27  Na    c     0.000000    0.750000    1.000000    0.000000
    28  Na    c     0.000000    0.750000    0.500000    0.000000
    29  Na    c     0.500000    0.250000    1.000000    0.000000
    30  Na    c     0.500000    0.250000    0.500000    0.000000
    31  Na    c     0.500000    0.750000    0.000000    0.000000
    32  Na    c     0.500000    0.750000    0.500000    0.000000
    33  Na    c     0.000000    1.000000    0.250000    0.000000
    34  Na    c     1.000000    0.000000    0.750000    0.000000
    35  Na    c     0.000000    0.500000    0.250000    0.000000
    36  Na    c     1.000000    0.500000    0.750000    0.000000
    37  Na    c     0.500000    0.000000    0.250000    0.000000
    38  Na    c     0.500000    1.000000    0.750000    0.000000
    39  Na    c     0.500000    0.500000    0.250000    0.000000
    40  Na    c     0.500000    0.500000    0.750000    0.000000
    41  O     s     0.000000    0.000000    0.000000    0.000000
    42  O     s     0.000000    0.000000    0.500000    0.000000
    43  O     s     1.000000    0.500000    1.000000    0.000000
    44  O     s     0.000000    0.500000    0.500000    0.000000
    45  O     s     0.500000    0.000000    1.000000    0.000000
    46  O     s     0.500000    0.000000    0.500000    0.000000
    47  O     s     0.500000    0.500000    1.000000    0.000000
    48  O     s     0.500000    0.500000    0.500000    0.000000
    49  Cl    s     0.250000    0.250000    0.250000    0.000000
    50  Cl    s     0.250000    0.250000    0.750000    0.000000
    51  Cl    s     0.250000    0.750000    0.250000    0.000000
    52  Cl    s     0.250000    0.750000    0.750000    0.000000
    53  Cl    s     0.750000    0.250000    0.250000    0.000000
    54  Cl    s     0.750000    0.250000    0.750000    0.000000
    55  Cl    s     0.750000    0.750000    0.250000    0.000000
    56  Cl    s     0.750000    0.750000    0.750000    0.000000
--------------------------------------------------------------------------------

  Final Cartesian lattice vectors (Angstroms) :

        8.811805   -0.000000    0.000000
       -0.000000    8.811805   -0.000000
        0.000000   -0.000000    8.811805


  Final cell parameters and derivatives :

--------------------------------------------------------------------------------
       a            8.811805 Angstrom     dE/de1(xx)     0.000000 eV/strain
       b            8.811805 Angstrom     dE/de2(yy)     0.000000 eV/strain
       c            8.811805 Angstrom     dE/de3(zz)     0.000000 eV/strain
       alpha       90.000000 Degrees      dE/de4(yz)    -0.000000 eV/strain
       beta        90.000000 Degrees      dE/de5(xz)     0.000000 eV/strain
       gamma       90.000000 Degrees      dE/de6(xy)    -0.000000 eV/strain
--------------------------------------------------------------------------------

  Primitive cell volume =           684.218127 Angs**3

  Density of cell =      2.338030 g/cm**3

  Non-primitive cell volume =           684.218127 Angs**3


  Final internal derivatives :

--------------------------------------------------------------------------------
   No.  Atomic          a             b             c           Radius
        Label          (eV)          (eV)          (eV)        (eV/Angs)
--------------------------------------------------------------------------------
      1 O     c       0.000000      0.000000      0.000000      0.000000
      2 O     c       0.000000     -0.000000     -0.000000      0.000000
      3 O     c      -0.000000      0.000000      0.000000      0.000000
      4 O     c       0.000000      0.000000      0.000000      0.000000
      5 O     c       0.000000     -0.000000     -0.000000      0.000000
      6 O     c      -0.000000     -0.000000     -0.000000      0.000000
      7 O     c       0.000000      0.000000     -0.000000      0.000000
      8 O     c      -0.000000      0.000000     -0.000000      0.000000
      9 Cl    c      -0.000000     -0.000000     -0.000000      0.000000
     10 Cl    c      -0.000000     -0.000000      0.000000      0.000000
     11 Cl    c      -0.000000      0.000000      0.000000      0.000000
     12 Cl    c      -0.000000      0.000000     -0.000000      0.000000
     13 Cl    c       0.000000      0.000000      0.000000      0.000000
     14 Cl    c       0.000000     -0.000000     -0.000000      0.000000
     15 Cl    c      -0.000000      0.000000     -0.000000      0.000000
     16 Cl    c      -0.000000      0.000000      0.000000      0.000000
     17 Na    c       0.000000     -0.000000      0.000000      0.000000
     18 Na    c      -0.000000     -0.000000     -0.000000      0.000000
     19 Na    c      -0.000000      0.000000      0.000000      0.000000
     20 Na    c      -0.000000      0.000000     -0.000000      0.000000
     21 Na    c      -0.000000      0.000000     -0.000000      0.000000
     22 Na    c      -0.000000      0.000000     -0.000000      0.000000
     23 Na    c      -0.000000     -0.000000      0.000000      0.000000
     24 Na    c       0.000000     -0.000000     -0.000000      0.000000
     25 Na    c       0.000000     -0.000000     -0.000000      0.000000
     26 Na    c       0.000000     -0.000000     -0.000000      0.000000
     27 Na    c      -0.000000     -0.000000      0.000000      0.000000
     28 Na    c      -0.000000      0.000000     -0.000000      0.000000
     29 Na    c      -0.000000     -0.000000     -0.000000      0.000000
     30 Na    c      -0.000000     -0.000000      0.000000      0.000000
     31 Na    c       0.000000      0.000000     -0.000000      0.000000
     32 Na    c       0.000000      0.000000     -0.000000      0.000000
     33 Na    c      -0.000000     -0.000000      0.000000      0.000000
     34 Na    c      -0.000000      0.000000     -0.000000      0.000000
     35 Na    c       0.000000      0.000000     -0.000000      0.000000
     36 Na    c       0.000000     -0.000000     -0.000000      0.000000
     37 Na    c      -0.000000     -0.000000      0.000000      0.000000
     38 Na    c       0.000000      0.000000     -0.000000      0.000000
     39 Na    c      -0.000000      0.000000      0.000000      0.000000
     40 Na    c      -0.000000     -0.000000     -0.000000      0.000000
     41 O     s      -0.000000      0.000000     -0.000000      0.000000
     42 O     s      -0.000000      0.000000      0.000000      0.000000
     43 O     s       0.000000     -0.000000     -0.000000      0.000000
     44 O     s      -0.000000      0.000000      0.000000      0.000000
     45 O     s       0.000000      0.000000     -0.000000      0.000000
     46 O     s       0.000000     -0.000000      0.000000      0.000000
     47 O     s       0.000000      0.000000     -0.000000      0.000000
     48 O     s       0.000000      0.000000     -0.000000      0.000000
     49 Cl    s       0.000000      0.000000     -0.000000      0.000000
     50 Cl    s      -0.000000     -0.000000     -0.000000      0.000000
     51 Cl    s       0.000000     -0.000000     -0.000000      0.000000
     52 Cl    s       0.000000     -0.000000      0.000000      0.000000
     53 Cl    s      -0.000000      0.000000     -0.000000      0.000000
     54 Cl    s      -0.000000      0.000000      0.000000      0.000000
     55 Cl    s      -0.000000     -0.000000      0.000000      0.000000
     56 Cl    s      -0.000000     -0.000000     -0.000000      0.000000
--------------------------------------------------------------------------------
  Maximum abs         0.000000      0.000000      0.000000      0.000000
--------------------------------------------------------------------------------

  Comparison of initial and final structures : 

--------------------------------------------------------------------------------
  Parameter   Initial value   Final value   Difference    Units      Percent
--------------------------------------------------------------------------------
    Volume       730.945729    684.218127   -46.727602    Angs**3     -6.39
    a              9.008000      8.811805    -0.196195    Angstroms   -2.18
    b              9.008000      8.811805    -0.196195    Angstroms   -2.18
    c              9.008000      8.811805    -0.196195    Angstroms   -2.18
    alpha         90.000000     90.000000     0.000000    Degrees      0.00
    beta          90.000000     90.000000     0.000000    Degrees      0.00
    gamma         90.000000     90.000000     0.000000    Degrees      0.00
      1 x          0.000000      0.000000     0.000000    Fractional   0.00
      1 y          0.000000      0.000000     0.000000    Fractional   0.00
      1 z          0.000000      0.000000     0.000000    Fractional   0.00
      2 x          0.000000      0.000000     0.000000    Fractional   0.00
      2 y          0.000000      0.000000     0.000000    Fractional   0.00
      2 z          0.500000      0.500000     0.000000    Fractional   0.00
      3 x          0.000000      1.000000     1.000000    Fractional   0.00
      3 y          0.500000      0.500000     0.000000    Fractional   0.00
      3 z          0.000000      1.000000     1.000000    Fractional   0.00
      4 x          0.000000      0.000000     0.000000    Fractional   0.00
      4 y          0.500000      0.500000     0.000000    Fractional   0.00
      4 z          0.500000      0.500000     0.000000    Fractional   0.00
      5 x          0.500000      0.500000     0.000000    Fractional   0.00
      5 y          0.000000      0.000000     0.000000    Fractional   0.00
      5 z          0.000000      1.000000     1.000000    Fractional   0.00
      6 x          0.500000      0.500000     0.000000    Fractional   0.00
      6 y          0.000000      0.000000     0.000000    Fractional   0.00
      6 z          0.500000      0.500000     0.000000    Fractional   0.00
      7 x          0.500000      0.500000     0.000000    Fractional   0.00
      7 y          0.500000      0.500000     0.000000    Fractional   0.00
      7 z          0.000000      1.000000     1.000000    Fractional   0.00
      8 x          0.500000      0.500000     0.000000    Fractional   0.00
      8 y          0.500000      0.500000     0.000000    Fractional   0.00
      8 z          0.500000      0.500000     0.000000    Fractional   0.00
      9 x          0.250000      0.250000     0.000000    Fractional   0.00
      9 y          0.250000      0.250000     0.000000    Fractional   0.00
      9 z          0.250000      0.250000     0.000000    Fractional   0.00
     10 x          0.250000      0.250000     0.000000    Fractional   0.00
     10 y          0.250000      0.250000     0.000000    Fractional   0.00
     10 z          0.750000      0.750000     0.000000    Fractional   0.00
     11 x          0.250000      0.250000     0.000000    Fractional   0.00
     11 y          0.750000      0.750000     0.000000    Fractional   0.00
     11 z          0.250000      0.250000     0.000000    Fractional   0.00
     12 x          0.250000      0.250000     0.000000    Fractional   0.00
     12 y          0.750000      0.750000     0.000000    Fractional   0.00
     12 z          0.750000      0.750000     0.000000    Fractional   0.00
     13 x          0.750000      0.750000     0.000000    Fractional   0.00
     13 y          0.250000      0.250000     0.000000    Fractional   0.00
     13 z          0.250000      0.250000     0.000000    Fractional   0.00
     14 x          0.750000      0.750000     0.000000    Fractional   0.00
     14 y          0.250000      0.250000     0.000000    Fractional   0.00
     14 z          0.750000      0.750000     0.000000    Fractional   0.00
     15 x          0.750000      0.750000     0.000000    Fractional   0.00
     15 y          0.750000      0.750000     0.000000    Fractional   0.00
     15 z          0.250000      0.250000     0.000000    Fractional   0.00
     16 x          0.750000      0.750000     0.000000    Fractional   0.00
     16 y          0.750000      0.750000     0.000000    Fractional   0.00
     16 z          0.750000      0.750000     0.000000    Fractional   0.00
     17 x          0.250000      0.250000     0.000000    Fractional   0.00
     17 y          0.000000      0.000000     0.000000    Fractional   0.00
     17 z          0.000000      1.000000     1.000000    Fractional   0.00
     18 x          0.250000      0.250000     0.000000    Fractional   0.00
     18 y          0.000000      0.000000     0.000000    Fractional   0.00
     18 z          0.500000      0.500000     0.000000    Fractional   0.00
     19 x          0.250000      0.250000     0.000000    Fractional   0.00
     19 y          0.500000      0.500000     0.000000    Fractional   0.00
     19 z          0.000000      1.000000     1.000000    Fractional   0.00
     20 x          0.250000      0.250000     0.000000    Fractional   0.00
     20 y          0.500000      0.500000     0.000000    Fractional   0.00
     20 z          0.500000      0.500000     0.000000    Fractional   0.00
     21 x          0.750000      0.750000     0.000000    Fractional   0.00
     21 y          0.000000      1.000000     1.000000    Fractional   0.00
     21 z          0.000000      0.000000     0.000000    Fractional   0.00
     22 x          0.750000      0.750000     0.000000    Fractional   0.00
     22 y          0.000000      1.000000     1.000000    Fractional   0.00
     22 z          0.500000      0.500000     0.000000    Fractional   0.00
     23 x          0.750000      0.750000     0.000000    Fractional   0.00
     23 y          0.500000      0.500000     0.000000    Fractional   0.00
     23 z          0.000000      0.000000     0.000000    Fractional   0.00
     24 x          0.750000      0.750000     0.000000    Fractional   0.00
     24 y          0.500000      0.500000     0.000000    Fractional   0.00
     24 z          0.500000      0.500000     0.000000    Fractional   0.00
     25 x          0.000000      1.000000     1.000000    Fractional   0.00
     25 y          0.250000      0.250000     0.000000    Fractional   0.00
     25 z          0.000000      0.000000     0.000000    Fractional   0.00
     26 x          0.000000      1.000000     1.000000    Fractional   0.00
     26 y          0.250000      0.250000     0.000000    Fractional   0.00
     26 z          0.500000      0.500000     0.000000    Fractional   0.00
     27 x          0.000000      0.000000     0.000000    Fractional   0.00
     27 y          0.750000      0.750000     0.000000    Fractional   0.00
     27 z          0.000000      1.000000     1.000000    Fractional   0.00
     28 x          0.000000      0.000000     0.000000    Fractional   0.00
     28 y          0.750000      0.750000     0.000000    Fractional   0.00
     28 z          0.500000      0.500000     0.000000    Fractional   0.00
     29 x          0.500000      0.500000     0.000000    Fractional   0.00
     29 y          0.250000      0.250000     0.000000    Fractional   0.00
     29 z          0.000000      1.000000     1.000000    Fractional   0.00
     30 x          0.500000      0.500000     0.000000    Fractional   0.00
     30 y          0.250000      0.250000     0.000000    Fractional   0.00
     30 z          0.500000      0.500000     0.000000    Fractional   0.00
     31 x          0.500000      0.500000     0.000000    Fractional   0.00
     31 y          0.750000      0.750000     0.000000    Fractional   0.00
     31 z          0.000000      0.000000     0.000000    Fractional   0.00
     32 x          0.500000      0.500000     0.000000    Fractional   0.00
     32 y          0.750000      0.750000     0.000000    Fractional   0.00
     32 z          0.500000      0.500000     0.000000    Fractional   0.00
     33 x          0.000000      0.000000     0.000000    Fractional   0.00
     33 y          0.000000      1.000000     1.000000    Fractional   0.00
     33 z          0.250000      0.250000     0.000000    Fractional   0.00
     34 x          0.000000      1.000000     1.000000    Fractional   0.00
     34 y          0.000000      0.000000     0.000000    Fractional   0.00
     34 z          0.750000      0.750000     0.000000    Fractional   0.00
     35 x          0.000000      0.000000     0.000000    Fractional   0.00
     35 y          0.500000      0.500000     0.000000    Fractional   0.00
     35 z          0.250000      0.250000     0.000000    Fractional   0.00
     36 x          0.000000      1.000000     1.000000    Fractional   0.00
     36 y          0.500000      0.500000     0.000000    Fractional   0.00
     36 z          0.750000      0.750000     0.000000    Fractional   0.00
     37 x          0.500000      0.500000     0.000000    Fractional   0.00
     37 y          0.000000      0.000000     0.000000    Fractional   0.00
     37 z          0.250000      0.250000     0.000000    Fractional   0.00
     38 x          0.500000      0.500000     0.000000    Fractional   0.00
     38 y          0.000000      1.000000     1.000000    Fractional   0.00
     38 z          0.750000      0.750000     0.000000    Fractional   0.00
     39 x          0.500000      0.500000     0.000000    Fractional   0.00
     39 y          0.500000      0.500000     0.000000    Fractional   0.00
     39 z          0.250000      0.250000     0.000000    Fractional   0.00
     40 x          0.500000      0.500000     0.000000    Fractional   0.00
     40 y          0.500000      0.500000     0.000000    Fractional   0.00
     40 z          0.750000      0.750000     0.000000    Fractional   0.00
     41 x          0.000000      0.000000     0.000000    Fractional   0.00
     41 y          0.000000      0.000000     0.000000    Fractional   0.00
     41 z          0.000000      0.000000     0.000000    Fractional   0.00
     42 x          0.000000      0.000000     0.000000    Fractional   0.00
     42 y          0.000000      0.000000     0.000000    Fractional   0.00
     42 z          0.500000      0.500000     0.000000    Fractional   0.00
     43 x          0.000000      1.000000     1.000000    Fractional   0.00
     43 y          0.500000      0.500000     0.000000    Fractional   0.00
     43 z          0.000000      1.000000     1.000000    Fractional   0.00
     44 x          0.000000      0.000000     0.000000    Fractional   0.00
     44 y          0.500000      0.500000     0.000000    Fractional   0.00
     44 z          0.500000      0.500000     0.000000    Fractional   0.00
     45 x          0.500000      0.500000     0.000000    Fractional   0.00
     45 y          0.000000      0.000000     0.000000    Fractional   0.00
     45 z          0.000000      1.000000     1.000000    Fractional   0.00
     46 x          0.500000      0.500000     0.000000    Fractional   0.00
     46 y          0.000000      0.000000     0.000000    Fractional   0.00
     46 z          0.500000      0.500000     0.000000    Fractional   0.00
     47 x          0.500000      0.500000     0.000000    Fractional   0.00
     47 y          0.500000      0.500000     0.000000    Fractional   0.00
     47 z          0.000000      1.000000     1.000000    Fractional   0.00
     48 x          0.500000      0.500000     0.000000    Fractional   0.00
     48 y          0.500000      0.500000     0.000000    Fractional   0.00
     48 z          0.500000      0.500000     0.000000    Fractional   0.00
     49 x          0.250000      0.250000     0.000000    Fractional   0.00
     49 y          0.250000      0.250000     0.000000    Fractional   0.00
     49 z          0.250000      0.250000     0.000000    Fractional   0.00
     50 x          0.250000      0.250000     0.000000    Fractional   0.00
     50 y          0.250000      0.250000     0.000000    Fractional   0.00
     50 z          0.750000      0.750000     0.000000    Fractional   0.00
     51 x          0.250000      0.250000     0.000000    Fractional   0.00
     51 y          0.750000      0.750000     0.000000    Fractional   0.00
     51 z          0.250000      0.250000     0.000000    Fractional   0.00
     52 x          0.250000      0.250000     0.000000    Fractional   0.00
     52 y          0.750000      0.750000     0.000000    Fractional   0.00
     52 z          0.750000      0.750000     0.000000    Fractional   0.00
     53 x          0.750000      0.750000     0.000000    Fractional   0.00
     53 y          0.250000      0.250000     0.000000    Fractional   0.00
     53 z          0.250000      0.250000     0.000000    Fractional   0.00
     54 x          0.750000      0.750000     0.000000    Fractional   0.00
     54 y          0.250000      0.250000     0.000000    Fractional   0.00
     54 z          0.750000      0.750000     0.000000    Fractional   0.00
     55 x          0.750000      0.750000     0.000000    Fractional   0.00
     55 y          0.750000      0.750000     0.000000    Fractional   0.00
     55 z          0.250000      0.250000     0.000000    Fractional   0.00
     56 x          0.750000      0.750000     0.000000    Fractional   0.00
     56 y          0.750000      0.750000     0.000000    Fractional   0.00
     56 z          0.750000      0.750000     0.000000    Fractional   0.00
--------------------------------------------------------------------------------


  Born effective charge tensors : 

-------------------------------------------------------------------------------
  Atom             x           y             z
-------------------------------------------------------------------------------
    1 O     x      -2.2939      0.0000     -0.0000
            y      -0.0000     -2.2939     -0.0000
            z      -0.0000     -0.0000     -2.2939
-------------------------------------------------------------------------------
    2 O     x      -2.2939      0.0000      0.0000
            y      -0.0000     -2.2939      0.0000
            z       0.0000      0.0000     -2.2939
-------------------------------------------------------------------------------
    3 O     x      -2.2939     -0.0000      0.0000
            y       0.0000     -2.2939      0.0000
            z       0.0000      0.0000     -2.2939
-------------------------------------------------------------------------------
    4 O     x      -2.2939     -0.0000      0.0000
            y       0.0000     -2.2939     -0.0000
            z       0.0000     -0.0000     -2.2939
-------------------------------------------------------------------------------
    5 O     x      -2.2939     -0.0000      0.0000
            y       0.0000     -2.2939     -0.0000
            z       0.0000     -0.0000     -2.2939
-------------------------------------------------------------------------------
    6 O     x      -2.2939     -0.0000      0.0000
            y       0.0000     -2.2939     -0.0000
            z       0.0000      0.0000     -2.2939
-------------------------------------------------------------------------------
    7 O     x      -2.2939      0.0000      0.0000
            y      -0.0000     -2.2939      0.0000
            z       0.0000     -0.0000     -2.2939
-------------------------------------------------------------------------------
    8 O     x      -2.2939      0.0000      0.0000
            y      -0.0000     -2.2939     -0.0000
            z       0.0000     -0.0000     -2.2939
-------------------------------------------------------------------------------
    9 Cl    x      -0.9918      0.0000     -0.0000
            y       0.0000     -0.9918     -0.0000
            z      -0.0000     -0.0000     -0.9918
-------------------------------------------------------------------------------
   10 Cl    x      -0.9918      0.0000      0.0000
            y       0.0000     -0.9918      0.0000
            z       0.0000      0.0000     -0.9918
-------------------------------------------------------------------------------
   11 Cl    x      -0.9918     -0.0000     -0.0000
            y      -0.0000     -0.9918     -0.0000
            z      -0.0000     -0.0000     -0.9918
-------------------------------------------------------------------------------
   12 Cl    x      -0.9918      0.0000      0.0000
            y       0.0000     -0.9918     -0.0000
            z       0.0000     -0.0000     -0.9918
-------------------------------------------------------------------------------
   13 Cl    x      -0.9918      0.0000     -0.0000
            y      -0.0000     -0.9918      0.0000
            z       0.0000      0.0000     -0.9918
-------------------------------------------------------------------------------
   14 Cl    x      -0.9918      0.0000     -0.0000
            y       0.0000     -0.9918      0.0000
            z      -0.0000      0.0000     -0.9918
-------------------------------------------------------------------------------
   15 Cl    x      -0.9918      0.0000     -0.0000
            y       0.0000     -0.9918     -0.0000
            z      -0.0000     -0.0000     -0.9918
-------------------------------------------------------------------------------
   16 Cl    x      -0.9918      0.0000      0.0000
            y       0.0000     -0.9918      0.0000
            z       0.0000      0.0000     -0.9918
-------------------------------------------------------------------------------
   17 Na    x       0.8372     -0.0000      0.0000
            y      -0.0000      1.2243      0.0000
            z       0.0000      0.0000      1.2243
-------------------------------------------------------------------------------
   18 Na    x       0.8372     -0.0000      0.0000
            y      -0.0000      1.2243     -0.0000
            z      -0.0000      0.0000      1.2243
-------------------------------------------------------------------------------
   19 Na    x       0.8372     -0.0000      0.0000
            y      -0.0000      1.2243     -0.0000
            z       0.0000     -0.0000      1.2243
-------------------------------------------------------------------------------
   20 Na    x       0.8372     -0.0000      0.0000
            y      -0.0000      1.2243      0.0000
            z       0.0000      0.0000      1.2243
-------------------------------------------------------------------------------
   21 Na    x       0.8372     -0.0000      0.0000
            y       0.0000      1.2243     -0.0000
            z       0.0000      0.0000      1.2243
-------------------------------------------------------------------------------
   22 Na    x       0.8372      0.0000      0.0000
            y       0.0000      1.2243      0.0000
            z       0.0000      0.0000      1.2243
-------------------------------------------------------------------------------
   23 Na    x       0.8372     -0.0000     -0.0000
            y      -0.0000      1.2243      0.0000
            z      -0.0000     -0.0000      1.2243
-------------------------------------------------------------------------------
   24 Na    x       0.8372     -0.0000      0.0000
            y      -0.0000      1.2243      0.0000
            z       0.0000      0.0000      1.2243
-------------------------------------------------------------------------------
   25 Na    x       1.2243     -0.0000     -0.0000
            y      -0.0000      0.8372     -0.0000
            z      -0.0000     -0.0000      1.2243
-------------------------------------------------------------------------------
   26 Na    x       1.2243     -0.0000     -0.0000
            y      -0.0000      0.8372     -0.0000
            z      -0.0000     -0.0000      1.2243
-------------------------------------------------------------------------------
   27 Na    x       1.2243      0.0000     -0.0000
            y       0.0000      0.8372      0.0000
            z      -0.0000      0.0000      1.2243
-------------------------------------------------------------------------------
   28 Na    x       1.2243      0.0000     -0.0000
            y       0.0000      0.8372     -0.0000
            z      -0.0000     -0.0000      1.2243
-------------------------------------------------------------------------------
   29 Na    x       1.2243      0.0000     -0.0000
            y      -0.0000      0.8372     -0.0000
            z      -0.0000     -0.0000      1.2243
-------------------------------------------------------------------------------
   30 Na    x       1.2243     -0.0000     -0.0000
            y      -0.0000      0.8372     -0.0000
            z      -0.0000     -0.0000      1.2243
-------------------------------------------------------------------------------
   31 Na    x       1.2243     -0.0000     -0.0000
            y      -0.0000      0.8372      0.0000
            z      -0.0000      0.0000      1.2243
-------------------------------------------------------------------------------
   32 Na    x       1.2243     -0.0000     -0.0000
            y      -0.0000      0.8372     -0.0000
            z      -0.0000     -0.0000      1.2243
-------------------------------------------------------------------------------
   33 Na    x       1.2243     -0.0000      0.0000
            y       0.0000      1.2243     -0.0000
            z       0.0000      0.0000      0.8372
-------------------------------------------------------------------------------
   34 Na    x       1.2243     -0.0000     -0.0000
            y       0.0000      1.2243     -0.0000
            z      -0.0000     -0.0000      0.8372
-------------------------------------------------------------------------------
   35 Na    x       1.2243      0.0000      0.0000
            y      -0.0000      1.2243     -0.0000
            z       0.0000      0.0000      0.8372
-------------------------------------------------------------------------------
   36 Na    x       1.2243      0.0000      0.0000
            y      -0.0000      1.2243      0.0000
            z       0.0000      0.0000      0.8372
-------------------------------------------------------------------------------
   37 Na    x       1.2243      0.0000      0.0000
            y      -0.0000      1.2243     -0.0000
            z       0.0000     -0.0000      0.8372
-------------------------------------------------------------------------------
   38 Na    x       1.2243      0.0000      0.0000
            y      -0.0000      1.2243     -0.0000
            z       0.0000     -0.0000      0.8372
-------------------------------------------------------------------------------
   39 Na    x       1.2243     -0.0000      0.0000
            y       0.0000      1.2243     -0.0000
            z       0.0000     -0.0000      0.8372
-------------------------------------------------------------------------------
   40 Na    x       1.2243     -0.0000      0.0000
            y       0.0000      1.2243      0.0000
            z       0.0000      0.0000      0.8372
-------------------------------------------------------------------------------




  Elastic Constant Matrix: (Units=GPa)

-------------------------------------------------------------------------------
  Indices      1         2         3         4         5         6    
-------------------------------------------------------------------------------
       1     82.7680   24.3534   24.3534   -0.0000    0.0000   -0.0000
       2     24.3534   82.7680   24.3534   -0.0000   -0.0000    0.0000
       3     24.3534   24.3534   82.7680   -0.0000    0.0000    0.0000
       4     -0.0000   -0.0000   -0.0000   24.3534    0.0000   -0.0000
       5      0.0000   -0.0000    0.0000    0.0000   24.3534   -0.0000
       6     -0.0000    0.0000    0.0000   -0.0000   -0.0000   24.3534
-------------------------------------------------------------------------------


  Elastic Compliance Matrix: (Units=1/GPa)

-------------------------------------------------------------------------------
  Indices      1         2         3         4         5         6    
-------------------------------------------------------------------------------
       1    0.013948 -0.003171 -0.003171 -0.000000 -0.000000  0.000000
       2   -0.003171  0.013948 -0.003171  0.000000  0.000000 -0.000000
       3   -0.003171 -0.003171  0.013948  0.000000 -0.000000 -0.000000
       4   -0.000000  0.000000  0.000000  0.041062 -0.000000  0.000000
       5   -0.000000  0.000000 -0.000000 -0.000000  0.041062  0.000000
       6    0.000000 -0.000000 -0.000000  0.000000  0.000000  0.041062
-------------------------------------------------------------------------------

  Mechanical properties :

-------------------------------------------------------------------------------
  Convention :                    Reuss         Voigt         Hill
-------------------------------------------------------------------------------
  Bulk  Modulus (GPa)     =      43.82493      43.82493      43.82493
  Shear Modulus (GPa)     =      26.08758      26.29496      26.19127
-------------------------------------------------------------------------------
  Velocity S-wave (km/s)  =       3.34035       3.35360       3.34698
  Velocity P-wave (km/s)  =       5.79842       5.80861       5.80351
-------------------------------------------------------------------------------
  Compressibility (1/GPa) =    0.02281806
-------------------------------------------------------------------------------
  Stress axis :                     x             y             z
-------------------------------------------------------------------------------
  Youngs Moduli (GPa)     =      71.69479      71.69479      71.69479
-------------------------------------------------------------------------------
  Poissons Ratio (x)      =                     0.22734       0.22734
  Poissons Ratio (y)      =       0.22734                     0.22734
  Poissons Ratio (z)      =       0.22734       0.22734
-------------------------------------------------------------------------------


  Piezoelectric Strain Matrix: (Units=C/m**2)

-------------------------------------------------------------------------------
  Indices      1         2         3         4         5         6    
-------------------------------------------------------------------------------
       x    -0.00000   0.00000   0.00000   0.00000   0.00000   0.00000
       y     0.00000   0.00000   0.00000   0.00000   0.00000   0.00000
       z     0.00000  -0.00000   0.00000   0.00000   0.00000   0.00000
-------------------------------------------------------------------------------


  Piezoelectric Stress Matrix: (Units=10**-11 C/N)

-------------------------------------------------------------------------------
  Indices      1         2         3         4         5         6    
-------------------------------------------------------------------------------
       x    -0.00000   0.00000   0.00000   0.00000   0.00000   0.00000
       y     0.00000   0.00000   0.00000   0.00000   0.00000   0.00000
       z     0.00000  -0.00000   0.00000   0.00000   0.00000   0.00000
-------------------------------------------------------------------------------


  Static dielectric constant tensor : 

-------------------------------------------------------------------------------
              x         y         z
-------------------------------------------------------------------------------
       x    11.08357  -0.00000  -0.00000
       y    -0.00000  11.08357  -0.00000
       z    -0.00000  -0.00000  11.08357
--------------------------------------------------------------------------------

  High frequency dielectric constant tensor : 

-------------------------------------------------------------------------------
              x         y         z
-------------------------------------------------------------------------------
       x     1.50771  -0.00000   0.00000
       y    -0.00000   1.50771  -0.00000
       z     0.00000  -0.00000   1.50771
-------------------------------------------------------------------------------

  Static refractive indices : 

-------------------------------------------------------------------------------
    1 =    3.32920      2 =    3.32920      3 =    3.32920
-------------------------------------------------------------------------------

  High frequency refractive indices : 

-------------------------------------------------------------------------------
    1 =    1.22789      2 =    1.22789      3 =    1.22789
-------------------------------------------------------------------------------


  Time to end of optimisation =       0.4458 seconds

********************************************************************************
*  Defect calculation for configuration   1 :                                  *
********************************************************************************

  Total number of defects =      2

  Total charge on defect  =   0.00

  Defect centre is at   0.5000   0.5000   0.5000  Frac

  Region 1 radius =  16.0000      Number of ions =   1398

  Number of symmetry inequivalent region 1 ions  =    264

  Region 2 radius =  24.0000      Number of ions =   3374

  Number of symmetry inequivalent region 2a ions =    520

  Region 2a mode = 4 : screened electrostatics due to region 1 
                       neglect correction to region 1 forces from 2a
                       region 2a displacements based on defects only

  Region 2a ions will only interact with defects in region 1

  Vacancies:

--------------------------------------------------------------------------------
    Specification type     Symbol/Number         x          y          z
--------------------------------------------------------------------------------
    Fractional                               0.250000   0.500000   0.500000
--------------------------------------------------------------------------------

  Impurities:

--------------------------------------------------------------------------------
    Specification type     Symbol/Number         x          y          z
--------------------------------------------------------------------------------
    Frac/Symbol             Sr               0.750000   0.500000   0.500000
--------------------------------------------------------------------------------


  Symmetry reduced region 1 (Relative to defect centre) :

--------------------------------------------------------------------------------
   No.   Atomic       x            y             z       Radius  Multiplicity   
         Label      (Angs)       (Angs)        (Angs)    (Angs)     
--------------------------------------------------------------------------------
     1  O     c     -0.0000 *     0.0000      -0.0000    0.0000     1          
     2  Na    c      0.0000 *     0.0000       2.2030 *  0.0000     4          
     3  Sr    c      2.2030       0.0000       0.0000    0.0000     1    Defect
     4  Cl    c      2.2030 *     2.2030 *     2.2030    0.0000     4          
     5  Cl    c     -2.2030 *    -2.2030 *     2.2030    0.0000     4          
     6  O     c      0.0000 *     0.0000       4.4059 *  0.0000     4          
     7  O     c     -4.4059 *     0.0000      -0.0000    0.0000     1          
     8  O     c      4.4059 *     0.0000       0.0000    0.0000     1          
     9  Na    c      4.4059 *    -2.2030 *    -0.0000    0.0000     4          
    10  Na    c     -4.4059 *     2.2030 *     0.0000    0.0000     4          
    11  Na    c     -2.2030 *    -4.4059 *     0.0000    0.0000     4          
    12  Na    c      2.2030 *     4.4059 *    -0.0000    0.0000     4          
    13  Na    c      0.0000 *    -2.2030 *     4.4059 *  0.0000     8          
    14  O     c      4.4059 *     0.0000       4.4059 *  0.0000     4          
    15  O     c     -4.4059 *     0.0000       4.4059 *  0.0000     4          
    16  O     c      0.0000 *    -4.4059 *     4.4059    0.0000     4          
    17  Na    c     -4.4059 *     2.2030 *     4.4059 *  0.0000     8          
    18  Na    c      4.4059 *    -2.2030 *    -4.4059 *  0.0000     8          
    19  Na    c     -2.2030 *    -4.4059 *     4.4059    0.0000     4          
    20  Na    c      2.2030 *     4.4059 *    -4.4059    0.0000     4          
    21  Na    c     -0.0000 *    -0.0000       6.6089 *  0.0000     4          
    22  Na    c     -6.6089 *     0.0000      -0.0000    0.0000     1          
    23  Na    c      6.6089 *    -0.0000       0.0000    0.0000     1          
    24  Cl    c      2.2030 *     2.2030 *     6.6089 *  0.0000     8          
    25  Cl    c     -2.2030 *    -2.2030 *     6.6089 *  0.0000     8          
    26  Cl    c     -6.6089 *    -2.2030 *     2.2030    0.0000     4          
    27  Cl    c      6.6089 *     2.2030 *    -2.2030    0.0000     4          
    28  O     c      4.4059 *     4.4059 *    -4.4059    0.0000     4          
    29  O     c     -4.4059 *     4.4059 *     4.4059    0.0000     4          
    30  Na    c     -6.6089 *     4.4059 *    -0.0000    0.0000     4          
    31  Na    c      6.6089 *    -4.4059 *     0.0000    0.0000     4          
    32  Na    c     -4.4059 *    -6.6089 *     0.0000    0.0000     4          
    33  Na    c      4.4059 *     6.6089 *    -0.0000    0.0000     4          
    34  Na    c     -0.0000 *    -4.4059 *     6.6089 *  0.0000     8          
    35  O     c     -0.0000 *     0.0000       8.8118 *  0.0000     4          
    36  O     c      8.8118 *     0.0000      -0.0000    0.0000     1          
    37  O     c     -8.8118 *     0.0000      -0.0000    0.0000     1          
    38  Na    c     -8.8118 *    -2.2030 *     0.0000    0.0000     4          
    39  Na    c      8.8118 *     2.2030 *    -0.0000    0.0000     4          
    40  Na    c      2.2030 *    -8.8118 *    -0.0000    0.0000     4          
    41  Na    c     -2.2030 *     8.8118 *     0.0000    0.0000     4          
    42  Na    c     -4.4059 *    -6.6089 *     4.4059 *  0.0000     8          
    43  Na    c      4.4059 *     6.6089 *    -4.4059 *  0.0000     8          
    44  Na    c     -6.6089 *     4.4059 *    -4.4059    0.0000     4          
    45  Na    c      6.6089 *    -4.4059 *     4.4059    0.0000     4          
    46  Na    c     -0.0000 *     2.2030 *     8.8118 *  0.0000     8          
    47  Cl    c      6.6089 *     2.2030 *     6.6089 *  0.0000     8          
    48  Cl    c     -6.6089 *    -2.2030 *     6.6089 *  0.0000     8          
    49  Cl    c     -2.2030 *    -6.6089 *    -6.6089    0.0000     4          
    50  Cl    c      2.2030 *     6.6089 *     6.6089    0.0000     4          
    51  O     c     -8.8118 *     0.0000       4.4059 *  0.0000     4          
    52  O     c     -4.4059 *     0.0000       8.8118 *  0.0000     4          
    53  O     c      8.8118 *     0.0000       4.4059 *  0.0000     4          
    54  O     c      4.4059 *     0.0000      -8.8118 *  0.0000     4          
    55  O     c      0.0000 *    -4.4059 *     8.8118 *  0.0000     8          
    56  Na    c     -8.8118 *    -2.2030 *     4.4059 *  0.0000     8          
    57  Na    c      8.8118 *     2.2030 *    -4.4059 *  0.0000     8          
    58  Na    c      2.2030 *    -8.8118 *    -4.4059 *  0.0000     8          
    59  Na    c     -2.2030 *     8.8118 *     4.4059 *  0.0000     8          
    60  Na    c     -4.4059 *     2.2030 *    -8.8118 *  0.0000     8          
    61  Na    c      4.4059 *    -2.2030 *     8.8118 *  0.0000     8          
    62  O     c     -8.8118 *    -4.4059 *     4.4059    0.0000     4          
    63  O     c     -4.4059 *    -4.4059 *     8.8118 *  0.0000     8          
    64  O     c      4.4059 *    -4.4059 *    -8.8118 *  0.0000     8          
    65  O     c      8.8118 *    -4.4059 *     4.4059    0.0000     4          
    66  Na    c     -8.8118 *     6.6089 *     0.0000    0.0000     4          
    67  Na    c      8.8118 *    -6.6089 *    -0.0000    0.0000     4          
    68  Na    c     -6.6089 *    -8.8118 *    -0.0000    0.0000     4          
    69  Na    c      6.6089 *     8.8118 *     0.0000    0.0000     4          
    70  Na    c     -0.0000 *    -6.6089 *     8.8118 *  0.0000     8          
    71  Na    c      0.0000 *     0.0000      11.0148 *  0.0000     4          
    72  Na    c    -11.0148 *    -0.0000       0.0000    0.0000     1          
    73  Na    c     11.0148 *     0.0000      -0.0000    0.0000     1          
    74  Cl    c      2.2030 *     2.2030 *    11.0148 *  0.0000     8          
    75  Cl    c     11.0148 *     2.2030 *     2.2030    0.0000     4          
    76  Cl    c    -11.0148 *    -2.2030 *     2.2030    0.0000     4          
    77  Cl    c     -2.2030 *    -2.2030 *    11.0148 *  0.0000     8          
    78  Cl    c      6.6089 *    -6.6089 *     6.6089    0.0000     4          
    79  Cl    c     -6.6089 *     6.6089 *     6.6089    0.0000     4          
    80  Na    c      8.8118 *    -6.6089 *    -4.4059 *  0.0000     8          
    81  Na    c     -8.8118 *     6.6089 *     4.4059 *  0.0000     8          
    82  Na    c     -6.6089 *    -8.8118 *    -4.4059 *  0.0000     8          
    83  Na    c      6.6089 *     8.8118 *     4.4059 *  0.0000     8          
    84  Na    c     -4.4059 *    -6.6089 *    -8.8118 *  0.0000     8          
    85  Na    c      4.4059 *     6.6089 *     8.8118 *  0.0000     8          
    86  Na    c    -11.0148 *    -4.4059 *     0.0000    0.0000     4          
    87  Na    c     11.0148 *     4.4059 *    -0.0000    0.0000     4          
    88  Na    c      4.4059 *   -11.0148 *    -0.0000    0.0000     4          
    89  Na    c     -4.4059 *    11.0148 *     0.0000    0.0000     4          
    90  Na    c      0.0000 *     4.4059 *    11.0148 *  0.0000     8          
    91  O     c      8.8118 *     0.0000       8.8118 *  0.0000     4          
    92  O     c     -8.8118 *     0.0000       8.8118 *  0.0000     4          
    93  O     c     -0.0000 *    -8.8118 *     8.8118    0.0000     4          
    94  Na    c     -8.8118 *    -2.2030 *    -8.8118 *  0.0000     8          
    95  Na    c      8.8118 *     2.2030 *     8.8118 *  0.0000     8          
    96  Na    c      2.2030 *    -8.8118 *     8.8118    0.0000     4          
    97  Na    c     -2.2030 *     8.8118 *    -8.8118    0.0000     4          
    98  Na    c    -11.0148 *    -4.4059 *     4.4059    0.0000     4          
    99  Na    c     11.0148 *     4.4059 *    -4.4059    0.0000     4          
   100  Na    c     -4.4059 *    11.0148 *     4.4059 *  0.0000     8          
   101  Na    c      4.4059 *   -11.0148 *    -4.4059 *  0.0000     8          
   102  Cl    c     -6.6089 *    -2.2030 *    11.0148 *  0.0000     8          
   103  Cl    c     11.0148 *     2.2030 *     6.6089 *  0.0000     8          
   104  Cl    c      2.2030 *    -6.6089 *    11.0148 *  0.0000     8          
   105  Cl    c    -11.0148 *    -2.2030 *     6.6089 *  0.0000     8          
   106  Cl    c      6.6089 *    -2.2030 *    11.0148 *  0.0000     8          
   107  Cl    c     -2.2030 *     6.6089 *    11.0148 *  0.0000     8          
   108  O     c    -13.2177 *     0.0000      -0.0000    0.0000     1          
   109  O     c      0.0000 *     0.0000      13.2177 *  0.0000     4          
   110  O     c     13.2177 *     0.0000       0.0000    0.0000     1          
   111  O     c     -8.8118 *    -4.4059 *     8.8118 *  0.0000     8          
   112  O     c      8.8118 *    -4.4059 *     8.8118 *  0.0000     8          
   113  O     c     -4.4059 *    -8.8118 *     8.8118    0.0000     4          
   114  O     c      4.4059 *    -8.8118 *    -8.8118    0.0000     4          
   115  Na    c     13.2177 *    -2.2030 *    -0.0000    0.0000     4          
   116  Na    c    -13.2177 *     2.2030 *     0.0000    0.0000     4          
   117  Na    c     -2.2030 *   -13.2177 *     0.0000    0.0000     4          
   118  Na    c      2.2030 *    13.2177 *    -0.0000    0.0000     4          
   119  Na    c      0.0000 *    -2.2030 *    13.2177 *  0.0000     8          
   120  O     c     13.2177 *    -0.0000       4.4059 *  0.0000     4          
   121  O     c     -4.4059 *     0.0000      13.2177 *  0.0000     4          
   122  O     c    -13.2177 *    -4.4059 *    -0.0000    0.0000     4          
   123  O     c      4.4059 *    -0.0000      13.2177 *  0.0000     4          
   124  O     c      0.0000 *    -4.4059 *    13.2177 *  0.0000     8          
   125  Na    c    -13.2177 *     2.2030 *     4.4059 *  0.0000     8          
   126  Na    c     13.2177 *    -2.2030 *    -4.4059 *  0.0000     8          
   127  Na    c     -2.2030 *   -13.2177 *     4.4059 *  0.0000     8          
   128  Na    c      2.2030 *    13.2177 *    -4.4059 *  0.0000     8          
   129  Na    c     -6.6089 *    -8.8118 *     8.8118    0.0000     4          
   130  Na    c     -8.8118 *     6.6089 *    -8.8118 *  0.0000     8          
   131  Na    c      8.8118 *    -6.6089 *     8.8118 *  0.0000     8          
   132  Na    c      6.6089 *     8.8118 *    -8.8118    0.0000     4          
   133  Na    c     11.0148 *    -8.8118 *    -0.0000    0.0000     4          
   134  Na    c    -11.0148 *     8.8118 *     0.0000    0.0000     4          
   135  Na    c     -8.8118 *   -11.0148 *     0.0000    0.0000     4          
   136  Na    c      8.8118 *    11.0148 *    -0.0000    0.0000     4          
   137  Na    c      4.4059 *    -2.2030 *   -13.2177 *  0.0000     8          
   138  Na    c     -4.4059 *     2.2030 *    13.2177 *  0.0000     8          
   139  Na    c      0.0000 *    -8.8118 *    11.0148 *  0.0000     8          
   140  Cl    c     -6.6089 *     6.6089 *    11.0148 *  0.0000     8          
   141  Cl    c     11.0148 *    -6.6089 *     6.6089    0.0000     4          
   142  Cl    c    -11.0148 *     6.6089 *     6.6089    0.0000     4          
   143  Cl    c      6.6089 *    -6.6089 *    11.0148 *  0.0000     8          
   144  O     c     13.2177 *     4.4059 *    -4.4059    0.0000     4          
   145  O     c    -13.2177 *     4.4059 *     4.4059    0.0000     4          
   146  O     c      4.4059 *     4.4059 *   -13.2177 *  0.0000     8          
   147  O     c     -4.4059 *     4.4059 *    13.2177 *  0.0000     8          
   148  Na    c     13.2177 *     6.6089 *    -0.0000    0.0000     4          
   149  Na    c    -13.2177 *    -6.6089 *     0.0000    0.0000     4          
   150  Na    c      6.6089 *   -13.2177 *     0.0000    0.0000     4          
   151  Na    c     -6.6089 *    13.2177 *    -0.0000    0.0000     4          
   152  Na    c     11.0148 *    -8.8118 *    -4.4059 *  0.0000     8          
   153  Na    c    -11.0148 *     8.8118 *     4.4059 *  0.0000     8          
   154  Na    c     -8.8118 *   -11.0148 *     4.4059 *  0.0000     8          
   155  Na    c      8.8118 *    11.0148 *    -4.4059 *  0.0000     8          
   156  Na    c      4.4059 *   -11.0148 *     8.8118 *  0.0000     8          
   157  Na    c     -4.4059 *    11.0148 *    -8.8118 *  0.0000     8          
   158  Na    c      0.0000 *     6.6089 *    13.2177 *  0.0000     8          
   159  O     c     -8.8118 *    -8.8118 *     8.8118    0.0000     4          
   160  O     c      8.8118 *    -8.8118 *     8.8118    0.0000     4          
   161  Na    c    -13.2177 *    -6.6089 *     4.4059 *  0.0000     8          
   162  Na    c     13.2177 *     6.6089 *    -4.4059 *  0.0000     8          
   163  Na    c     -6.6089 *    13.2177 *    -4.4059 *  0.0000     8          
   164  Na    c      6.6089 *   -13.2177 *     4.4059 *  0.0000     8          
   165  Na    c      4.4059 *     6.6089 *   -13.2177 *  0.0000     8          
   166  Na    c     -4.4059 *    -6.6089 *    13.2177 *  0.0000     8          
   167  Na    c     -0.0000 *    -0.0000      15.4207 *  0.0000     4          
   168  Na    c    -15.4207 *     0.0000      -0.0000    0.0000     1          
   169  Na    c     15.4207 *    -0.0000       0.0000    0.0000     1          
   170  Cl    c     11.0148 *     2.2030 *    11.0148 *  0.0000     8          
   171  Cl    c     -2.2030 *    -2.2030 *    15.4207 *  0.0000     8          
   172  Cl    c     15.4207 *     2.2030 *    -2.2030    0.0000     4          
   173  Cl    c      2.2030 *     2.2030 *    15.4207 *  0.0000     8          
   174  Cl    c    -15.4207 *    -2.2030 *     2.2030    0.0000     4          
   175  Cl    c    -11.0148 *    -2.2030 *    11.0148 *  0.0000     8          
   176  Cl    c      2.2030 *    11.0148 *    11.0148    0.0000     4          
   177  Cl    c     -2.2030 *   -11.0148 *    11.0148    0.0000     4          
   178  O     c     -8.8118 *     0.0000      13.2177 *  0.0000     4          
   179  O     c    -13.2177 *     0.0000       8.8118 *  0.0000     4          
   180  O     c     13.2177 *     0.0000      -8.8118 *  0.0000     4          
   181  O     c      8.8118 *     0.0000      13.2177 *  0.0000     4          
   182  O     c      0.0000 *    -8.8118 *    13.2177 *  0.0000     8          
   183  O     s     -0.0000 *     0.0000      -0.0000    0.0000     1          
   184  Sr    s      2.2030       0.0000       0.0000    0.0000     1    Defect
   185  Cl    s      2.2030 *     2.2030 *     2.2030    0.0000     4          
   186  Cl    s     -2.2030 *    -2.2030 *     2.2030    0.0000     4          
   187  O     s      0.0000 *     0.0000       4.4059 *  0.0000     4          
   188  O     s     -4.4059 *     0.0000      -0.0000    0.0000     1          
   189  O     s      4.4059 *     0.0000       0.0000    0.0000     1          
   190  O     s      4.4059 *     0.0000       4.4059 *  0.0000     4          
   191  O     s     -4.4059 *     0.0000       4.4059 *  0.0000     4          
   192  O     s      0.0000 *    -4.4059 *     4.4059    0.0000     4          
   193  Cl    s      2.2030 *     2.2030 *     6.6089 *  0.0000     8          
   194  Cl    s     -2.2030 *    -2.2030 *     6.6089 *  0.0000     8          
   195  Cl    s     -6.6089 *    -2.2030 *     2.2030    0.0000     4          
   196  Cl    s      6.6089 *     2.2030 *    -2.2030    0.0000     4          
   197  O     s      4.4059 *     4.4059 *    -4.4059    0.0000     4          
   198  O     s     -4.4059 *     4.4059 *     4.4059    0.0000     4          
   199  O     s     -0.0000 *     0.0000       8.8118 *  0.0000     4          
   200  O     s      8.8118 *     0.0000      -0.0000    0.0000     1          
   201  O     s     -8.8118 *     0.0000      -0.0000    0.0000     1          
   202  Cl    s      6.6089 *     2.2030 *     6.6089 *  0.0000     8          
   203  Cl    s     -6.6089 *    -2.2030 *     6.6089 *  0.0000     8          
   204  Cl    s     -2.2030 *     6.6089 *     6.6089    0.0000     4          
   205  Cl    s      2.2030 *     6.6089 *     6.6089    0.0000     4          
   206  O     s     -8.8118 *     0.0000       4.4059 *  0.0000     4          
   207  O     s     -4.4059 *     0.0000       8.8118 *  0.0000     4          
   208  O     s      8.8118 *     0.0000       4.4059 *  0.0000     4          
   209  O     s      4.4059 *     0.0000      -8.8118 *  0.0000     4          
   210  O     s      0.0000 *    -4.4059 *     8.8118 *  0.0000     8          
   211  O     s     -8.8118 *    -4.4059 *     4.4059    0.0000     4          
   212  O     s     -4.4059 *    -4.4059 *     8.8118 *  0.0000     8          
   213  O     s      4.4059 *    -4.4059 *    -8.8118 *  0.0000     8          
   214  O     s      8.8118 *    -4.4059 *     4.4059    0.0000     4          
   215  Cl    s      2.2030 *     2.2030 *    11.0148 *  0.0000     8          
   216  Cl    s     11.0148 *     2.2030 *     2.2030    0.0000     4          
   217  Cl    s    -11.0148 *    -2.2030 *     2.2030    0.0000     4          
   218  Cl    s      6.6089 *    -6.6089 *     6.6089    0.0000     4          
   219  Cl    s     -2.2030 *    -2.2030 *    11.0148 *  0.0000     8          
   220  Cl    s     -6.6089 *     6.6089 *     6.6089    0.0000     4          
   221  O     s      8.8118 *     0.0000       8.8118 *  0.0000     4          
   222  O     s     -8.8118 *     0.0000       8.8118 *  0.0000     4          
   223  O     s     -0.0000 *    -8.8118 *     8.8118    0.0000     4          
   224  Cl    s     -6.6089 *    -2.2030 *    11.0148 *  0.0000     8          
   225  Cl    s      2.2030 *    -6.6089 *    11.0148 *  0.0000     8          
   226  Cl    s     11.0148 *     2.2030 *     6.6089 *  0.0000     8          
   227  Cl    s    -11.0148 *    -2.2030 *     6.6089 *  0.0000     8          
   228  Cl    s      6.6089 *     2.2030 *    11.0148 *  0.0000     8          
   229  Cl    s     -2.2030 *     6.6089 *    11.0148 *  0.0000     8          
   230  O     s    -13.2177 *     0.0000      -0.0000    0.0000     1          
   231  O     s      0.0000 *     0.0000      13.2177 *  0.0000     4          
   232  O     s     13.2177 *     0.0000       0.0000    0.0000     1          
   233  O     s     -8.8118 *    -4.4059 *     8.8118 *  0.0000     8          
   234  O     s      8.8118 *    -4.4059 *     8.8118 *  0.0000     8          
   235  O     s     -4.4059 *    -8.8118 *     8.8118    0.0000     4          
   236  O     s      4.4059 *    -8.8118 *    -8.8118    0.0000     4          
   237  O     s     13.2177 *    -0.0000       4.4059 *  0.0000     4          
   238  O     s     -4.4059 *     0.0000      13.2177 *  0.0000     4          
   239  O     s    -13.2177 *    -4.4059 *    -0.0000    0.0000     4          
   240  O     s      4.4059 *    -0.0000      13.2177 *  0.0000     4          
   241  O     s      0.0000 *    -4.4059 *    13.2177 *  0.0000     8          
   242  Cl    s     -6.6089 *     6.6089 *    11.0148 *  0.0000     8          
   243  Cl    s     11.0148 *    -6.6089 *     6.6089    0.0000     4          
   244  Cl    s    -11.0148 *     6.6089 *     6.6089    0.0000     4          
   245  Cl    s      6.6089 *    -6.6089 *    11.0148 *  0.0000     8          
   246  O     s     13.2177 *     4.4059 *    -4.4059    0.0000     4          
   247  O     s    -13.2177 *     4.4059 *     4.4059    0.0000     4          
   248  O     s      4.4059 *     4.4059 *   -13.2177 *  0.0000     8          
   249  O     s     -4.4059 *     4.4059 *    13.2177 *  0.0000     8          
   250  O     s     -8.8118 *    -8.8118 *     8.8118    0.0000     4          
   251  O     s      8.8118 *    -8.8118 *     8.8118    0.0000     4          
   252  Cl    s     11.0148 *     2.2030 *    11.0148 *  0.0000     8          
   253  Cl    s     -2.2030 *    -2.2030 *    15.4207 *  0.0000     8          
   254  Cl    s     15.4207 *     2.2030 *    -2.2030    0.0000     4          
   255  Cl    s      2.2030 *    -2.2030 *    15.4207 *  0.0000     8          
   256  Cl    s    -15.4207 *    -2.2030 *     2.2030    0.0000     4          
   257  Cl    s    -11.0148 *    -2.2030 *    11.0148 *  0.0000     8          
   258  Cl    s      2.2030 *    11.0148 *    11.0148    0.0000     4          
   259  Cl    s     -2.2030 *   -11.0148 *    11.0148    0.0000     4          
   260  O     s     -8.8118 *     0.0000      13.2177 *  0.0000     4          
   261  O     s    -13.2177 *     0.0000       8.8118 *  0.0000     4          
   262  O     s     13.2177 *     0.0000      -8.8118 *  0.0000     4          
   263  O     s      8.8118 *     0.0000      13.2177 *  0.0000     4          
   264  O     s      0.0000 *    -8.8118 *    13.2177 *  0.0000     8          
--------------------------------------------------------------------------------


  Constraints on symmetry reduced coordinates :

--------------------------------------------------------------------------------
  Constraint no.      Unconstrained     Constrained    Coefficient    
[...]
    183 y          4.405902      4.405902     0.000000    Cartesian    0.00
    183 z          4.405902      4.405902     0.000000    Cartesian    0.00
    184 x          6.608853      6.608853     0.000000    Cartesian    0.00
    184 y          4.405902      4.405902     0.000000    Cartesian    0.00
    184 z          4.405902      4.405902     0.000000    Cartesian    0.00
    185 x          6.608853      6.735651     0.126798    Cartesian    1.92
    185 y          6.608853      6.576235    -0.032619    Cartesian   -0.49
    185 z          6.608853      6.576235    -0.032619    Cartesian   -0.49
    186 x          2.202951      2.185041    -0.017910    Cartesian   -0.81
    186 y          2.202951      2.102585    -0.100367    Cartesian   -4.56
    186 z          6.608853      6.709220     0.100367    Cartesian    1.52
    187 x          4.405902      4.361819    -0.044084    Cartesian   -1.00
    187 y          4.405902      4.405902     0.000000    Cartesian    0.00
    187 z          8.811805      8.765809    -0.045996    Cartesian   -0.52
    188 x          0.000000     -0.165465    -0.165465    Cartesian *******
    188 y          4.405902      4.405902     0.000000    Cartesian    0.00
    188 z          4.405902      4.405902     0.000000    Cartesian    0.00
    189 x          8.811805      8.884722     0.072917    Cartesian    0.83
    189 y          4.405902      4.405902     0.000000    Cartesian    0.00
    189 z          4.405902      4.405902     0.000000    Cartesian    0.00
    190 x          8.811805      8.819626     0.007822    Cartesian    0.09
    190 y          4.405902      4.405902     0.000000    Cartesian    0.00
    190 z          8.811805      8.819727     0.007923    Cartesian    0.09
    191 x         -0.000000     -0.004542    -0.004542    Cartesian *******
    191 y          4.405902      4.405902     0.000000    Cartesian    0.00
    191 z          8.811805      8.794444    -0.017360    Cartesian   -0.20
    192 x          4.405902      4.412666     0.006764    Cartesian    0.15
    192 y          0.000000      0.005729     0.005729    Cartesian *******
    192 z          8.811805      8.806076    -0.005729    Cartesian   -0.07
    193 x          6.608853      6.607555    -0.001299    Cartesian   -0.02
    193 y          6.608853      6.604287    -0.004566    Cartesian   -0.07
    193 z         11.014756     10.995259    -0.019496    Cartesian   -0.18
    194 x          2.202951      2.216038     0.013087    Cartesian    0.59
    194 y          2.202951      2.205258     0.002307    Cartesian    0.10
    194 z         11.014756     11.024141     0.009386    Cartesian    0.09
    195 x         -2.202951     -2.281625    -0.078674    Cartesian    3.57
    195 y          2.202951      2.133177    -0.069774    Cartesian   -3.17
    195 z          6.608853      6.678628     0.069774    Cartesian    1.06
    196 x         11.014756     11.035191     0.020435    Cartesian    0.19
    196 y          6.608853      6.569662    -0.039192    Cartesian   -0.59
    196 z          2.202951      2.242143     0.039192    Cartesian    1.78
    197 x          8.811805      8.813230     0.001426    Cartesian    0.02
    197 y          8.811805      8.814604     0.002799    Cartesian    0.03
    197 z          0.000000     -0.002799    -0.002799    Cartesian *******
    198 x          0.000000     -0.012101    -0.012101    Cartesian *******
    198 y          8.811805      8.816671     0.004866    Cartesian    0.06
    198 z          8.811805      8.816671     0.004866    Cartesian    0.06
    199 x          4.405902      4.408692     0.002790    Cartesian    0.06
    199 y          4.405902      4.405902     0.000000    Cartesian    0.00
    199 z         13.217707     13.202203    -0.015504    Cartesian   -0.12
    200 x         13.217707     13.249471     0.031764    Cartesian    0.24
    200 y          4.405902      4.405902     0.000000    Cartesian    0.00
    200 z          4.405902      4.405902     0.000000    Cartesian    0.00
    201 x         -4.405902     -4.468906    -0.063003    Cartesian    1.43
    201 y          4.405902      4.405902     0.000000    Cartesian    0.00
    201 z          4.405902      4.405902     0.000000    Cartesian    0.00
    202 x         11.014756     11.024174     0.009418    Cartesian    0.09
    202 y          6.608853      6.612063     0.003209    Cartesian    0.05
    202 z         11.014756     11.009822    -0.004934    Cartesian   -0.04
    203 x         -2.202951     -2.200479     0.002473    Cartesian   -0.11
    203 y          2.202951      2.197209    -0.005742    Cartesian   -0.26
    203 z         11.014756     11.033245     0.018490    Cartesian    0.17
    204 x          2.202951      2.215953     0.013002    Cartesian    0.59
    204 y         11.014756     11.013992    -0.000764    Cartesian   -0.01
    204 z         11.014756     11.013992    -0.000764    Cartesian   -0.01
    205 x          6.608853      6.620969     0.012116    Cartesian    0.18
    205 y         11.014756     11.009882    -0.004874    Cartesian   -0.04
    205 z         11.014756     11.009882    -0.004874    Cartesian   -0.04
    206 x         -4.405902     -4.405826     0.000076    Cartesian   -0.00
    206 y          4.405902      4.405902     0.000000    Cartesian    0.00
    206 z          8.811805      8.802678    -0.009127    Cartesian   -0.10
    207 x          0.000000     -0.008204    -0.008204    Cartesian *******
    207 y          4.405902      4.405902     0.000000    Cartesian    0.00
    207 z         13.217707     13.206240    -0.011467    Cartesian   -0.09
    208 x         13.217707     13.230290     0.012583    Cartesian    0.10
    208 y          4.405902      4.405902     0.000000    Cartesian    0.00
    208 z          8.811805      8.831963     0.020158    Cartesian    0.23
    209 x          8.811805      8.802942    -0.008862    Cartesian   -0.10
    209 y          4.405902      4.405902     0.000000    Cartesian    0.00
    209 z         -4.405902     -4.404631     0.001271    Cartesian   -0.03
    210 x          4.405902      4.405106    -0.000796    Cartesian   -0.02
    210 y          0.000000      0.001668     0.001668    Cartesian *******
    210 z         13.217707     13.213860    -0.003847    Cartesian   -0.03
    211 x         -4.405902     -4.418305    -0.012403    Cartesian    0.28
    211 y          0.000000     -0.010404    -0.010404    Cartesian *******
    211 z          8.811805      8.822209     0.010404    Cartesian    0.12
    212 x          0.000000     -0.000308    -0.000308    Cartesian *******
    212 y          0.000000     -0.000345    -0.000345    Cartesian *******
    212 z         13.217707     13.217548    -0.000159    Cartesian   -0.00
    213 x          8.811805      8.811442    -0.000362    Cartesian   -0.00
    213 y          0.000000      0.001477     0.001477    Cartesian *******
    213 z         -4.405902     -4.405279     0.000623    Cartesian   -0.01
    214 x         13.217707     13.215904    -0.001803    Cartesian   -0.01
    214 y          0.000000      0.002443     0.002443    Cartesian *******
    214 z          8.811805      8.809361    -0.002443    Cartesian   -0.03
    215 x          6.608853      6.616352     0.007499    Cartesian    0.11
    215 y          6.608853      6.608177    -0.000676    Cartesian   -0.01
    215 z         15.420658     15.416843    -0.003816    Cartesian   -0.02
    216 x         15.420658     15.422429     0.001771    Cartesian    0.01
    216 y          6.608853      6.611873     0.003019    Cartesian    0.05
    216 z          6.608853      6.611873     0.003019    Cartesian    0.05
    217 x         -6.608853     -6.631642    -0.022789    Cartesian    0.34
    217 y          2.202951      2.203009     0.000058    Cartesian    0.00
    217 z          6.608853      6.608796    -0.000058    Cartesian   -0.00
    218 x         11.014756     11.017323     0.002567    Cartesian    0.02
    218 y         -2.202951     -2.198409     0.004542    Cartesian   -0.21
    218 z         11.014756     11.010214    -0.004542    Cartesian   -0.04
    219 x          2.202951      2.210431     0.007480    Cartesian    0.34
    219 y          2.202951      2.203209     0.000258    Cartesian    0.01
    219 z         15.420658     15.419996    -0.000662    Cartesian   -0.00
    220 x         -2.202951     -2.201415     0.001536    Cartesian   -0.07
    220 y         11.014756     11.025813     0.011057    Cartesian    0.10
    220 z         11.014756     11.025813     0.011057    Cartesian    0.10
    221 x         13.217707     13.219669     0.001962    Cartesian    0.01
    221 y          4.405902      4.405902     0.000000    Cartesian    0.00
    221 z         13.217707     13.218050     0.000343    Cartesian    0.00
    222 x         -4.405902     -4.403689     0.002213    Cartesian   -0.05
    222 y          4.405902      4.405902     0.000000    Cartesian    0.00
    222 z         13.217707     13.219142     0.001436    Cartesian    0.01
    223 x          4.405902      4.407230     0.001328    Cartesian    0.03
    223 y         -4.405902     -4.404554     0.001349    Cartesian   -0.03
    223 z         13.217707     13.216358    -0.001349    Cartesian   -0.01
    224 x         -2.202951     -2.197483     0.005468    Cartesian   -0.25
    224 y          2.202951      2.202716    -0.000235    Cartesian   -0.01
    224 z         15.420658     15.424157     0.003499    Cartesian    0.02
    225 x          6.608853      6.615763     0.006909    Cartesian    0.10
    225 y         -2.202951     -2.201203     0.001749    Cartesian   -0.08
    225 z         15.420658     15.417892    -0.002766    Cartesian   -0.02
    226 x         15.420658     15.423572     0.002914    Cartesian    0.02
    226 y          6.608853      6.604751    -0.004103    Cartesian   -0.06
    226 z         11.014756     11.011952    -0.002804    Cartesian   -0.03
    227 x         -6.608853     -6.614585    -0.005732    Cartesian    0.09
    227 y          2.202951      2.200599    -0.002352    Cartesian   -0.11
    227 z         11.014756     11.023044     0.008288    Cartesian    0.08
    228 x         11.014756     11.018335     0.003579    Cartesian    0.03
    228 y          6.608853      6.608158    -0.000695    Cartesian   -0.01
    228 z         15.420658     15.417652    -0.003006    Cartesian   -0.02
    229 x          2.202951      2.210057     0.007106    Cartesian    0.32
    229 y         11.014756     11.014856     0.000100    Cartesian    0.00
    229 z         15.420658     15.420818     0.000160    Cartesian    0.00
    230 x         -8.811805     -8.828306    -0.016502    Cartesian    0.19
    230 y          4.405902      4.405902     0.000000    Cartesian    0.00
    230 z          4.405902      4.405902     0.000000    Cartesian    0.00
    231 x          4.405902      4.403185    -0.002717    Cartesian   -0.06
    231 y          4.405902      4.405902     0.000000    Cartesian    0.00
    231 z         17.623609     17.618055    -0.005554    Cartesian   -0.03
    232 x         17.623609     17.634634     0.011024    Cartesian    0.06
    232 y          4.405902      4.405902     0.000000    Cartesian    0.00
    232 z          4.405902      4.405902     0.000000    Cartesian    0.00
    233 x         -4.405902     -4.408279    -0.002377    Cartesian    0.05
    233 y          0.000000     -0.000247    -0.000247    Cartesian *******
    233 z         13.217707     13.219381     0.001674    Cartesian    0.01
    234 x         13.217707     13.217128    -0.000579    Cartesian   -0.00
    234 y          0.000000     -0.000615    -0.000615    Cartesian *******
    234 z         13.217707     13.219207     0.001500    Cartesian    0.01
    235 x          0.000000      0.000175     0.000175    Cartesian *******
    235 y         -4.405902     -4.405434     0.000468    Cartesian   -0.01
    235 z         13.217707     13.217239    -0.000468    Cartesian   -0.00
    236 x          8.811805      8.811031    -0.000773    Cartesian   -0.01
    236 y         -4.405902     -4.406304    -0.000401    Cartesian    0.01
    236 z         -4.405902     -4.406304    -0.000401    Cartesian    0.01
    237 x         17.623609     17.626783     0.003174    Cartesian    0.02
    237 y          4.405902      4.405902     0.000000    Cartesian    0.00
    237 z          8.811805      8.809860    -0.001944    Cartesian   -0.02
    238 x         -0.000000      0.007603     0.007603    Cartesian *******
    238 y          4.405902      4.405902     0.000000    Cartesian    0.00
    238 z         17.623609     17.621659    -0.001950    Cartesian   -0.01
    239 x         -8.811805     -8.814336    -0.002532    Cartesian    0.03
    239 y          0.000000     -0.006676    -0.006676    Cartesian *******
    239 z          4.405902      4.405902     0.000000    Cartesian    0.00
    240 x          8.811805      8.817838     0.006033    Cartesian    0.07
    240 y          4.405902      4.405902     0.000000    Cartesian    0.00
    240 z         17.623609     17.621229    -0.002380    Cartesian   -0.01
    241 x          4.405902      4.406901     0.000998    Cartesian    0.02
    241 y          0.000000      0.000552     0.000552    Cartesian *******
    241 z         17.623609     17.622298    -0.001311    Cartesian   -0.01
    242 x         -2.202951     -2.197884     0.005067    Cartesian   -0.23
    242 y         11.014756     11.016391     0.001635    Cartesian    0.01
    242 z         15.420658     15.424017     0.003359    Cartesian    0.02
    243 x         15.420658     15.421419     0.000761    Cartesian    0.00
    243 y         -2.202951     -2.199900     0.003051    Cartesian   -0.14
    243 z         11.014756     11.011705    -0.003051    Cartesian   -0.03
    244 x         -6.608853     -6.609981    -0.001127    Cartesian    0.02
    244 y         11.014756     11.022140     0.007385    Cartesian    0.07
    244 z         11.014756     11.022140     0.007385    Cartesian    0.07
    245 x         11.014756     11.018545     0.003790    Cartesian    0.03
    245 y         -2.202951     -2.200823     0.002128    Cartesian   -0.10
    245 z         15.420658     15.417830    -0.002828    Cartesian   -0.02
    246 x         17.623609     17.624474     0.000864    Cartesian    0.00
    246 y          8.811805      8.812814     0.001010    Cartesian    0.01
    246 z          0.000000     -0.001010    -0.001010    Cartesian *******
    247 x         -8.811805     -8.813461    -0.001656    Cartesian    0.02
    247 y          8.811805      8.812391     0.000586    Cartesian    0.01
    247 z          8.811805      8.812391     0.000586    Cartesian    0.01
    248 x          8.811805      8.810666    -0.001139    Cartesian   -0.01
    248 y          8.811805      8.811899     0.000094    Cartesian    0.00
    248 z         -8.811805     -8.811749     0.000055    Cartesian   -0.00
    249 x          0.000000     -0.000192    -0.000192    Cartesian *******
    249 y          8.811805      8.810942    -0.000862    Cartesian   -0.01
    249 z         17.623609     17.623208    -0.000401    Cartesian   -0.00
    250 x         -4.405902     -4.405319     0.000583    Cartesian   -0.01
    250 y         -4.405902     -4.407465    -0.001563    Cartesian    0.04
    250 z         13.217707     13.219270     0.001563    Cartesian    0.01
    251 x         13.217707     13.218242     0.000535    Cartesian    0.00
    251 y         -4.405902     -4.405206     0.000696    Cartesian   -0.02
    251 z         13.217707     13.217011    -0.000696    Cartesian   -0.01
    252 x         15.420658     15.423283     0.002625    Cartesian    0.02
    252 y          6.608853      6.607869    -0.000984    Cartesian   -0.01
    252 z         15.420658     15.417734    -0.002924    Cartesian   -0.02
    253 x          2.202951      2.206275     0.003324    Cartesian    0.15
    253 y          2.202951      2.206010     0.003059    Cartesian    0.14
    253 z         19.826560     19.826374    -0.000187    Cartesian   -0.00
    254 x         19.826560     19.826625     0.000064    Cartesian    0.00
    254 y          6.608853      6.607658    -0.001195    Cartesian   -0.02
    254 z          2.202951      2.204146     0.001195    Cartesian    0.05
    255 x          6.608853      6.611405     0.002552    Cartesian    0.04
    255 y          2.202951      2.201452    -0.001499    Cartesian   -0.07
    255 z         19.826560     19.826154    -0.000406    Cartesian   -0.00
    256 x        -11.014756    -11.018656    -0.003900    Cartesian    0.04
    256 y          2.202951      2.199651    -0.003300    Cartesian   -0.15
    256 z          6.608853      6.612153     0.003300    Cartesian    0.05
    257 x         -6.608853     -6.606816     0.002037    Cartesian   -0.03
    257 y          2.202951      2.202472    -0.000480    Cartesian   -0.02
    257 z         15.420658     15.426221     0.005563    Cartesian    0.04
    258 x          6.608853      6.613496     0.004643    Cartesian    0.07
    258 y         15.420658     15.419588    -0.001070    Cartesian   -0.01
    258 z         15.420658     15.419588    -0.001070    Cartesian   -0.01
    259 x          2.202951      2.207366     0.004415    Cartesian    0.20
    259 y         -6.608853     -6.609353    -0.000500    Cartesian    0.01
    259 z         15.420658     15.421158     0.000500    Cartesian    0.00
    260 x         -4.405902     -4.408762    -0.002859    Cartesian    0.06
    260 y          4.405902      4.405902     0.000000    Cartesian    0.00
    260 z         17.623609     17.620646    -0.002964    Cartesian   -0.02
    261 x         -8.811805     -8.814237    -0.002433    Cartesian    0.03
    261 y          4.405902      4.405902     0.000000    Cartesian    0.00
    261 z         13.217707     13.215969    -0.001738    Cartesian   -0.01
    262 x         17.623609     17.622507    -0.001102    Cartesian   -0.01
    262 y          4.405902      4.405902     0.000000    Cartesian    0.00
    262 z         -4.405902     -4.409479    -0.003577    Cartesian    0.08
    263 x         13.217707     13.214496    -0.003210    Cartesian   -0.02
    263 y          4.405902      4.405902     0.000000    Cartesian    0.00
    263 z         17.623609     17.625969     0.002360    Cartesian    0.01
    264 x          4.405902      4.406302     0.000399    Cartesian    0.01
    264 y         -4.405902     -4.405605     0.000297    Cartesian   -0.01
    264 z         17.623609     17.623141    -0.000468    Cartesian   -0.00
--------------------------------------------------------------------------------


  Time to end of optimisation  =      103.7446 seconds


  Peak dynamic memory used =     374.22 MB 


  Timing analysis for GULP :

--------------------------------------------------------------------------------
  Task / Subroutine                                          Time (Seconds)
--------------------------------------------------------------------------------
  Calculation of reciprocal space energy and derivatives          0.0399
  Calculation of real space energy and derivatives                0.3831
  Calculation for region 1 energy and derivatives (2-b)          49.1949
  Calculation for region 2a energy                               47.3122
  Calculation and manipulation of Hessian matrix                  5.9802
  Calculation of matrix inversion                                 0.4071
  Symmetry generation of equivalent positions                     0.0028
--------------------------------------------------------------------------------
  Total CPU time                                                103.7446
--------------------------------------------------------------------------------


  Dump file written as Na3OCl.grs


  Job Finished at 13:58.56  5th February   2021                               

