 # Na373 Mg1 Cl125 O125
 
         624  atoms
           4  atom types
 
      0.000000000000      22.505000000000  xlo xhi
      0.000000000000      22.505000000000  ylo yhi
      0.000000000000      22.505000000000  zlo zhi
 
Masses
 
            1   24.30500000             # Mg
            2   22.98976928             # Na
            3   15.99900000             # O
            4   35.45000000             # Cl
 
Atoms # charge
 
         1    1   2.000000        2.250500000000       2.250500000000       0.000000000000
         2    2   1.000000        2.250500000000       2.250500000000       4.501000000000
         3    2   1.000000        2.250500000000       2.250500000000       9.002000000000
         4    2   1.000000        2.250500000000       2.250500000000      13.503000000000
         5    2   1.000000        2.250500000000       2.250500000000      18.004000000000
         6    2   1.000000        2.250500000000       6.751500000000       0.000000000000
         7    2   1.000000        2.250500000000       6.751500000000       4.501000000000
         8    2   1.000000        2.250500000000       6.751500000000       9.002000000000
         9    2   1.000000        2.250500000000       6.751500000000      13.503000000000
        10    2   1.000000        2.250500000000       6.751500000000      18.004000000000
        11    2   1.000000        2.250500000000      11.252500000000       0.000000000000
        12    2   1.000000        2.250500000000      11.252500000000       4.501000000000
        13    2   1.000000        2.250500000000      11.252500000000       9.002000000000
        14    2   1.000000        2.250500000000      11.252500000000      13.503000000000
        15    2   1.000000        2.250500000000      11.252500000000      18.004000000000
        16    2   1.000000        2.250500000000      15.753500000000       0.000000000000
        17    2   1.000000        2.250500000000      15.753500000000       4.501000000000
        18    2   1.000000        2.250500000000      15.753500000000       9.002000000000
        19    2   1.000000        2.250500000000      15.753500000000      13.503000000000
        20    2   1.000000        2.250500000000      15.753500000000      18.004000000000
        21    2   1.000000        2.250500000000      20.254500000000       0.000000000000
        22    2   1.000000        2.250500000000      20.254500000000       4.501000000000
        23    2   1.000000        2.250500000000      20.254500000000       9.002000000000
        24    2   1.000000        2.250500000000      20.254500000000      13.503000000000
        25    2   1.000000        2.250500000000      20.254500000000      18.004000000000
        26    2   1.000000        6.751500000000       2.250500000000       0.000000000000
        27    2   1.000000        6.751500000000       2.250500000000       4.501000000000
        28    2   1.000000        6.751500000000       2.250500000000       9.002000000000
        29    2   1.000000        6.751500000000       2.250500000000      13.503000000000
        30    2   1.000000        6.751500000000       2.250500000000      18.004000000000
        31    2   1.000000        6.751500000000       6.751500000000       0.000000000000
        32    2   1.000000        6.751500000000       6.751500000000       4.501000000000
        33    2   1.000000        6.751500000000       6.751500000000       9.002000000000
        34    2   1.000000        6.751500000000       6.751500000000      13.503000000000
        35    2   1.000000        6.751500000000       6.751500000000      18.004000000000
        36    2   1.000000        6.751500000000      11.252500000000       0.000000000000
        37    2   1.000000        6.751500000000      11.252500000000       4.501000000000
        38    2   1.000000        6.751500000000      11.252500000000       9.002000000000
        39    2   1.000000        6.751500000000      11.252500000000      13.503000000000
        40    2   1.000000        6.751500000000      11.252500000000      18.004000000000
        41    2   1.000000        6.751500000000      15.753500000000       0.000000000000
        42    2   1.000000        6.751500000000      15.753500000000       4.501000000000
        43    2   1.000000        6.751500000000      15.753500000000       9.002000000000
        44    2   1.000000        6.751500000000      15.753500000000      13.503000000000
        45    2   1.000000        6.751500000000      15.753500000000      18.004000000000
        46    2   1.000000        6.751500000000      20.254500000000       0.000000000000
        47    2   1.000000        6.751500000000      20.254500000000       4.501000000000
        48    2   1.000000        6.751500000000      20.254500000000       9.002000000000
        49    2   1.000000        6.751500000000      20.254500000000      13.503000000000
        50    2   1.000000        6.751500000000      20.254500000000      18.004000000000
        51    2   1.000000       11.252500000000       2.250500000000       0.000000000000
        52    2   1.000000       11.252500000000       2.250500000000       4.501000000000
        53    2   1.000000       11.252500000000       2.250500000000       9.002000000000
        54    2   1.000000       11.252500000000       2.250500000000      13.503000000000
        55    2   1.000000       11.252500000000       2.250500000000      18.004000000000
        56    2   1.000000       11.252500000000       6.751500000000       0.000000000000
        57    2   1.000000       11.252500000000       6.751500000000       4.501000000000
        58    2   1.000000       11.252500000000       6.751500000000       9.002000000000
        59    2   1.000000       11.252500000000       6.751500000000      13.503000000000
        60    2   1.000000       11.252500000000       6.751500000000      18.004000000000
        61    2   1.000000       11.252500000000      11.252500000000       0.000000000000
        62    2   1.000000       11.252500000000      11.252500000000       4.501000000000
        63    2   1.000000       11.252500000000      11.252500000000       9.002000000000
        64    2   1.000000       11.252500000000      11.252500000000      13.503000000000
        65    2   1.000000       11.252500000000      11.252500000000      18.004000000000
        66    2   1.000000       11.252500000000      15.753500000000       0.000000000000
        67    2   1.000000       11.252500000000      15.753500000000       4.501000000000
        68    2   1.000000       11.252500000000      15.753500000000       9.002000000000
        69    2   1.000000       11.252500000000      15.753500000000      13.503000000000
        70    2   1.000000       11.252500000000      15.753500000000      18.004000000000
        71    2   1.000000       11.252500000000      20.254500000000       0.000000000000
        72    2   1.000000       11.252500000000      20.254500000000       4.501000000000
        73    2   1.000000       11.252500000000      20.254500000000       9.002000000000
        74    2   1.000000       11.252500000000      20.254500000000      13.503000000000
        75    2   1.000000       11.252500000000      20.254500000000      18.004000000000
        76    2   1.000000       15.753500000000       2.250500000000       0.000000000000
        77    2   1.000000       15.753500000000       2.250500000000       4.501000000000
        78    2   1.000000       15.753500000000       2.250500000000       9.002000000000
        79    2   1.000000       15.753500000000       2.250500000000      13.503000000000
        80    2   1.000000       15.753500000000       2.250500000000      18.004000000000
        81    2   1.000000       15.753500000000       6.751500000000       0.000000000000
        82    2   1.000000       15.753500000000       6.751500000000       4.501000000000
        83    2   1.000000       15.753500000000       6.751500000000       9.002000000000
        84    2   1.000000       15.753500000000       6.751500000000      13.503000000000
        85    2   1.000000       15.753500000000       6.751500000000      18.004000000000
        86    2   1.000000       15.753500000000      11.252500000000       0.000000000000
        87    2   1.000000       15.753500000000      11.252500000000       4.501000000000
        88    2   1.000000       15.753500000000      11.252500000000       9.002000000000
        89    2   1.000000       15.753500000000      11.252500000000      13.503000000000
        90    2   1.000000       15.753500000000      11.252500000000      18.004000000000
        91    2   1.000000       15.753500000000      15.753500000000       0.000000000000
        92    2   1.000000       15.753500000000      15.753500000000       4.501000000000
        93    2   1.000000       15.753500000000      15.753500000000       9.002000000000
        94    2   1.000000       15.753500000000      15.753500000000      13.503000000000
        95    2   1.000000       15.753500000000      15.753500000000      18.004000000000
        96    2   1.000000       15.753500000000      20.254500000000       0.000000000000
        97    2   1.000000       15.753500000000      20.254500000000       4.501000000000
        98    2   1.000000       15.753500000000      20.254500000000       9.002000000000
        99    2   1.000000       15.753500000000      20.254500000000      13.503000000000
       100    2   1.000000       15.753500000000      20.254500000000      18.004000000000
       101    2   1.000000       20.254500000000       2.250500000000       0.000000000000
       102    2   1.000000       20.254500000000       2.250500000000       4.501000000000
       103    2   1.000000       20.254500000000       2.250500000000       9.002000000000
       104    2   1.000000       20.254500000000       2.250500000000      13.503000000000
       105    2   1.000000       20.254500000000       2.250500000000      18.004000000000
       106    2   1.000000       20.254500000000       6.751500000000       0.000000000000
       107    2   1.000000       20.254500000000       6.751500000000       4.501000000000
       108    2   1.000000       20.254500000000       6.751500000000       9.002000000000
       109    2   1.000000       20.254500000000       6.751500000000      13.503000000000
       110    2   1.000000       20.254500000000       6.751500000000      18.004000000000
       111    2   1.000000       20.254500000000      11.252500000000       0.000000000000
       112    2   1.000000       20.254500000000      11.252500000000       4.501000000000
       113    2   1.000000       20.254500000000      11.252500000000       9.002000000000
       114    2   1.000000       20.254500000000      11.252500000000      13.503000000000
       115    2   1.000000       20.254500000000      11.252500000000      18.004000000000
       116    2   1.000000       20.254500000000      15.753500000000       0.000000000000
       117    2   1.000000       20.254500000000      15.753500000000       4.501000000000
       118    2   1.000000       20.254500000000      15.753500000000       9.002000000000
       119    2   1.000000       20.254500000000      15.753500000000      13.503000000000
       120    2   1.000000       20.254500000000      15.753500000000      18.004000000000
       121    2   1.000000       20.254500000000      20.254500000000       0.000000000000
       122    2   1.000000       20.254500000000      20.254500000000       4.501000000000
       123    2   1.000000       20.254500000000      20.254500000000       9.002000000000
       124    2   1.000000       20.254500000000      20.254500000000      13.503000000000
       125    2   1.000000       20.254500000000      20.254500000000      18.004000000000
       126    2   1.000000        2.250500000000       0.000000000000       2.250500000000
       127    2   1.000000        2.250500000000       0.000000000000       6.751500000000
       128    2   1.000000        2.250500000000       0.000000000000      11.252500000000
       129    2   1.000000        2.250500000000       0.000000000000      15.753500000000
       130    2   1.000000        2.250500000000       0.000000000000      20.254500000000
       131    2   1.000000        2.250500000000       4.501000000000       2.250500000000
       132    2   1.000000        2.250500000000       4.501000000000       6.751500000000
       133    2   1.000000        2.250500000000       4.501000000000      11.252500000000
       134    2   1.000000        2.250500000000       4.501000000000      15.753500000000
       135    2   1.000000        2.250500000000       4.501000000000      20.254500000000
       136    2   1.000000        2.250500000000       9.002000000000       2.250500000000
       137    2   1.000000        2.250500000000       9.002000000000       6.751500000000
       138    2   1.000000        2.250500000000       9.002000000000      11.252500000000
       139    2   1.000000        2.250500000000       9.002000000000      15.753500000000
       140    2   1.000000        2.250500000000       9.002000000000      20.254500000000
       141    2   1.000000        2.250500000000      13.503000000000       2.250500000000
       142    2   1.000000        2.250500000000      13.503000000000       6.751500000000
       143    2   1.000000        2.250500000000      13.503000000000      11.252500000000
       144    2   1.000000        2.250500000000      13.503000000000      15.753500000000
       145    2   1.000000        2.250500000000      13.503000000000      20.254500000000
       146    2   1.000000        2.250500000000      18.004000000000       2.250500000000
       147    2   1.000000        2.250500000000      18.004000000000       6.751500000000
       148    2   1.000000        2.250500000000      18.004000000000      11.252500000000
       149    2   1.000000        2.250500000000      18.004000000000      15.753500000000
       150    2   1.000000        2.250500000000      18.004000000000      20.254500000000
       151    2   1.000000        6.751500000000       0.000000000000       2.250500000000
       152    2   1.000000        6.751500000000       0.000000000000       6.751500000000
       153    2   1.000000        6.751500000000       0.000000000000      11.252500000000
       154    2   1.000000        6.751500000000       0.000000000000      15.753500000000
       155    2   1.000000        6.751500000000       0.000000000000      20.254500000000
       156    2   1.000000        6.751500000000       4.501000000000       2.250500000000
       157    2   1.000000        6.751500000000       4.501000000000       6.751500000000
       158    2   1.000000        6.751500000000       4.501000000000      11.252500000000
       159    2   1.000000        6.751500000000       4.501000000000      15.753500000000
       160    2   1.000000        6.751500000000       4.501000000000      20.254500000000
       161    2   1.000000        6.751500000000       9.002000000000       2.250500000000
       162    2   1.000000        6.751500000000       9.002000000000       6.751500000000
       163    2   1.000000        6.751500000000       9.002000000000      11.252500000000
       164    2   1.000000        6.751500000000       9.002000000000      15.753500000000
       165    2   1.000000        6.751500000000       9.002000000000      20.254500000000
       166    2   1.000000        6.751500000000      13.503000000000       2.250500000000
       167    2   1.000000        6.751500000000      13.503000000000       6.751500000000
       168    2   1.000000        6.751500000000      13.503000000000      11.252500000000
       169    2   1.000000        6.751500000000      13.503000000000      15.753500000000
       170    2   1.000000        6.751500000000      13.503000000000      20.254500000000
       171    2   1.000000        6.751500000000      18.004000000000       2.250500000000
       172    2   1.000000        6.751500000000      18.004000000000       6.751500000000
       173    2   1.000000        6.751500000000      18.004000000000      11.252500000000
       174    2   1.000000        6.751500000000      18.004000000000      15.753500000000
       175    2   1.000000        6.751500000000      18.004000000000      20.254500000000
       176    2   1.000000       11.252500000000       0.000000000000       2.250500000000
       177    2   1.000000       11.252500000000       0.000000000000       6.751500000000
       178    2   1.000000       11.252500000000       0.000000000000      11.252500000000
       179    2   1.000000       11.252500000000       0.000000000000      15.753500000000
       180    2   1.000000       11.252500000000       4.501000000000       2.250500000000
       181    2   1.000000       11.252500000000       4.501000000000       6.751500000000
       182    2   1.000000       11.252500000000       4.501000000000      11.252500000000
       183    2   1.000000       11.252500000000       4.501000000000      15.753500000000
       184    2   1.000000       11.252500000000       4.501000000000      20.254500000000
       185    2   1.000000       11.252500000000       9.002000000000       2.250500000000
       186    2   1.000000       11.252500000000       9.002000000000       6.751500000000
       187    2   1.000000       11.252500000000       9.002000000000      11.252500000000
       188    2   1.000000       11.252500000000       9.002000000000      15.753500000000
       189    2   1.000000       11.252500000000       9.002000000000      20.254500000000
       190    2   1.000000       11.252500000000      13.503000000000       2.250500000000
       191    2   1.000000       11.252500000000      13.503000000000       6.751500000000
       192    2   1.000000       11.252500000000      13.503000000000      11.252500000000
       193    2   1.000000       11.252500000000      13.503000000000      15.753500000000
       194    2   1.000000       11.252500000000      13.503000000000      20.254500000000
       195    2   1.000000       11.252500000000      18.004000000000       2.250500000000
       196    2   1.000000       11.252500000000      18.004000000000       6.751500000000
       197    2   1.000000       11.252500000000      18.004000000000      11.252500000000
       198    2   1.000000       11.252500000000      18.004000000000      15.753500000000
       199    2   1.000000       11.252500000000      18.004000000000      20.254500000000
       200    2   1.000000       15.753500000000       0.000000000000       2.250500000000
       201    2   1.000000       15.753500000000       0.000000000000       6.751500000000
       202    2   1.000000       15.753500000000       0.000000000000      11.252500000000
       203    2   1.000000       15.753500000000       0.000000000000      15.753500000000
       204    2   1.000000       15.753500000000       0.000000000000      20.254500000000
       205    2   1.000000       15.753500000000       4.501000000000       2.250500000000
       206    2   1.000000       15.753500000000       4.501000000000       6.751500000000
       207    2   1.000000       15.753500000000       4.501000000000      11.252500000000
       208    2   1.000000       15.753500000000       4.501000000000      15.753500000000
       209    2   1.000000       15.753500000000       4.501000000000      20.254500000000
       210    2   1.000000       15.753500000000       9.002000000000       2.250500000000
       211    2   1.000000       15.753500000000       9.002000000000       6.751500000000
       212    2   1.000000       15.753500000000       9.002000000000      11.252500000000
       213    2   1.000000       15.753500000000       9.002000000000      15.753500000000
       214    2   1.000000       15.753500000000       9.002000000000      20.254500000000
       215    2   1.000000       15.753500000000      13.503000000000       2.250500000000
       216    2   1.000000       15.753500000000      13.503000000000       6.751500000000
       217    2   1.000000       15.753500000000      13.503000000000      11.252500000000
       218    2   1.000000       15.753500000000      13.503000000000      15.753500000000
       219    2   1.000000       15.753500000000      13.503000000000      20.254500000000
       220    2   1.000000       15.753500000000      18.004000000000       2.250500000000
       221    2   1.000000       15.753500000000      18.004000000000       6.751500000000
       222    2   1.000000       15.753500000000      18.004000000000      11.252500000000
       223    2   1.000000       15.753500000000      18.004000000000      15.753500000000
       224    2   1.000000       15.753500000000      18.004000000000      20.254500000000
       225    2   1.000000       20.254500000000       0.000000000000       2.250500000000
       226    2   1.000000       20.254500000000       0.000000000000       6.751500000000
       227    2   1.000000       20.254500000000       0.000000000000      11.252500000000
       228    2   1.000000       20.254500000000       0.000000000000      15.753500000000
       229    2   1.000000       20.254500000000       0.000000000000      20.254500000000
       230    2   1.000000       20.254500000000       4.501000000000       2.250500000000
       231    2   1.000000       20.254500000000       4.501000000000       6.751500000000
       232    2   1.000000       20.254500000000       4.501000000000      11.252500000000
       233    2   1.000000       20.254500000000       4.501000000000      15.753500000000
       234    2   1.000000       20.254500000000       4.501000000000      20.254500000000
       235    2   1.000000       20.254500000000       9.002000000000       2.250500000000
       236    2   1.000000       20.254500000000       9.002000000000       6.751500000000
       237    2   1.000000       20.254500000000       9.002000000000      11.252500000000
       238    2   1.000000       20.254500000000       9.002000000000      15.753500000000
       239    2   1.000000       20.254500000000       9.002000000000      20.254500000000
       240    2   1.000000       20.254500000000      13.503000000000       2.250500000000
       241    2   1.000000       20.254500000000      13.503000000000       6.751500000000
       242    2   1.000000       20.254500000000      13.503000000000      11.252500000000
       243    2   1.000000       20.254500000000      13.503000000000      15.753500000000
       244    2   1.000000       20.254500000000      13.503000000000      20.254500000000
       245    2   1.000000       20.254500000000      18.004000000000       2.250500000000
       246    2   1.000000       20.254500000000      18.004000000000       6.751500000000
       247    2   1.000000       20.254500000000      18.004000000000      11.252500000000
       248    2   1.000000       20.254500000000      18.004000000000      15.753500000000
       249    2   1.000000       20.254500000000      18.004000000000      20.254500000000
       250    2   1.000000        0.000000000000       2.250500000000       2.250500000000
       251    2   1.000000        0.000000000000       2.250500000000       6.751500000000
       252    2   1.000000        0.000000000000       2.250500000000      11.252500000000
       253    2   1.000000        0.000000000000       2.250500000000      15.753500000000
       254    2   1.000000        0.000000000000       2.250500000000      20.254500000000
       255    2   1.000000        0.000000000000       6.751500000000       2.250500000000
       256    2   1.000000        0.000000000000       6.751500000000       6.751500000000
       257    2   1.000000        0.000000000000       6.751500000000      11.252500000000
       258    2   1.000000        0.000000000000       6.751500000000      15.753500000000
       259    2   1.000000        0.000000000000       6.751500000000      20.254500000000
       260    2   1.000000        0.000000000000      11.252500000000       2.250500000000
       261    2   1.000000        0.000000000000      11.252500000000       6.751500000000
       262    2   1.000000        0.000000000000      11.252500000000      11.252500000000
       263    2   1.000000        0.000000000000      11.252500000000      15.753500000000
       264    2   1.000000        0.000000000000      11.252500000000      20.254500000000
       265    2   1.000000        0.000000000000      15.753500000000       2.250500000000
       266    2   1.000000        0.000000000000      15.753500000000       6.751500000000
       267    2   1.000000        0.000000000000      15.753500000000      11.252500000000
       268    2   1.000000        0.000000000000      15.753500000000      15.753500000000
       269    2   1.000000        0.000000000000      15.753500000000      20.254500000000
       270    2   1.000000        0.000000000000      20.254500000000       2.250500000000
       271    2   1.000000        0.000000000000      20.254500000000       6.751500000000
       272    2   1.000000        0.000000000000      20.254500000000      11.252500000000
       273    2   1.000000        0.000000000000      20.254500000000      15.753500000000
       274    2   1.000000        0.000000000000      20.254500000000      20.254500000000
       275    2   1.000000        4.501000000000       2.250500000000       2.250500000000
       276    2   1.000000        4.501000000000       2.250500000000       6.751500000000
       277    2   1.000000        4.501000000000       2.250500000000      11.252500000000
       278    2   1.000000        4.501000000000       2.250500000000      15.753500000000
       279    2   1.000000        4.501000000000       2.250500000000      20.254500000000
       280    2   1.000000        4.501000000000       6.751500000000       2.250500000000
       281    2   1.000000        4.501000000000       6.751500000000       6.751500000000
       282    2   1.000000        4.501000000000       6.751500000000      11.252500000000
       283    2   1.000000        4.501000000000       6.751500000000      15.753500000000
       284    2   1.000000        4.501000000000       6.751500000000      20.254500000000
       285    2   1.000000        4.501000000000      11.252500000000       2.250500000000
       286    2   1.000000        4.501000000000      11.252500000000       6.751500000000
       287    2   1.000000        4.501000000000      11.252500000000      11.252500000000
       288    2   1.000000        4.501000000000      11.252500000000      15.753500000000
       289    2   1.000000        4.501000000000      11.252500000000      20.254500000000
       290    2   1.000000        4.501000000000      15.753500000000       2.250500000000
       291    2   1.000000        4.501000000000      15.753500000000       6.751500000000
       292    2   1.000000        4.501000000000      15.753500000000      11.252500000000
       293    2   1.000000        4.501000000000      15.753500000000      15.753500000000
       294    2   1.000000        4.501000000000      15.753500000000      20.254500000000
       295    2   1.000000        4.501000000000      20.254500000000       2.250500000000
       296    2   1.000000        4.501000000000      20.254500000000       6.751500000000
       297    2   1.000000        4.501000000000      20.254500000000      11.252500000000
       298    2   1.000000        4.501000000000      20.254500000000      15.753500000000
       299    2   1.000000        4.501000000000      20.254500000000      20.254500000000
       300    2   1.000000        9.002000000000       2.250500000000       2.250500000000
       301    2   1.000000        9.002000000000       2.250500000000       6.751500000000
       302    2   1.000000        9.002000000000       2.250500000000      11.252500000000
       303    2   1.000000        9.002000000000       2.250500000000      15.753500000000
       304    2   1.000000        9.002000000000       2.250500000000      20.254500000000
       305    2   1.000000        9.002000000000       6.751500000000       2.250500000000
       306    2   1.000000        9.002000000000       6.751500000000       6.751500000000
       307    2   1.000000        9.002000000000       6.751500000000      11.252500000000
       308    2   1.000000        9.002000000000       6.751500000000      15.753500000000
       309    2   1.000000        9.002000000000       6.751500000000      20.254500000000
       310    2   1.000000        9.002000000000      11.252500000000       2.250500000000
       311    2   1.000000        9.002000000000      11.252500000000       6.751500000000
       312    2   1.000000        9.002000000000      11.252500000000      11.252500000000
       313    2   1.000000        9.002000000000      11.252500000000      15.753500000000
       314    2   1.000000        9.002000000000      11.252500000000      20.254500000000
       315    2   1.000000        9.002000000000      15.753500000000       2.250500000000
       316    2   1.000000        9.002000000000      15.753500000000       6.751500000000
       317    2   1.000000        9.002000000000      15.753500000000      11.252500000000
       318    2   1.000000        9.002000000000      15.753500000000      15.753500000000
       319    2   1.000000        9.002000000000      15.753500000000      20.254500000000
       320    2   1.000000        9.002000000000      20.254500000000       2.250500000000
       321    2   1.000000        9.002000000000      20.254500000000       6.751500000000
       322    2   1.000000        9.002000000000      20.254500000000      11.252500000000
       323    2   1.000000        9.002000000000      20.254500000000      15.753500000000
       324    2   1.000000        9.002000000000      20.254500000000      20.254500000000