********************************************************************************
*                       GENERAL UTILITY LATTICE PROGRAM                        *
*                                 Julian Gale                                  *
*                       Curtin Institute for Computation                       *
*                    School of Molecular and Life Sciences                     *
*                    Curtin University, Western Australia                      *
********************************************************************************
* Version = 5.2.0 * Last modified =  10th September 2020                       *
********************************************************************************
*  optimise     - perform optimisation run                                     *
*  conp         - constant pressure calculation                                *
*  property     - calculate properties for final geometry                      *
*  defect       - perform defect calculation after bulk run                    *
*  compare      - compare initial and final structures                         *
********************************************************************************

  Job Started  at 15:16.31  2nd January    2021                               

  Number of CPUs =     1


  Total number of configurations input =      1

********************************************************************************
*  Input for Configuration =   1                                               *
********************************************************************************

  Formula = ClONa3                                                      

  Number of irreducible atoms/shells =       5


  Total number atoms/shells =       7

  Dimensionality = 3               :  Bulk   


  Symmetry :

  Crystal family                   :  Cubic       
  Crystal class  (Groth - 1921)    :  Cubic Hexakisoctahedral              

  Space group (centrosymmetric)    :  P M 3 M         

  Patterson group                  :  P m -3 m 

  Cartesian lattice vectors (Angstroms) :

        4.504000    0.000000    0.000000
        0.000000    4.504000    0.000000
        0.000000    0.000000    4.504000

  Cell parameters (Angstroms/Degrees):

  a =       4.5040    alpha =  90.0000
  b =       4.5040    beta  =  90.0000
  c =       4.5040    gamma =  90.0000

  Initial cell volume =          91.368216 Angs**3

  Temperature of configuration =   0.00     K 

  Pressure of configuration =         0.000 GPa 

  Fractional coordinates of asymmetric unit :

--------------------------------------------------------------------------------
   No.  Atomic       x           y          z         Charge      Occupancy
        Label      (Frac)      (Frac)     (Frac)        (e)         (Frac)  
--------------------------------------------------------------------------------
      1 Cl    c    0.000000    0.000000    0.000000     1.48500    1.000000    
      2 O     c    0.500000    0.500000    0.500000     0.18300    1.000000    
      3 Na    c    0.500000    0.500000    0.000000     1.00000    1.000000    
      4 Cl    s    0.000000    0.000000    0.000000    -2.48500    1.000000    
      5 O     s    0.500000    0.500000    0.500000    -2.18300    1.000000    
--------------------------------------------------------------------------------


  Constraints : 

--------------------------------------------------------------------------------
  Constraint no.      Unconstrained     Constrained    Coefficient    Offset
                         Variable         Variable
--------------------------------------------------------------------------------
           1              Strain 1        Strain 2       1.00000      0.0000
           2              Strain 1        Strain 3       1.00000      0.0000
--------------------------------------------------------------------------------


********************************************************************************
*  General input information                                                   *
********************************************************************************

  Species output for all configurations : 

--------------------------------------------------------------------------------
  Species    Type    Atomic    Atomic    Charge       Radii (Angs)     Library
                     Number     Mass       (e)     Cova   Ionic  VDW   Symbol
--------------------------------------------------------------------------------
    Na       Core       11      22.99   1.000000   0.970  0.000  2.300          
    O        Core        8      16.00   0.183000   0.730  0.000  1.360          
    O        Shell       8       0.00  -2.183000   0.730  0.000  1.360          
    Cl       Core       17      35.45   1.485000   0.990  0.000  1.650          
    Cl       Shell      17       0.00  -2.485000   0.990  0.000  1.650          
    Mg       Core       12      24.31   0.415000   1.100  0.000  0.000          
    Mg       Shell      12       0.00   1.585000   1.100  0.000  0.000          
    Ca       Core       20      40.08  -1.135000   0.990  0.000  0.000          
    Ca       Shell      20       0.00   3.135000   0.990  0.000  0.000          
    Sr       Core       38      87.62  -1.251000   1.120  0.000  0.000          
    Sr       Shell      38       0.00   3.251000   1.120  0.000  0.000          
    Ba       Core       56     137.33  -7.203000   1.340  0.000  0.000          
    Ba       Shell      56       0.00   9.203000   1.340  0.000  0.000          
--------------------------------------------------------------------------------


  Lattice summation method               =    Ewald          (3-D)
                                         =    Parry          (2-D)
                                         =    Saunders et al (1-D)
  Accuracy factor for lattice sums       =   12.000


  Analytic derivatives to be used

  Time limit = Infinity

  Maximum range for interatomic potentials =    100000.000000 Angstroms

  General interatomic potentials :

--------------------------------------------------------------------------------
Atom  Types   Potential      Parameter       Value         Units   Cutoffs(Ang)
  1     2                                                            Min /  Max 
--------------------------------------------------------------------------------
O    c O    s Spring (c-s)  Spring k 2       593.71600    eV*Ang^-2 0.000  0.800
                            Spring k 4       0.0000000    eV*Ang^-4 
--------------------------------------------------------------------------------
Cl   c Cl   s Spring (c-s)  Spring k 2       29.380000    eV*Ang^-2 0.000  0.800
                            Spring k 4       0.0000000    eV*Ang^-4 
--------------------------------------------------------------------------------
Mg   c Mg   s Spring (c-s)  Spring k 2       361.60000    eV*Ang^-2 0.000  0.800
                            Spring k 4       0.0000000    eV*Ang^-4 
--------------------------------------------------------------------------------
Ca   c Ca   s Spring (c-s)  Spring k 2       110.20000    eV*Ang^-2 0.000  0.800
                            Spring k 4       0.0000000    eV*Ang^-4 
--------------------------------------------------------------------------------
Sr   c Sr   s Spring (c-s)  Spring k 2       71.700000    eV*Ang^-2 0.000  0.800
                            Spring k 4       0.0000000    eV*Ang^-4 
--------------------------------------------------------------------------------
Ba   c Ba   s Spring (c-s)  Spring k 2       495.20000    eV*Ang^-2 0.000  0.800
                            Spring k 4       0.0000000    eV*Ang^-4 
--------------------------------------------------------------------------------
Na   c Na   c Buckingham    Buckingham A     1788.1900    eV        0.000 12.000
                            Buckingham rho  0.15900000    Ang       
                            Buckingham C     0.0000000    eV*Ang^6  
--------------------------------------------------------------------------------
Na   c O    s Buckingham    Buckingham A     588.38000    eV        0.000 12.000
                            Buckingham rho  0.33800000    Ang       
                            Buckingham C     0.0000000    eV*Ang^6  
--------------------------------------------------------------------------------
Na   c Cl   s Buckingham    Buckingham A     1170.4100    eV        0.000 12.000
                            Buckingham rho  0.31500000    Ang       
                            Buckingham C     0.0000000    eV*Ang^6  
--------------------------------------------------------------------------------
O    s O    s Buckingham    Buckingham A     22764.300    eV        0.000 12.000
                            Buckingham rho  0.14900000    Ang       
                            Buckingham C     13.190000    eV*Ang^6  
--------------------------------------------------------------------------------
O    s Cl   s Buckingham    Buckingham A     8286.9100    eV        0.000 12.000
                            Buckingham rho  0.25900000    Ang       
                            Buckingham C     62.200000    eV*Ang^6  
--------------------------------------------------------------------------------
Cl   s Cl   s Buckingham    Buckingham A     1227.2000    eV        0.000 12.000
                            Buckingham rho  0.32100000    Ang       
                            Buckingham C     14.530000    eV*Ang^6  
--------------------------------------------------------------------------------
O    s Mg   s Buckingham    Buckingham A     1428.5000    eV        0.000 12.000
                            Buckingham rho  0.29450000    Ang       
                            Buckingham C     0.0000000    eV*Ang^6  
--------------------------------------------------------------------------------
Mg   s Cl   s Buckingham    Buckingham A     4914.5400    eV        0.000 12.000
                            Buckingham rho  0.25700000    Ang       
                            Buckingham C     0.0000000    eV*Ang^6  
--------------------------------------------------------------------------------
O    s Ca   s Buckingham    Buckingham A     1090.4000    eV        0.000 12.000
                            Buckingham rho  0.34370000    Ang       
                            Buckingham C     0.0000000    eV*Ang^6  
--------------------------------------------------------------------------------
Cl   s Ca   s Buckingham    Buckingham A     2302.0000    eV        0.000 12.000
                            Buckingham rho  0.34020000    Ang       
                            Buckingham C     0.0000000    eV*Ang^6  
--------------------------------------------------------------------------------
O    s Sr   s Buckingham    Buckingham A     959.10000    eV        0.000 12.000
                            Buckingham rho  0.37210000    Ang       
                            Buckingham C     0.0000000    eV*Ang^6  
--------------------------------------------------------------------------------
Cl   s Sr   s Buckingham    Buckingham A     2191.0900    eV        0.000 12.000
                            Buckingham rho  0.34570000    Ang       
                            Buckingham C     0.0000000    eV*Ang^6  
--------------------------------------------------------------------------------
O    s Ba   s Buckingham    Buckingham A     905.70000    eV        0.000 12.000
                            Buckingham rho  0.39760000    Ang       
                            Buckingham C     0.0000000    eV*Ang^6  
--------------------------------------------------------------------------------
Cl   s Ba   s Buckingham    Buckingham A     2704.5500    eV        0.000 12.000
                            Buckingham rho  0.35280000    Ang       
                            Buckingham C     0.0000000    eV*Ang^6  
--------------------------------------------------------------------------------

********************************************************************************
*  Output for configuration   1                                                *
********************************************************************************


  Components of energy : 

--------------------------------------------------------------------------------
  Interatomic potentials     =           4.94315381 eV    
  Monopole - monopole (real) =         -10.03624526 eV    
  Monopole - monopole (recip)=         -29.53581274 eV    
  Monopole - monopole (total)=         -39.57205800 eV    
--------------------------------------------------------------------------------
  Total lattice energy       =         -34.62890419 eV    
--------------------------------------------------------------------------------
  Total lattice energy       =           -3341.1599 kJ/(mole unit cells)
--------------------------------------------------------------------------------


  Number of variables =        1

  Maximum number of calculations  =          1000
  Maximum Hessian update interval =            10
  Maximum step size               =   1.000000000
  Maximum parameter tolerance     =   0.000010000
  Maximum function  tolerance     =   0.000010000
  Maximum gradient  tolerance     =   0.001000000
  Maximum gradient  component     =   0.010000000

  Symmetry constrained optimisation

  Symmetry used for second derivatives

  Cell parameters to be optimised using strains

  Newton-Raphson optimiser to be used

  BFGS hessian update to be used

  Lower half triangular hessian to be used

  Start of bulk optimisation :

  Cycle:      0 Energy:       -34.628904  Gnorm:      4.328237  CPU:    0.009
  ** Hessian calculated **
  Cycle:      1 Energy:       -34.677667  Gnorm:      0.044008  CPU:    0.011
  Cycle:      2 Energy:       -34.677671  Gnorm:      0.003653  CPU:    0.013


  **** Optimisation achieved ****


  Final energy =     -34.67767136 eV
  Final Gnorm  =       0.00000010

  Components of energy : 

--------------------------------------------------------------------------------
  Interatomic potentials     =           5.77546103 eV    
  Monopole - monopole (real) =         -10.25970290 eV    
  Monopole - monopole (recip)=         -30.19342950 eV    
  Monopole - monopole (total)=         -40.45313239 eV    
--------------------------------------------------------------------------------
  Total lattice energy       =         -34.67767136 eV    
--------------------------------------------------------------------------------
  Total lattice energy       =           -3345.8652 kJ/(mole unit cells)
--------------------------------------------------------------------------------

  Final asymmetric unit coordinates :

--------------------------------------------------------------------------------
   No.  Atomic        x           y           z         Radius
        Label       (Frac)      (Frac)      (Frac)       (Angs) 
--------------------------------------------------------------------------------
     1  Cl    c     0.000000    0.000000    0.000000    0.000000
     2  O     c     0.500000    0.500000    0.500000    0.000000
     3  Na    c     0.500000    0.500000    0.000000    0.000000
     4  Cl    s     0.000000    0.000000    0.000000    0.000000
     5  O     s     0.500000    0.500000    0.500000    0.000000
--------------------------------------------------------------------------------

  Final Cartesian lattice vectors (Angstroms) :

        4.405902    0.000000    0.000000
        0.000000    4.405902    0.000000
        0.000000    0.000000    4.405902


  Final cell parameters and derivatives :

--------------------------------------------------------------------------------
       a            4.405902 Angstrom     dE/de1(xx)     0.000000 eV/strain
       b            4.405902 Angstrom     dE/de2(yy)     0.000000 eV/strain
       c            4.405902 Angstrom     dE/de3(zz)     0.000000 eV/strain
       alpha       90.000000 Degrees      dE/de4(yz)     0.000000 eV/strain
       beta        90.000000 Degrees      dE/de5(xz)     0.000000 eV/strain
       gamma       90.000000 Degrees      dE/de6(xy)     0.000000 eV/strain
--------------------------------------------------------------------------------

  Primitive cell volume =            85.527266 Angs**3

  Density of cell =      2.338030 g/cm**3

  Non-primitive cell volume =            85.527266 Angs**3


  Final internal derivatives :

--------------------------------------------------------------------------------
   No.  Atomic          a             b             c           Radius
        Label          (eV)          (eV)          (eV)        (eV/Angs)
--------------------------------------------------------------------------------
      1 Cl    c       0.000000      0.000000      0.000000      0.000000
      2 O     c       0.000000      0.000000      0.000000      0.000000
      3 Na    c       0.000000      0.000000      0.000000      0.000000
      4 Cl    s       0.000000      0.000000      0.000000      0.000000
      5 O     s       0.000000      0.000000      0.000000      0.000000
--------------------------------------------------------------------------------
  Maximum abs         0.000000      0.000000      0.000000      0.000000
--------------------------------------------------------------------------------

  Comparison of initial and final structures : 

--------------------------------------------------------------------------------
  Parameter   Initial value   Final value   Difference    Units      Percent
--------------------------------------------------------------------------------
    Volume        91.368216     85.527266    -5.840950    Angs**3     -6.39
    a              4.504000      4.405902    -0.098098    Angstroms   -2.18
    b              4.504000      4.405902    -0.098098    Angstroms   -2.18
    c              4.504000      4.405902    -0.098098    Angstroms   -2.18
    alpha         90.000000     90.000000     0.000000    Degrees      0.00
    beta          90.000000     90.000000     0.000000    Degrees      0.00
    gamma         90.000000     90.000000     0.000000    Degrees      0.00
      1 x          0.000000      0.000000     0.000000    Fractional   0.00
      1 y          0.000000      0.000000     0.000000    Fractional   0.00
      1 z          0.000000      0.000000     0.000000    Fractional   0.00
      2 x          0.500000      0.500000     0.000000    Fractional   0.00
      2 y          0.500000      0.500000     0.000000    Fractional   0.00
      2 z          0.500000      0.500000     0.000000    Fractional   0.00
      3 x          0.500000      0.500000     0.000000    Fractional   0.00
      3 y          0.500000      0.500000     0.000000    Fractional   0.00
      3 z          0.000000      0.000000     0.000000    Fractional   0.00
      4 x          0.000000      0.000000     0.000000    Fractional   0.00
      4 y          0.000000      0.000000     0.000000    Fractional   0.00
      4 z          0.000000      0.000000     0.000000    Fractional   0.00
      5 x          0.500000      0.500000     0.000000    Fractional   0.00
      5 y          0.500000      0.500000     0.000000    Fractional   0.00
      5 z          0.500000      0.500000     0.000000    Fractional   0.00
--------------------------------------------------------------------------------


  Born effective charge tensors : 

-------------------------------------------------------------------------------
  Atom             x           y             z
-------------------------------------------------------------------------------
    1 Cl    x      -0.9918     -0.0000     -0.0000
            y      -0.0000     -0.9918     -0.0000
            z      -0.0000     -0.0000     -0.9918
-------------------------------------------------------------------------------
    2 O     x      -2.2939      0.0000      0.0000
            y       0.0000     -2.2939      0.0000
            z       0.0000      0.0000     -2.2939
-------------------------------------------------------------------------------
    3 Na    x       1.2243      0.0000      0.0000
            y       0.0000      1.2243     -0.0000
            z       0.0000      0.0000      0.8372
-------------------------------------------------------------------------------




  Elastic Constant Matrix: (Units=GPa)

-------------------------------------------------------------------------------
  Indices      1         2         3         4         5         6    
-------------------------------------------------------------------------------
       1     82.7680   24.3534   24.3534   -0.0000    0.0000   -0.0000
       2     24.3534   82.7680   24.3534    0.0000   -0.0000   -0.0000
       3     24.3534   24.3534   82.7680    0.0000   -0.0000    0.0000
       4     -0.0000    0.0000    0.0000   24.3534   -0.0000    0.0000
       5      0.0000   -0.0000   -0.0000   -0.0000   24.3534    0.0000
       6     -0.0000   -0.0000    0.0000    0.0000    0.0000   24.3534
-------------------------------------------------------------------------------


  Elastic Compliance Matrix: (Units=1/GPa)

-------------------------------------------------------------------------------
  Indices      1         2         3         4         5         6    
-------------------------------------------------------------------------------
       1    0.013948 -0.003171 -0.003171  0.000000 -0.000000  0.000000
       2   -0.003171  0.013948 -0.003171 -0.000000  0.000000 -0.000000
       3   -0.003171 -0.003171  0.013948 -0.000000  0.000000 -0.000000
       4    0.000000 -0.000000 -0.000000  0.041062  0.000000 -0.000000
       5   -0.000000  0.000000  0.000000  0.000000  0.041062 -0.000000
       6    0.000000 -0.000000 -0.000000 -0.000000 -0.000000  0.041062
-------------------------------------------------------------------------------

  Mechanical properties :

-------------------------------------------------------------------------------
  Convention :                    Reuss         Voigt         Hill
-------------------------------------------------------------------------------
  Bulk  Modulus (GPa)     =      43.82493      43.82493      43.82493
  Shear Modulus (GPa)     =      26.08758      26.29496      26.19127
-------------------------------------------------------------------------------
  Velocity S-wave (km/s)  =       3.34035       3.35360       3.34698
  Velocity P-wave (km/s)  =       5.79842       5.80861       5.80351
-------------------------------------------------------------------------------
  Compressibility (1/GPa) =    0.02281806
-------------------------------------------------------------------------------
  Stress axis :                     x             y             z
-------------------------------------------------------------------------------
  Youngs Moduli (GPa)     =      71.69479      71.69479      71.69479
-------------------------------------------------------------------------------
  Poissons Ratio (x)      =                     0.22734       0.22734
  Poissons Ratio (y)      =       0.22734                     0.22734
  Poissons Ratio (z)      =       0.22734       0.22734
-------------------------------------------------------------------------------


  Piezoelectric Strain Matrix: (Units=C/m**2)

-------------------------------------------------------------------------------
  Indices      1         2         3         4         5         6    
-------------------------------------------------------------------------------
       x    -0.00000  -0.00000  -0.00000  -0.00000   0.00000  -0.00000
       y     0.00000  -0.00000   0.00000   0.00000  -0.00000   0.00000
       z    -0.00000  -0.00000   0.00000  -0.00000   0.00000  -0.00000
-------------------------------------------------------------------------------


  Piezoelectric Stress Matrix: (Units=10**-11 C/N)

-------------------------------------------------------------------------------
  Indices      1         2         3         4         5         6    
-------------------------------------------------------------------------------
       x     0.00000  -0.00000  -0.00000  -0.00000   0.00000  -0.00000
       y     0.00000  -0.00000   0.00000   0.00000  -0.00000   0.00000
       z    -0.00000  -0.00000   0.00000  -0.00000   0.00000  -0.00000
-------------------------------------------------------------------------------


  Static dielectric constant tensor : 

-------------------------------------------------------------------------------
              x         y         z
-------------------------------------------------------------------------------
       x    11.08357   0.00000   0.00000
       y     0.00000  11.08357   0.00000
       z     0.00000   0.00000  11.08357
--------------------------------------------------------------------------------

  High frequency dielectric constant tensor : 

-------------------------------------------------------------------------------
              x         y         z
-------------------------------------------------------------------------------
       x     1.50771   0.00000   0.00000
       y     0.00000   1.50771   0.00000
       z     0.00000   0.00000   1.50771
-------------------------------------------------------------------------------

  Static refractive indices : 

-------------------------------------------------------------------------------
    1 =    3.32920      2 =    3.32920      3 =    3.32920
-------------------------------------------------------------------------------

  High frequency refractive indices : 

-------------------------------------------------------------------------------
    1 =    1.22789      2 =    1.22789      3 =    1.22789
-------------------------------------------------------------------------------


  Time to end of optimisation =       0.0178 seconds

********************************************************************************
*  Defect calculation for configuration   1 :                                  *
********************************************************************************

  Total number of defects =      3

  Total charge on defect  =  -1.00

  Defect centre is at   0.5000   0.2500   0.2500  Frac

  Region 1 radius =  12.0000      Number of ions =    593

  Number of symmetry inequivalent region 1 ions  =    340

  Region 2 radius =  16.0000      Number of ions =    832

  Number of symmetry inequivalent region 2a ions =    454

  Region 2a mode = 4 : screened electrostatics due to region 1 
                       neglect correction to region 1 forces from 2a
                       region 2a displacements based on defects only

  Region 2a ions will only interact with defects in region 1

  Vacancies:

--------------------------------------------------------------------------------
    Specification type     Symbol/Number         x          y          z
--------------------------------------------------------------------------------
    Fractional                               0.500000   0.500000   0.000000
    Fractional                               0.500000   0.000000   0.500000
--------------------------------------------------------------------------------

  Interstitials:

--------------------------------------------------------------------------------
    Specification type     Symbol/Number         x          y          z
--------------------------------------------------------------------------------
    Atom/Fractional         Na               0.500000   0.100000   0.400000
--------------------------------------------------------------------------------


  Symmetry reduced region 1 (Relative to defect centre) :

--------------------------------------------------------------------------------
   No.   Atomic       x            y             z       Radius  Multiplicity   
         Label      (Angs)       (Angs)        (Angs)    (Angs)     
--------------------------------------------------------------------------------
     1  Na    c      0.0000      -0.6609       0.6609    0.0000     1    Defect
     2  O     c      0.0000       1.1015 *     1.1015 *  0.0000     1          
     3  Cl    c      2.2030 *    -1.1015 *    -1.1015 *  0.0000     2          
     4  Na    c      2.2030 *     1.1015 *     1.1015 *  0.0000     2          
     5  O     c      0.0000       1.1015 *    -3.3044 *  0.0000     1          
     6  O     c      0.0000      -3.3044 *     1.1015 *  0.0000     1          
     7  Na    c      0.0000       1.1015 *     3.3044 *  0.0000     1          
     8  Na    c      0.0000      -3.3044 *    -1.1015 *  0.0000     1          
     9  Na    c      0.0000      -1.1015 *    -3.3044 *  0.0000     1          
    10  Na    c      0.0000       3.3044 *     1.1015 *  0.0000     1          
    11  Cl    c      2.2030 *    -1.1015 *     3.3044 *  0.0000     2          
    12  Na    c      2.2030 *     1.1015 *    -3.3044 *  0.0000     2          
    13  Cl    c      2.2030 *     3.3044 *    -1.1015 *  0.0000     2          
    14  Na    c      2.2030 *    -3.3044 *     1.1015 *  0.0000     2          
    15  O     c      0.0000      -3.3044 *    -3.3044 *  0.0000     1          
    16  Na    c      0.0000      -3.3044 *     3.3044 *  0.0000     1          
    17  Na    c      0.0000       3.3044 *    -3.3044 *  0.0000     1          
    18  O     c      4.4059 *     1.1015 *     1.1015 *  0.0000     2          
    19  Na    c      4.4059 *     1.1015 *    -1.1015 *  0.0000     2          
    20  Na    c      4.4059 *    -1.1015 *     1.1015 *  0.0000     2          
    21  Cl    c      2.2030 *     3.3044 *     3.3044 *  0.0000     2          
    22  Na    c      2.2030 *    -3.3044 *    -3.3044 *  0.0000     2          
    23  O     c      0.0000       1.1015 *     5.5074 *  0.0000     1          
    24  O     c      0.0000       5.5074 *     1.1015 *  0.0000     1          
    25  O     c      4.4059 *     1.1015 *    -3.3044 *  0.0000     2          
    26  Na    c      0.0000       1.1015 *    -5.5074 *  0.0000     1          
    27  Na    c      0.0000       5.5074 *    -1.1015 *  0.0000     1          
    28  Na    c      4.4059 *     1.1015 *     3.3044 *  0.0000     2          
    29  Na    c      0.0000      -1.1015 *     5.5074 *  0.0000     1          
    30  Na    c      0.0000      -5.5074 *     1.1015 *  0.0000     1          
    31  Na    c      4.4059 *    -1.1015 *    -3.3044 *  0.0000     2          
    32  O     c      4.4059 *    -3.3044 *     1.1015 *  0.0000     2          
    33  Na    c      4.4059 *    -3.3044 *    -1.1015 *  0.0000     2          
    34  Na    c      4.4059 *     3.3044 *     1.1015 *  0.0000     2          
    35  Cl    c      2.2030 *    -1.1015 *    -5.5074 *  0.0000     2          
    36  Cl    c      2.2030 *    -5.5074 *    -1.1015 *  0.0000     2          
    37  Na    c      2.2030 *     1.1015 *     5.5074 *  0.0000     2          
    38  Na    c      2.2030 *     5.5074 *     1.1015 *  0.0000     2          
    39  O     c      0.0000       5.5074 *    -3.3044 *  0.0000     1          
    40  O     c      0.0000      -3.3044 *     5.5074 *  0.0000     1          
    41  Na    c      0.0000       5.5074 *     3.3044 *  0.0000     1          
    42  Na    c      0.0000      -3.3044 *    -5.5074 *  0.0000     1          
    43  Na    c      0.0000       3.3044 *     5.5074 *  0.0000     1          
    44  Na    c      0.0000      -5.5074 *    -3.3044 *  0.0000     1          
    45  O     c      4.4059 *    -3.3044 *    -3.3044 *  0.0000     2          
    46  Na    c      4.4059 *    -3.3044 *     3.3044 *  0.0000     2          
    47  Na    c      4.4059 *     3.3044 *    -3.3044 *  0.0000     2          
    48  Cl    c      6.6089 *    -1.1015 *    -1.1015 *  0.0000     2          
    49  Na    c      6.6089 *     1.1015 *     1.1015 *  0.0000     2          
    50  Cl    c      2.2030 *     3.3044 *    -5.5074 *  0.0000     2          
    51  Cl    c      2.2030 *    -5.5074 *     3.3044 *  0.0000     2          
    52  Na    c      2.2030 *     5.5074 *    -3.3044 *  0.0000     2          
    53  Na    c      2.2030 *    -3.3044 *     5.5074 *  0.0000     2          
    54  O     c      4.4059 *     1.1015 *     5.5074 *  0.0000     2          
    55  O     c      4.4059 *     5.5074 *     1.1015 *  0.0000     2          
    56  Na    c      4.4059 *     1.1015 *    -5.5074 *  0.0000     2          
    57  Na    c      4.4059 *     5.5074 *    -1.1015 *  0.0000     2          
    58  Na    c      4.4059 *    -1.1015 *     5.5074 *  0.0000     2          
    59  Na    c      4.4059 *    -5.5074 *     1.1015 *  0.0000     2          
    60  Cl    c      6.6089 *    -1.1015 *     3.3044 *  0.0000     2          
    61  Cl    c      6.6089 *     3.3044 *    -1.1015 *  0.0000     2          
    62  Na    c      6.6089 *     1.1015 *    -3.3044 *  0.0000     2          
    63  Na    c      6.6089 *    -3.3044 *     1.1015 *  0.0000     2          
    64  O     c      0.0000       1.1015 *    -7.7103 *  0.0000     1          
    65  O     c      0.0000       5.5074 *     5.5074 *  0.0000     1          
    66  O     c      0.0000      -7.7103 *     1.1015 *  0.0000     1          
    67  Na    c      0.0000       1.1015 *     7.7103 *  0.0000     1          
    68  Na    c      0.0000       5.5074 *    -5.5074 *  0.0000     1          
    69  Na    c      0.0000      -7.7103 *    -1.1015 *  0.0000     1          
    70  Na    c      0.0000      -1.1015 *    -7.7103 *  0.0000     1          
    71  Na    c      0.0000       7.7103 *     1.1015 *  0.0000     1          
    72  Na    c      0.0000      -5.5074 *     5.5074 *  0.0000     1          
    73  O     c      4.4059 *     5.5074 *    -3.3044 *  0.0000     2          
    74  O     c      4.4059 *    -3.3044 *     5.5074 *  0.0000     2          
    75  Na    c      4.4059 *     5.5074 *     3.3044 *  0.0000     2          
    76  Na    c      4.4059 *    -3.3044 *    -5.5074 *  0.0000     2          
    77  Na    c      4.4059 *     3.3044 *     5.5074 *  0.0000     2          
    78  Na    c      4.4059 *    -5.5074 *    -3.3044 *  0.0000     2          
    79  Cl    c      2.2030 *    -1.1015 *     7.7103 *  0.0000     2          
    80  Cl    c      2.2030 *    -5.5074 *    -5.5074 *  0.0000     2          
    81  Cl    c      6.6089 *     3.3044 *     3.3044 *  0.0000     2          
    82  Na    c      2.2030 *     1.1015 *    -7.7103 *  0.0000     2          
    83  Na    c      2.2030 *     5.5074 *     5.5074 *  0.0000     2          
    84  Na    c      6.6089 *    -3.3044 *    -3.3044 *  0.0000     2          
    85  Cl    c      2.2030 *     7.7103 *    -1.1015 *  0.0000     2          
    86  Na    c      2.2030 *    -7.7103 *     1.1015 *  0.0000     2          
    87  O     c      0.0000      -3.3044 *    -7.7103 *  0.0000     1          
    88  O     c      0.0000      -7.7103 *    -3.3044 *  0.0000     1          
    89  Na    c      0.0000      -3.3044 *     7.7103 *  0.0000     1          
    90  Na    c      0.0000      -7.7103 *     3.3044 *  0.0000     1          
    91  Na    c      0.0000       3.3044 *    -7.7103 *  0.0000     1          
    92  Na    c      0.0000       7.7103 *    -3.3044 *  0.0000     1          
    93  Cl    c      2.2030 *     3.3044 *     7.7103 *  0.0000     2          
    94  Cl    c      6.6089 *    -1.1015 *    -5.5074 *  0.0000     2          
    95  Na    c      2.2030 *    -3.3044 *    -7.7103 *  0.0000     2          
    96  Na    c      6.6089 *     1.1015 *     5.5074 *  0.0000     2          
    97  Cl    c      2.2030 *     7.7103 *     3.3044 *  0.0000     2          
    98  Cl    c      6.6089 *    -5.5074 *    -1.1015 *  0.0000     2          
    99  Na    c      2.2030 *    -7.7103 *    -3.3044 *  0.0000     2          
   100  Na    c      6.6089 *     5.5074 *     1.1015 *  0.0000     2          
   101  O     c      4.4059 *     1.1015 *    -7.7103 *  0.0000     2          
   102  O     c      4.4059 *     5.5074 *     5.5074 *  0.0000     2          
   103  Na    c      4.4059 *     1.1015 *     7.7103 *  0.0000     2          
   104  Na    c      4.4059 *     5.5074 *    -5.5074 *  0.0000     2          
   105  Na    c      4.4059 *    -1.1015 *    -7.7103 *  0.0000     2          
   106  Na    c      4.4059 *    -5.5074 *     5.5074 *  0.0000     2          
   107  O     c      4.4059 *    -7.7103 *     1.1015 *  0.0000     2          
   108  O     c      8.8118 *     1.1015 *     1.1015 *  0.0000     2          
   109  Na    c      4.4059 *    -7.7103 *    -1.1015 *  0.0000     2          
   110  Na    c      8.8118 *     1.1015 *    -1.1015 *  0.0000     2          
   111  Na    c      4.4059 *     7.7103 *     1.1015 *  0.0000     2          
   112  Na    c      8.8118 *    -1.1015 *     1.1015 *  0.0000     2          
   113  Cl    c      6.6089 *     3.3044 *    -5.5074 *  0.0000     2          
   114  Cl    c      6.6089 *    -5.5074 *     3.3044 *  0.0000     2          
   115  Na    c      6.6089 *     5.5074 *    -3.3044 *  0.0000     2          
   116  Na    c      6.6089 *    -3.3044 *     5.5074 *  0.0000     2          
   117  O     c      0.0000       5.5074 *    -7.7103 *  0.0000     1          
   118  O     c      0.0000      -7.7103 *     5.5074 *  0.0000     1          
   119  O     c      4.4059 *    -3.3044 *    -7.7103 *  0.0000     2          
   120  Na    c      0.0000       5.5074 *     7.7103 *  0.0000     1          
   121  Na    c      0.0000      -7.7103 *    -5.5074 *  0.0000     1          
   122  Na    c      4.4059 *    -3.3044 *     7.7103 *  0.0000     2          
   123  Na    c      0.0000       7.7103 *     5.5074 *  0.0000     1          
   124  Na    c      0.0000      -5.5074 *    -7.7103 *  0.0000     1          
   125  Na    c      4.4059 *     3.3044 *    -7.7103 *  0.0000     2          
   126  O     c      4.4059 *    -7.7103 *    -3.3044 *  0.0000     2          
   127  O     c      8.8118 *     1.1015 *    -3.3044 *  0.0000     2          
   128  O     c      8.8118 *    -3.3044 *     1.1015 *  0.0000     2          
   129  Na    c      4.4059 *    -7.7103 *     3.3044 *  0.0000     2          
   130  Na    c      8.8118 *     1.1015 *     3.3044 *  0.0000     2          
   131  Na    c      8.8118 *    -3.3044 *    -1.1015 *  0.0000     2          
   132  Na    c      4.4059 *     7.7103 *    -3.3044 *  0.0000     2          
   133  Na    c      8.8118 *    -1.1015 *    -3.3044 *  0.0000     2          
   134  Na    c      8.8118 *     3.3044 *     1.1015 *  0.0000     2          
   135  Cl    c      2.2030 *     7.7103 *    -5.5074 *  0.0000     2          
   136  Cl    c      2.2030 *    -5.5074 *     7.7103 *  0.0000     2          
   137  Na    c      2.2030 *     5.5074 *    -7.7103 *  0.0000     2          
   138  Na    c      2.2030 *    -7.7103 *     5.5074 *  0.0000     2          
   139  O     c      0.0000       1.1015 *     9.9133 *  0.0000     1          
   140  O     c      0.0000       9.9133 *     1.1015 *  0.0000     1          
   141  O     c      8.8118 *    -3.3044 *    -3.3044 *  0.0000     2          
   142  Na    c      0.0000       1.1015 *    -9.9133 *  0.0000     1          
   143  Na    c      0.0000       9.9133 *    -1.1015 *  0.0000     1          
   144  Na    c      8.8118 *    -3.3044 *     3.3044 *  0.0000     2          
   145  Na    c      0.0000      -1.1015 *     9.9133 *  0.0000     1          
   146  Na    c      0.0000      -9.9133 *     1.1015 *  0.0000     1          
   147  Na    c      8.8118 *     3.3044 *    -3.3044 *  0.0000     2          
   148  Cl    c      2.2030 *    -1.1015 *    -9.9133 *  0.0000     2          
   149  Cl    c      6.6089 *    -1.1015 *     7.7103 *  0.0000     2          
   150  Cl    c      6.6089 *     7.7103 *    -1.1015 *  0.0000     2          
   151  Cl    c      6.6089 *    -5.5074 *    -5.5074 *  0.0000     2          
   152  Na    c      2.2030 *     1.1015 *     9.9133 *  0.0000     2          
   153  Na    c      6.6089 *     1.1015 *    -7.7103 *  0.0000     2          
   154  Na    c      6.6089 *     5.5074 *     5.5074 *  0.0000     2          
   155  Na    c      6.6089 *    -7.7103 *     1.1015 *  0.0000     2          
   156  Cl    c      2.2030 *    -9.9133 *    -1.1015 *  0.0000     2          
   157  Na    c      2.2030 *     9.9133 *     1.1015 *  0.0000     2          
   158  O     c      0.0000       9.9133 *    -3.3044 *  0.0000     1          
   159  O     c      0.0000      -3.3044 *     9.9133 *  0.0000     1          
   160  O     c      4.4059 *     5.5074 *    -7.7103 *  0.0000     2          
   161  O     c      4.4059 *    -7.7103 *     5.5074 *  0.0000     2          
   162  O     c      8.8118 *     1.1015 *     5.5074 *  0.0000     2          
   163  O     c      8.8118 *     5.5074 *     1.1015 *  0.0000     2          
   164  Na    c      0.0000       9.9133 *     3.3044 *  0.0000     1          
   165  Na    c      0.0000      -3.3044 *    -9.9133 *  0.0000     1          
   166  Na    c      4.4059 *     5.5074 *     7.7103 *  0.0000     2          
   167  Na    c      4.4059 *    -7.7103 *    -5.5074 *  0.0000     2          
   168  Na    c      8.8118 *     1.1015 *    -5.5074 *  0.0000     2          
   169  Na    c      8.8118 *     5.5074 *    -1.1015 *  0.0000     2          
   170  Na    c      0.0000       3.3044 *     9.9133 *  0.0000     1          
   171  Na    c      0.0000      -9.9133 *    -3.3044 *  0.0000     1          
   172  Na    c      4.4059 *     7.7103 *     5.5074 *  0.0000     2          
   173  Na    c      4.4059 *    -5.5074 *    -7.7103 *  0.0000     2          
   174  Na    c      8.8118 *    -1.1015 *     5.5074 *  0.0000     2          
   175  Na    c      8.8118 *    -5.5074 *     1.1015 *  0.0000     2          
   176  Cl    c      6.6089 *     7.7103 *     3.3044 *  0.0000     2          
   177  Na    c      6.6089 *    -7.7103 *    -3.3044 *  0.0000     2          
   178  Cl    c      2.2030 *     3.3044 *    -9.9133 *  0.0000     2          
   179  Cl    c      2.2030 *    -9.9133 *     3.3044 *  0.0000     2          
   180  Cl    c      6.6089 *     3.3044 *     7.7103 *  0.0000     2          
   181  Na    c      2.2030 *     9.9133 *    -3.3044 *  0.0000     2          
   182  Na    c      2.2030 *    -3.3044 *     9.9133 *  0.0000     2          
   183  Na    c      6.6089 *    -3.3044 *    -7.7103 *  0.0000     2          
   184  O     c      0.0000      -7.7103 *    -7.7103 *  0.0000     1          
   185  O     c      4.4059 *     1.1015 *     9.9133 *  0.0000     2          
   186  O     c      4.4059 *     9.9133 *     1.1015 *  0.0000     2          
   187  O     c      8.8118 *     5.5074 *    -3.3044 *  0.0000     2          
   188  O     c      8.8118 *    -3.3044 *     5.5074 *  0.0000     2          
   189  Na    c      0.0000      -7.7103 *     7.7103 *  0.0000     1          
   190  Na    c      4.4059 *     1.1015 *    -9.9133 *  0.0000     2          
   191  Na    c      4.4059 *     9.9133 *    -1.1015 *  0.0000     2          
   192  Na    c      8.8118 *     5.5074 *     3.3044 *  0.0000     2          
   193  Na    c      8.8118 *    -3.3044 *    -5.5074 *  0.0000     2          
   194  Na    c      0.0000       7.7103 *    -7.7103 *  0.0000     1          
   195  Na    c      4.4059 *    -1.1015 *     9.9133 *  0.0000     2          
   196  Na    c      4.4059 *    -9.9133 *     1.1015 *  0.0000     2          
   197  Na    c      8.8118 *     3.3044 *     5.5074 *  0.0000     2          
   198  Na    c      8.8118 *    -5.5074 *    -3.3044 *  0.0000     2          
   199  Cl    c      2.2030 *     7.7103 *     7.7103 *  0.0000     2          
   200  Cl    c     11.0148 *    -1.1015 *    -1.1015 *  0.0000     2          
   201  Na    c      2.2030 *    -7.7103 *    -7.7103 *  0.0000     2          
   202  Na    c     11.0148 *     1.1015 *     1.1015 *  0.0000     2          
   203  O     c      4.4059 *     9.9133 *    -3.3044 *  0.0000     2          
   204  Na    c      4.4059 *     9.9133 *     3.3044 *  0.0000     2          
   205  Na    c      4.4059 *    -9.9133 *    -3.3044 *  0.0000     2          
   206  O     c      0.0000       5.5074 *     9.9133 *  0.0000     1          
   207  O     c      0.0000       9.9133 *     5.5074 *  0.0000     1          
   208  O     c      4.4059 *    -3.3044 *     9.9133 *  0.0000     2          
   209  Na    c      0.0000       5.5074 *    -9.9133 *  0.0000     1          
   210  Na    c      0.0000       9.9133 *    -5.5074 *  0.0000     1          
   211  Na    c      4.4059 *    -3.3044 *    -9.9133 *  0.0000     2          
   212  Na    c      0.0000      -5.5074 *     9.9133 *  0.0000     1          
   213  Na    c      0.0000      -9.9133 *     5.5074 *  0.0000     1          
   214  Na    c      4.4059 *     3.3044 *     9.9133 *  0.0000     2          
   215  Cl    c      2.2030 *    -5.5074 *    -9.9133 *  0.0000     2          
   216  Cl    c      2.2030 *    -9.9133 *    -5.5074 *  0.0000     2          
   217  Cl    c      6.6089 *     7.7103 *    -5.5074 *  0.0000     2          
   218  Cl    c      6.6089 *    -5.5074 *     7.7103 *  0.0000     2          
   219  Cl    c     11.0148 *    -1.1015 *     3.3044 *  0.0000     2          
   220  Cl    c     11.0148 *     3.3044 *    -1.1015 *  0.0000     2          
   221  Na    c      2.2030 *     5.5074 *     9.9133 *  0.0000     2          
   222  Na    c      2.2030 *     9.9133 *     5.5074 *  0.0000     2          
   223  Na    c      6.6089 *     5.5074 *    -7.7103 *  0.0000     2          
   224  Na    c      6.6089 *    -7.7103 *     5.5074 *  0.0000     2          
   225  Na    c     11.0148 *     1.1015 *    -3.3044 *  0.0000     2          
   226  Na    c     11.0148 *    -3.3044 *     1.1015 *  0.0000     2          
   227  O     c      4.4059 *    -7.7103 *    -7.7103 *  0.0000     2          
   228  O     c      8.8118 *     1.1015 *    -7.7103 *  0.0000     2          
   229  O     c      8.8118 *     5.5074 *     5.5074 *  0.0000     2          
   230  Na    c      4.4059 *    -7.7103 *     7.7103 *  0.0000     2          
   231  Na    c      8.8118 *     1.1015 *     7.7103 *  0.0000     2          
   232  Na    c      8.8118 *     5.5074 *    -5.5074 *  0.0000     2          
   233  Na    c      4.4059 *     7.7103 *    -7.7103 *  0.0000     2          
   234  Na    c      8.8118 *    -1.1015 *    -7.7103 *  0.0000     2          
   235  Na    c      8.8118 *    -5.5074 *     5.5074 *  0.0000     2          
   236  O     c      8.8118 *    -7.7103 *     1.1015 *  0.0000     2          
   237  Na    c      8.8118 *    -7.7103 *    -1.1015 *  0.0000     2          
   238  Na    c      8.8118 *     7.7103 *     1.1015 *  0.0000     2          
   239  Cl    c     11.0148 *     3.3044 *     3.3044 *  0.0000     2          
   240  Na    c     11.0148 *    -3.3044 *    -3.3044 *  0.0000     2          
   241  Cl    c      6.6089 *    -1.1015 *    -9.9133 *  0.0000     2          
   242  Cl    c      6.6089 *    -9.9133 *    -1.1015 *  0.0000     2          
   243  Na    c      6.6089 *     1.1015 *     9.9133 *  0.0000     2          
   244  Na    c      6.6089 *     9.9133 *     1.1015 *  0.0000     2          
   245  O     s      0.0000       1.1015 *     1.1015 *  0.0000     1          
   246  Cl    s      2.2030 *    -1.1015 *    -1.1015 *  0.0000     2          
   247  O     s      0.0000       1.1015 *    -3.3044 *  0.0000     1          
   248  O     s      0.0000      -3.3044 *     1.1015 *  0.0000     1          
   249  Cl    s      2.2030 *    -1.1015 *     3.3044 *  0.0000     2          
   250  Cl    s      2.2030 *     3.3044 *    -1.1015 *  0.0000     2          
   251  O     s      0.0000      -3.3044 *    -3.3044 *  0.0000     1          
   252  O     s      4.4059 *     1.1015 *     1.1015 *  0.0000     2          
   253  Cl    s      2.2030 *     3.3044 *     3.3044 *  0.0000     2          
   254  O     s      0.0000       1.1015 *     5.5074 *  0.0000     1          
   255  O     s      0.0000       5.5074 *     1.1015 *  0.0000     1          
   256  O     s      4.4059 *     1.1015 *    -3.3044 *  0.0000     2          
   257  O     s      4.4059 *    -3.3044 *     1.1015 *  0.0000     2          
   258  Cl    s      2.2030 *    -1.1015 *    -5.5074 *  0.0000     2          
   259  Cl    s      2.2030 *    -5.5074 *    -1.1015 *  0.0000     2          
   260  O     s      0.0000       5.5074 *    -3.3044 *  0.0000     1          
   261  O     s      0.0000      -3.3044 *     5.5074 *  0.0000     1          
   262  O     s      4.4059 *    -3.3044 *    -3.3044 *  0.0000     2          
   263  Cl    s      6.6089 *    -1.1015 *    -1.1015 *  0.0000     2          
   264  Cl    s      2.2030 *     3.3044 *    -5.5074 *  0.0000     2          
   265  Cl    s      2.2030 *    -5.5074 *     3.3044 *  0.0000     2          
   266  O     s      4.4059 *     1.1015 *     5.5074 *  0.0000     2          
   267  O     s      4.4059 *     5.5074 *     1.1015 *  0.0000     2          
   268  Cl    s      6.6089 *    -1.1015 *     3.3044 *  0.0000     2          
   269  Cl    s      6.6089 *     3.3044 *    -1.1015 *  0.0000     2          
   270  O     s      0.0000       1.1015 *    -7.7103 *  0.0000     1          
   271  O     s      0.0000       5.5074 *     5.5074 *  0.0000     1          
   272  O     s      0.0000      -7.7103 *     1.1015 *  0.0000     1          
   273  O     s      4.4059 *     5.5074 *    -3.3044 *  0.0000     2          
   274  O     s      4.4059 *    -3.3044 *     5.5074 *  0.0000     2          
   275  Cl    s      2.2030 *    -1.1015 *     7.7103 *  0.0000     2          
   276  Cl    s      2.2030 *    -5.5074 *    -5.5074 *  0.0000     2          
   277  Cl    s      6.6089 *     3.3044 *     3.3044 *  0.0000     2          
   278  Cl    s      2.2030 *     7.7103 *    -1.1015 *  0.0000     2          
   279  O     s      0.0000      -3.3044 *    -7.7103 *  0.0000     1          
   280  O     s      0.0000      -7.7103 *    -3.3044 *  0.0000     1          
   281  Cl    s      2.2030 *     3.3044 *     7.7103 *  0.0000     2          
   282  Cl    s      6.6089 *    -1.1015 *    -5.5074 *  0.0000     2          
   283  Cl    s      2.2030 *     7.7103 *     3.3044 *  0.0000     2          
   284  Cl    s      6.6089 *    -5.5074 *    -1.1015 *  0.0000     2          
   285  O     s      4.4059 *     1.1015 *    -7.7103 *  0.0000     2          
   286  O     s      4.4059 *     5.5074 *     5.5074 *  0.0000     2          
   287  O     s      4.4059 *    -7.7103 *     1.1015 *  0.0000     2          
   288  O     s      8.8118 *     1.1015 *     1.1015 *  0.0000     2          
   289  Cl    s      6.6089 *     3.3044 *    -5.5074 *  0.0000     2          
   290  Cl    s      6.6089 *    -5.5074 *     3.3044 *  0.0000     2          
   291  O     s      0.0000       5.5074 *    -7.7103 *  0.0000     1          
   292  O     s      0.0000      -7.7103 *     5.5074 *  0.0000     1          
   293  O     s      4.4059 *    -3.3044 *    -7.7103 *  0.0000     2          
   294  O     s      4.4059 *    -7.7103 *    -3.3044 *  0.0000     2          
   295  O     s      8.8118 *     1.1015 *    -3.3044 *  0.0000     2          
   296  O     s      8.8118 *    -3.3044 *     1.1015 *  0.0000     2          
   297  Cl    s      2.2030 *     7.7103 *    -5.5074 *  0.0000     2          
   298  Cl    s      2.2030 *    -5.5074 *     7.7103 *  0.0000     2          
   299  O     s      0.0000       1.1015 *     9.9133 *  0.0000     1          
   300  O     s      0.0000       9.9133 *     1.1015 *  0.0000     1          
   301  O     s      8.8118 *    -3.3044 *    -3.3044 *  0.0000     2          
   302  Cl    s      2.2030 *    -1.1015 *    -9.9133 *  0.0000     2          
   303  Cl    s      6.6089 *    -1.1015 *     7.7103 *  0.0000     2          
   304  Cl    s      6.6089 *     7.7103 *    -1.1015 *  0.0000     2          
   305  Cl    s      6.6089 *    -5.5074 *    -5.5074 *  0.0000     2          
   306  Cl    s      2.2030 *    -9.9133 *    -1.1015 *  0.0000     2          
   307  O     s      0.0000       9.9133 *    -3.3044 *  0.0000     1          
   308  O     s      0.0000      -3.3044 *     9.9133 *  0.0000     1          
   309  O     s      4.4059 *     5.5074 *    -7.7103 *  0.0000     2          
   310  O     s      4.4059 *    -7.7103 *     5.5074 *  0.0000     2          
   311  O     s      8.8118 *     1.1015 *     5.5074 *  0.0000     2          
   312  O     s      8.8118 *     5.5074 *     1.1015 *  0.0000     2          
   313  Cl    s      6.6089 *     7.7103 *     3.3044 *  0.0000     2          
   314  Cl    s      2.2030 *     3.3044 *    -9.9133 *  0.0000     2          
   315  Cl    s      2.2030 *    -9.9133 *     3.3044 *  0.0000     2          
   316  Cl    s      6.6089 *     3.3044 *     7.7103 *  0.0000     2          
   317  O     s      0.0000      -7.7103 *    -7.7103 *  0.0000     1          
   318  O     s      4.4059 *     1.1015 *     9.9133 *  0.0000     2          
   319  O     s      4.4059 *     9.9133 *     1.1015 *  0.0000     2          
   320  O     s      8.8118 *     5.5074 *    -3.3044 *  0.0000     2          
   321  O     s      8.8118 *    -3.3044 *     5.5074 *  0.0000     2          
   322  Cl    s      2.2030 *     7.7103 *     7.7103 *  0.0000     2          
   323  Cl    s     11.0148 *    -1.1015 *    -1.1015 *  0.0000     2          
   324  O     s      4.4059 *     9.9133 *    -3.3044 *  0.0000     2          
   325  O     s      0.0000       5.5074 *     9.9133 *  0.0000     1          
   326  O     s      0.0000       9.9133 *     5.5074 *  0.0000     1          
   327  O     s      4.4059 *    -3.3044 *     9.9133 *  0.0000     2          
   328  Cl    s      2.2030 *    -5.5074 *    -9.9133 *  0.0000     2          
   329  Cl    s      2.2030 *    -9.9133 *    -5.5074 *  0.0000     2          
   330  Cl    s      6.6089 *     7.7103 *    -5.5074 *  0.0000     2          
   331  Cl    s      6.6089 *    -5.5074 *     7.7103 *  0.0000     2          
   332  Cl    s     11.0148 *    -1.1015 *     3.3044 *  0.0000     2          
   333  Cl    s     11.0148 *     3.3044 *    -1.1015 *  0.0000     2          
   334  O     s      4.4059 *    -7.7103 *    -7.7103 *  0.0000     2          
   335  O     s      8.8118 *     1.1015 *    -7.7103 *  0.0000     2          
   336  O     s      8.8118 *     5.5074 *     5.5074 *  0.0000     2          
   337  O     s      8.8118 *    -7.7103 *     1.1015 *  0.0000     2          
   338  Cl    s     11.0148 *     3.3044 *     3.3044 *  0.0000     2          
   339  Cl    s      6.6089 *    -1.1015 *    -9.9133 *  0.0000     2          
   340  Cl    s      6.6089 *    -9.9133 *    -1.1015 *  0.0000     2          
--------------------------------------------------------------------------------

  Components of defect energy : 

--------------------------------------------------------------------------------
  Region 1 - region 1                   =      8.44771002 eV
  Region 1 - region 2a (unrelaxed)      =     -0.02046400 eV
  Region 1 - 2a (relaxed - correction)  =     -0.27820300 eV
  Region 1 (Total)                      =      8.14904302 eV
  Region 2a                             =      0.13905092 eV
  Region 2b                             =     -0.40838873 eV
--------------------------------------------------------------------------------
  Total defect energy                   =      7.87970522 eV
--------------------------------------------------------------------------------

  Largest displacement in region 2 =   0.0177 Angstroms


  Number of variables =      931

  Maximum number of calculations  =        1000
  Maximum Hessian update interval =          10
  Maximum step size               =   1.0000000
  Maximum parameter tolerance     =   0.0000100
  Maximum function  tolerance     =   0.0000100
  Maximum gradient  tolerance     =   0.0010000

  Symmetry adapted optimisation

  Symmetry to be used for second derivatives

  Newton-Raphson optimiser to be used

  BFGS hessian update to be used

  Lower half triangular hessian to be used

  Start of defect optimisation :

  Cycle:      0 Defect Energy:   7.879705  Gnorm:     0.018097  CPU:    7.444
  ** Hessian calculated **
  Cycle:      1 Defect Energy:   6.285411  Gnorm:     0.012211  CPU:   15.046
  Cycle:      2 Defect Energy:   5.089014  Gnorm:     0.003800  CPU:   20.386
  Cycle:      3 Defect Energy:   5.018388  Gnorm:     0.002638  CPU:   21.601
  Cycle:      4 Defect Energy:   4.976393  Gnorm:     0.001547  CPU:   22.834
  Cycle:      5 Defect Energy:   4.955948  Gnorm:     0.000881  CPU:   24.035
  Cycle:      6 Defect Energy:   4.950387  Gnorm:     0.000540  CPU:   25.249
  Cycle:      7 Defect Energy:   4.946677  Gnorm:     0.000230  CPU:   26.434
  Cycle:      8 Defect Energy:   4.946121  Gnorm:     0.000147  CPU:   27.620
  Cycle:      9 Defect Energy:   4.945855  Gnorm:     0.000094  CPU:   28.811
  Cycle:     10 Defect Energy:   4.945735  Gnorm:     0.000062  CPU:   30.058
  ** Hessian calculated **
  Cycle:     11 Defect Energy:   4.945679  Gnorm:     0.000044  CPU:   32.657
  Cycle:     12 Defect Energy:   4.945655  Gnorm:     0.000031  CPU:   33.816
  Cycle:     13 Defect Energy:   4.945646  Gnorm:     0.000021  CPU:   34.965


  **** Optimisation achieved ****


  Final defect energy  =        4.94564310
  Final defect Gnorm   =        0.00001501

  Components of defect energy : 

--------------------------------------------------------------------------------
  Region 1 - region 1                   =      6.34564366 eV
  Region 1 - region 2a (unrelaxed)      =     -0.88331993 eV
  Region 1 - 2a (relaxed - correction)  =     -0.21836841 eV
  Region 1 (Total)                      =      5.24395532 eV
  Region 2a                             =      0.10919818 eV
  Region 2b                             =     -0.40751040 eV
--------------------------------------------------------------------------------
  Total defect energy                   =      4.94564310 eV
--------------------------------------------------------------------------------

  Largest displacement in region 2 =   0.0177 Angstroms

  Final coordinates of region 1 :

--------------------------------------------------------------------------------
   No.  Atomic        x           y           z          Radius      Charge
        Label       (Angs)      (Angs)      (Angs)       (Angs)       (e) 
--------------------------------------------------------------------------------
     1  Na    c     2.202951    0.440590    1.762361    0.000000    1.000000
     2  O     c     2.202951    2.390194    2.390309    0.000000    0.183000
     3  Cl    c     4.500612   -0.038268   -0.000385    0.000000    1.485000
     4  Cl    c    -0.094709   -0.038268   -0.000385    0.000000    1.485000
     5  Na    c     4.348909    2.383643    2.086992    0.000000    1.000000
     6  Na    c     0.056993    2.383643    2.086992    0.000000    1.000000
     7  O     c     2.202951    2.229333   -2.352937    0.000000    0.183000
     8  O     c     2.202951   -2.082899    2.169894    0.000000    0.183000
     9  Na    c     2.202951    2.309830    4.472412    0.000000    1.000000
    10  Na    c     2.202951   -2.207926    0.003838    0.000000    1.000000
    11  Na    c     2.202951    0.105260   -2.057439    0.000000    1.000000
    12  Na    c     2.202951    4.426337    1.866647    0.000000    1.000000
    13  Cl    c     4.489974    0.001433    4.499216    0.000000    1.485000
    14  Cl    c    -0.084072    0.001433    4.499216    0.000000    1.485000
    15  Na    c     4.306534    2.221022   -1.928335    0.000000    1.000000
    16  Na    c     0.099368    2.221022   -1.928335    0.000000    1.000000
    17  Cl    c     4.522579    4.542139    0.006790    0.000000    1.485000
    18  Cl    c    -0.116676    4.542139    0.006790    0.000000    1.485000
    19  Na    c     4.377863   -2.043571    2.196228    0.000000    1.000000
    20  Na    c     0.028039   -2.043571    2.196228    0.000000    1.000000
    21  O     c     2.202951   -2.156533   -2.193854    0.000000    0.183000
    22  Na    c     2.202951   -1.868780    4.345516    0.000000    1.000000
    23  Na    c     2.202951    4.334531   -1.918923    0.000000    1.000000
    24  O     c     6.593127    2.241801    2.206544    0.000000    0.183000
    25  O     c    -2.187225    2.241801    2.206544    0.000000    0.183000
    26  Na    c     6.681268    2.209099    0.010966    0.000000    1.000000
    27  Na    c    -2.275366    2.209099    0.010966    0.000000    1.000000
    28  Na    c     6.561119    0.041083    2.213997    0.000000    1.000000
    29  Na    c    -2.155217    0.041083    2.213997    0.000000    1.000000
    30  Cl    c     4.500042    4.490728    4.497501    0.000000    1.485000
    31  Cl    c    -0.094139    4.490728    4.497501    0.000000    1.485000
    32  Na    c     4.399250   -2.159685   -2.203829    0.000000    1.000000
    33  Na    c     0.006652   -2.159685   -2.203829    0.000000    1.000000
    34  O     c     2.202951    2.230295    6.674225    0.000000    0.183000
    35  O     c     2.202951    6.633594    2.182656    0.000000    0.183000
    36  O     c     6.574051    2.215423   -2.181052    0.000000    0.183000
    37  O     c    -2.168149    2.215423   -2.181052    0.000000    0.183000
    38  Na    c     2.202951    2.273601   -4.440308    0.000000    1.000000
    39  Na    c     2.202951    6.816214   -0.007423    0.000000    1.000000
    40  Na    c     6.489433    2.226345    4.405721    0.000000    1.000000
    41  Na    c    -2.083531    2.226345    4.405721    0.000000    1.000000
    42  Na    c     2.202951    0.035566    6.669581    0.000000    1.000000
    43  Na    c     2.202951   -4.317636    2.293650    0.000000    1.000000
    44  Na    c     6.560122    0.017667   -2.209460    0.000000    1.000000
    45  Na    c    -2.154220    0.017667   -2.209460    0.000000    1.000000
    46  O     c     6.598705   -2.173387    2.210604    0.000000    0.183000
    47  O     c    -2.192803   -2.173387    2.210604    0.000000    0.183000
    48  Na    c     6.582645   -2.165658    0.004041    0.000000    1.000000
    49  Na    c    -2.176743   -2.165658    0.004041    0.000000    1.000000
    50  Na    c     6.638939    4.437313    2.199581    0.000000    1.000000
    51  Na    c    -2.233037    4.437313    2.199581    0.000000    1.000000
    52  Cl    c     4.462542   -0.064687   -4.480686    0.000000    1.485000
    53  Cl    c    -0.056639   -0.064687   -4.480686    0.000000    1.485000
    54  Cl    c     4.405935   -4.410043   -0.010254    0.000000    1.485000
    55  Cl    c    -0.000032   -4.410043   -0.010254    0.000000    1.485000
    56  Na    c     4.407817    2.212686    6.647745    0.000000    1.000000
    57  Na    c    -0.001915    2.212686    6.647745    0.000000    1.000000
    58  Na    c     4.410794    6.602811    2.207460    0.000000    1.000000
    59  Na    c    -0.004892    6.602811    2.207460    0.000000    1.000000
    60  O     c     2.202951    6.596129   -2.185982    0.000000    0.183000
    61  O     c     2.202951   -2.159185    6.581349    0.000000    0.183000
    62  Na    c     2.202951    6.425487    4.382210    0.000000    1.000000
    63  Na    c     2.202951   -2.073164   -4.392203    0.000000    1.000000
    64  Na    c     2.202951    4.421216    6.705623    0.000000    1.000000
    65  Na    c     2.202951   -4.370233   -2.254004    0.000000    1.000000
    66  O     c     6.607787   -2.195759   -2.205630    0.000000    0.183000
    67  O     c    -2.201884   -2.195759   -2.205630    0.000000    0.183000
    68  Na    c     6.593066   -2.177372    4.406711    0.000000    1.000000
    69  Na    c    -2.187164   -2.177372    4.406711    0.000000    1.000000
    70  Na    c     6.572646    4.411980   -2.193619    0.000000    1.000000
    71  Na    c    -2.166744    4.411980   -2.193619    0.000000    1.000000
    72  Cl    c     8.829744    0.013881    0.008511    0.000000    1.485000
    73  Cl    c    -4.423841    0.013881    0.008511    0.000000    1.485000
    74  Na    c     8.798452    2.207091    2.281873    0.000000    1.000000
    75  Na    c    -4.392550    2.207091    2.281873    0.000000    1.000000
    76  Cl    c     4.470588    4.478446   -4.486835    0.000000    1.485000
    77  Cl    c    -0.064685    4.478446   -4.486835    0.000000    1.485000
    78  Cl    c     4.421440   -4.415086    4.407649    0.000000    1.485000
    79  Cl    c    -0.015538   -4.415086    4.407649    0.000000    1.485000
    80  Na    c     4.402879    6.578222   -2.207502    0.000000    1.000000
    81  Na    c     0.003024    6.578222   -2.207502    0.000000    1.000000
    82  Na    c     4.404197   -2.177625    6.566350    0.000000    1.000000
    83  Na    c     0.001706   -2.177625    6.566350    0.000000    1.000000
    84  O     c     6.610805    2.214458    6.619389    0.000000    0.183000
    85  O     c    -2.204903    2.214458    6.619389    0.000000    0.183000
    86  O     c     6.624486    6.636975    2.212662    0.000000    0.183000
    87  O     c    -2.218584    6.636975    2.212662    0.000000    0.183000
    88  Na    c     6.428666    2.220339   -4.379423    0.000000    1.000000
    89  Na    c    -2.022764    2.220339   -4.379423    0.000000    1.000000
    90  Na    c     6.590156    6.617849   -0.001372    0.000000    1.000000
    91  Na    c    -2.184254    6.617849   -0.001372    0.000000    1.000000
    92  Na    c     6.598465    0.007057    6.589759    0.000000    1.000000
    93  Na    c    -2.192563    0.007057    6.589759    0.000000    1.000000
    94  Na    c     6.554572   -4.374417    2.204875    0.000000    1.000000
    95  Na    c    -2.148670   -4.374417    2.204875    0.000000    1.000000
    96  Cl    c     8.835597    0.008438    4.411660    0.000000    1.485000
    97  Cl    c    -4.429695    0.008438    4.411660    0.000000    1.485000
    98  Cl    c     8.838931    4.418739    0.008683    0.000000    1.485000
    99  Cl    c    -4.433029    4.418739    0.008683    0.000000    1.485000
   100  Na    c     8.782731    2.209155   -2.282128    0.000000    1.000000
   101  Na    c    -4.376828    2.209155   -2.282128    0.000000    1.000000
   102  Na    c     8.796159   -2.178560    2.202343    0.000000    1.000000
   103  Na    c    -4.390257   -2.178560    2.202343    0.000000    1.000000
   104  O     c     2.202951    2.209159   -6.651510    0.000000    0.183000
   105  O     c     2.202951    6.609507    6.606138    0.000000    0.183000
   106  O     c     2.202951   -6.570531    2.205106    0.000000    0.183000
   107  Na    c     2.202951    2.210687    8.849993    0.000000    1.000000
   108  Na    c     2.202951    6.425667   -4.385984    0.000000    1.000000
   109  Na    c     2.202951   -6.501961    0.003713    0.000000    1.000000
   110  Na    c     2.202951    0.009639   -6.611155    0.000000    1.000000
   111  Na    c     2.202951    8.819165    2.322692    0.000000    1.000000
   112  Na    c     2.202951   -4.362510    6.462328    0.000000    1.000000
   113  O     c     6.616189    6.622766   -2.211607    0.000000    0.183000
   114  O     c    -2.210286    6.622766   -2.211607    0.000000    0.183000
   115  O     c     6.616880   -2.205155    6.615791    0.000000    0.183000
   116  O     c    -2.210977   -2.205155    6.615791    0.000000    0.183000
   117  Na    c     6.608263    6.605673    4.413443    0.000000    1.000000
   118  Na    c    -2.202361    6.605673    4.413443    0.000000    1.000000
   119  Na    c     6.594296   -2.193724   -4.407252    0.000000    1.000000
   120  Na    c    -2.188394   -2.193724   -4.407252    0.000000    1.000000
   121  Na    c     6.599850    4.418342    6.597584    0.000000    1.000000
   122  Na    c    -2.193947    4.418342    6.597584    0.000000    1.000000
   123  Na    c     6.594727   -4.392971   -2.195492    0.000000    1.000000
   124  Na    c    -2.188824   -4.392971   -2.195492    0.000000    1.000000
   125  Cl    c     4.408309    0.004007    8.842382    0.000000    1.485000
   126  Cl    c    -0.002407    0.004007    8.842382    0.000000    1.485000
   127  Cl    c     4.410620   -4.423766   -4.409617    0.000000    1.485000
   128  Cl    c    -0.004718   -4.423766   -4.409617    0.000000    1.485000
   129  Cl    c     8.843509    4.421540    4.412234    0.000000    1.485000
   130  Cl    c    -4.437607    4.421540    4.412234    0.000000    1.485000
   131  Na    c     4.399579    2.199389   -6.649165    0.000000    1.000000
   132  Na    c     0.006323    2.199389   -6.649165    0.000000    1.000000
   133  Na    c     4.411497    6.609421    6.577648    0.000000    1.000000
   134  Na    c    -0.005595    6.609421    6.577648    0.000000    1.000000
   135  Na    c     8.800655   -2.183427   -2.201294    0.000000    1.000000
   136  Na    c    -4.394753   -2.183427   -2.201294    0.000000    1.000000
   137  Cl    c     4.414810    8.850495   -0.002751    0.000000    1.485000
   138  Cl    c    -0.008908    8.850495   -0.002751    0.000000    1.485000
   139  Na    c     4.398133   -6.567496    2.191311    0.000000    1.000000
   140  Na    c     0.007770   -6.567496    2.191311    0.000000    1.000000
   141  O     c     2.202951   -2.194907   -6.607241    0.000000    0.183000
   142  O     c     2.202951   -6.590951   -2.203701    0.000000    0.183000
   143  Na    c     2.202951   -2.234910    8.790902    0.000000    1.000000
   144  Na    c     2.202951   -6.627795    4.395133    0.000000    1.000000
   145  Na    c     2.202951    4.405546   -6.676961    0.000000    1.000000
   146  Na    c     2.202951    8.801844   -2.326635    0.000000    1.000000
   147  Cl    c     4.407273    4.418214    8.845687    0.000000    1.485000
   148  Cl    c    -0.001370    4.418214    8.845687    0.000000    1.485000
   149  Cl    c     8.832136   -0.001879   -4.406446    0.000000    1.485000
   150  Cl    c    -4.426233   -0.001879   -4.406446    0.000000    1.485000
   151  Na    c     4.408203   -2.186059   -6.587846    0.000000    1.000000
   152  Na    c    -0.002300   -2.186059   -6.587846    0.000000    1.000000
   153  Na    c     8.805601    2.208774    6.553767    0.000000    1.000000
   154  Na    c    -4.399699    2.208774    6.553767    0.000000    1.000000
   155  Cl    c     4.415068    8.843018    4.414980    0.000000    1.485000
   156  Cl    c    -0.009165    8.843018    4.414980    0.000000    1.485000
   157  Cl    c     8.821675   -4.411120    0.002767    0.000000    1.485000
   158  Cl    c    -4.415773   -4.411120    0.002767    0.000000    1.485000
   159  Na    c     4.403009   -6.584263   -2.193554    0.000000    1.000000
   160  Na    c     0.002893   -6.584263   -2.193554    0.000000    1.000000
   161  Na    c     8.816637    6.636124    2.198727    0.000000    1.000000
   162  Na    c    -4.410735    6.636124    2.198727    0.000000    1.000000
   163  O     c     6.597633    2.204048   -6.600923    0.000000    0.183000
   164  O     c    -2.191731    2.204048   -6.600923    0.000000    0.183000
   165  O     c     6.623887    6.626101    6.621292    0.000000    0.183000
   166  O     c    -2.217984    6.626101    6.621292    0.000000    0.183000
   167  Na    c     6.633543    2.203808    8.811660    0.000000    1.000000
   168  Na    c    -2.227641    2.203808    8.811660    0.000000    1.000000
   169  Na    c     6.600889    6.592629   -4.410102    0.000000    1.000000
   170  Na    c    -2.194986    6.592629   -4.410102    0.000000    1.000000
   171  Na    c     6.604543    0.001036   -6.571980    0.000000    1.000000
   172  Na    c    -2.198641    0.001036   -6.571980    0.000000    1.000000
   173  Na    c     6.602093   -4.399988    6.595967    0.000000    1.000000
   174  Na    c    -2.196190   -4.399988    6.595967    0.000000    1.000000
   175  O     c     6.602664   -6.594983    2.200658    0.000000    0.183000
   176  O     c    -2.196761   -6.594983    2.200658    0.000000    0.183000
   177  O     c    11.009899    2.207801    2.207104    0.000000    0.183000
   178  O     c    -6.603997    2.207801    2.207104    0.000000    0.183000
   179  Na    c     6.611977   -6.584483    0.001438    0.000000    1.000000
   180  Na    c    -2.206075   -6.584483    0.001438    0.000000    1.000000
   181  Na    c    10.932227    2.211756   -0.000068    0.000000    1.000000
   182  Na    c    -6.526324    2.211756   -0.000068    0.000000    1.000000
   183  Na    c     6.598606    8.821590    2.206821    0.000000    1.000000
   184  Na    c    -2.192703    8.821590    2.206821    0.000000    1.000000
   185  Na    c    10.997325    0.005984    2.190148    0.000000    1.000000
   186  Na    c    -6.591423    0.005984    2.190148    0.000000    1.000000
   187  Cl    c     8.835058    4.415452   -4.403218    0.000000    1.485000
   188  Cl    c    -4.429156    4.415452   -4.403218    0.000000    1.485000
   189  Cl    c     8.825104   -4.410019    4.415482    0.000000    1.485000
   190  Cl    c    -4.419202   -4.410019    4.415482    0.000000    1.485000
   191  Na    c     8.808592    6.607618   -2.198604    0.000000    1.000000
   192  Na    c    -4.402690    6.607618   -2.198604    0.000000    1.000000
   193  Na    c     8.810632   -2.195992    6.609515    0.000000    1.000000
   194  Na    c    -4.404730   -2.195992    6.609515    0.000000    1.000000
   195  O     c     2.202951    6.598841   -6.605401    0.000000    0.183000
   196  O     c     2.202951   -6.590539    6.593324    0.000000    0.183000
   197  O     c     6.618096   -2.210492   -6.614958    0.000000    0.183000
   198  O     c    -2.212194   -2.210492   -6.614958    0.000000    0.183000
   199  Na    c     2.202951    6.662226    8.807410    0.000000    1.000000
   200  Na    c     2.202951   -6.618443   -4.402903    0.000000    1.000000
   201  Na    c     6.599119   -2.202260    8.810160    0.000000    1.000000
   202  Na    c    -2.193217   -2.202260    8.810160    0.000000    1.000000
   203  Na    c     2.202951    8.804497    6.530718    0.000000    1.000000
   204  Na    c     2.202951   -4.394314   -6.564188    0.000000    1.000000
   205  Na    c     6.591014    4.409660   -6.593910    0.000000    1.000000
   206  Na    c    -2.185111    4.409660   -6.593910    0.000000    1.000000
   207  O     c     6.608007   -6.604169   -2.200858    0.000000    0.183000
   208  O     c    -2.202105   -6.604169   -2.200858    0.000000    0.183000
   209  O     c    11.001611    2.206444   -2.204226    0.000000    0.183000
   210  O     c    -6.595708    2.206444   -2.204226    0.000000    0.183000
   211  O     c    11.009748   -2.197456    2.203328    0.000000    0.183000
   212  O     c    -6.603846   -2.197456    2.203328    0.000000    0.183000
   213  Na    c     6.592336   -6.596949    4.402359    0.000000    1.000000
   214  Na    c    -2.186434   -6.596949    4.402359    0.000000    1.000000
   215  Na    c    11.042779    2.202643    4.404840    0.000000    1.000000
   216  Na    c    -6.636877    2.202643    4.404840    0.000000    1.000000
   217  Na    c    10.996499   -2.209486    0.001726    0.000000    1.000000
   218  Na    c    -6.590597   -2.209486    0.001726    0.000000    1.000000
   219  Na    c     6.598132    8.814640   -2.216945    0.000000    1.000000
   220  Na    c    -2.192230    8.814640   -2.216945    0.000000    1.000000
   221  Na    c    10.991883    0.005941   -2.193870    0.000000    1.000000
   222  Na    c    -6.585981    0.005941   -2.193870    0.000000    1.000000
   223  Na    c    10.996636    4.410111    2.199098    0.000000    1.000000
   224  Na    c    -6.590734    4.410111    2.199098    0.000000    1.000000
   225  Cl    c     4.411790    8.839310   -4.405213    0.000000    1.485000
   226  Cl    c    -0.005888    8.839310   -4.405213    0.000000    1.485000
   227  Cl    c     4.410153   -4.404698    8.823839    0.000000    1.485000
   228  Cl    c    -0.004251   -4.404698    8.823839    0.000000    1.485000
   229  Na    c     4.407768    6.603098   -6.585674    0.000000    1.000000
   230  Na    c    -0.001866    6.603098   -6.585674    0.000000    1.000000
   231  Na    c     4.402263   -6.587057    6.604915    0.000000    1.000000
   232  Na    c     0.003640   -6.587057    6.604915    0.000000    1.000000
   233  O     c     2.202951    2.204532   11.031026    0.000000    0.183000
   234  O     c     2.202951   11.020630    2.212894    0.000000    0.183000
   235  O     c    11.009189   -2.199028   -2.199333    0.000000    0.183000
   236  O     c    -6.603287   -2.199028   -2.199333    0.000000    0.183000
   237  Na    c     2.202951    2.190230   -8.832706    0.000000    1.000000
   238  Na    c     2.202951   10.956954   -0.003061    0.000000    1.000000
   239  Na    c    11.003952   -2.189845    4.405166    0.000000    1.000000
   240  Na    c    -6.598050   -2.189845    4.405166    0.000000    1.000000
   241  Na    c     2.202951   -0.004706   11.005744    0.000000    1.000000
   242  Na    c     2.202951   -8.792682    2.170246    0.000000    1.000000
   243  Na    c    10.997858    4.407192   -2.202725    0.000000    1.000000
   244  Na    c    -6.591956    4.407192   -2.202725    0.000000    1.000000
   245  Cl    c     4.409597   -0.002543   -8.837584    0.000000    1.485000
   246  Cl    c    -0.003695   -0.002543   -8.837584    0.000000    1.485000
   247  Cl    c     8.822509   -0.000443    8.826105    0.000000    1.485000
   248  Cl    c    -4.416607   -0.000443    8.826105    0.000000    1.485000
   249  Cl    c     8.827833    8.828339    0.004610    0.000000    1.485000
   250  Cl    c    -4.421931    8.828339    0.004610    0.000000    1.485000
   251  Cl    c     8.823126   -4.418850   -4.410796    0.000000    1.485000
   252  Cl    c    -4.417224   -4.418850   -4.410796    0.000000    1.485000
   253  Na    c     4.409169    2.201151   11.015499    0.000000    1.000000
   254  Na    c    -0.003267    2.201151   11.015499    0.000000    1.000000
   255  Na    c     8.798068    2.219207   -6.543187    0.000000    1.000000
   256  Na    c    -4.392165    2.219207   -6.543187    0.000000    1.000000
   257  Na    c     8.816978    6.612223    6.613711    0.000000    1.000000
   258  Na    c    -4.411075    6.612223    6.613711    0.000000    1.000000
   259  Na    c     8.804220   -6.582868    2.213051    0.000000    1.000000
   260  Na    c    -4.398317   -6.582868    2.213051    0.000000    1.000000
   261  Cl    c     4.405540   -8.825052    0.002163    0.000000    1.485000
   262  Cl    c     0.000362   -8.825052    0.002163    0.000000    1.485000
   263  Na    c     4.404157   11.014490    2.184228    0.000000    1.000000
   264  Na    c     0.001746   11.014490    2.184228    0.000000    1.000000
   265  O     c     2.202951   11.012362   -2.215065    0.000000    0.183000
   266  O     c     2.202951   -2.208411   11.011549    0.000000    0.183000
   267  O     c     6.618907    6.619333   -6.616289    0.000000    0.183000
   268  O     c    -2.213005    6.619333   -6.616289    0.000000    0.183000
   269  O     c     6.607890   -6.606899    6.609023    0.000000    0.183000
   270  O     c    -2.201987   -6.606899    6.609023    0.000000    0.183000
   271  O     c    11.017617    2.205351    6.604810    0.000000    0.183000
[...]
    260 y          6.608853      6.596205    -0.012648    Cartesian   -0.19
    260 z         -2.202951     -2.185958     0.016993    Cartesian   -0.77
    261 x          2.202951      2.202951     0.000000    Cartesian    0.00
    261 y         -2.202951     -2.159149     0.043802    Cartesian   -1.99
    261 z          6.608853      6.581388    -0.027465    Cartesian   -0.42
    262 x          6.608853      6.607788    -0.001065    Cartesian   -0.02
    262 y         -2.202951     -2.195764     0.007187    Cartesian   -0.33
    262 z         -2.202951     -2.205638    -0.002687    Cartesian    0.12
    263 x          8.811805      8.834203     0.022398    Cartesian    0.25
    263 y          0.000000      0.014668     0.014668    Cartesian    0.00
    263 z          0.000000      0.009466     0.009466    Cartesian    0.00
    264 x          4.405902      4.481738     0.075836    Cartesian    1.72
    264 y          4.405902      4.489793     0.083890    Cartesian    1.90
    264 z         -4.405902     -4.499170    -0.093268    Cartesian    2.12
    265 x          4.405902      4.424109     0.018207    Cartesian    0.41
    265 y         -4.405902     -4.421897    -0.015994    Cartesian    0.36
    265 z          4.405902      4.410403     0.004500    Cartesian    0.10
    266 x          6.608853      6.610793     0.001940    Cartesian    0.03
    266 y          2.202951      2.214461     0.011510    Cartesian    0.52
    266 z          6.608853      6.619402     0.010549    Cartesian    0.16
    267 x          6.608853      6.624501     0.015647    Cartesian    0.24
    267 y          6.608853      6.636978     0.028125    Cartesian    0.43
    267 z          2.202951      2.212670     0.009719    Cartesian    0.44
    268 x          8.811805      8.840061     0.028257    Cartesian    0.32
    268 y          0.000000      0.008483     0.008483    Cartesian    0.00
    268 z          4.405902      4.412290     0.006387    Cartesian    0.14
    269 x          8.811805      8.843051     0.031246    Cartesian    0.35
    269 y          4.405902      4.418800     0.012898    Cartesian    0.29
    269 z          0.000000      0.010223     0.010223    Cartesian    0.00
    270 x          2.202951      2.202951     0.000000    Cartesian    0.00
    270 y          2.202951      2.209167     0.006216    Cartesian    0.28
    270 z         -6.608853     -6.651544    -0.042690    Cartesian    0.65
    271 x          2.202951      2.202951     0.000000    Cartesian    0.00
    271 y          6.608853      6.609480     0.000626    Cartesian    0.01
    271 z          6.608853      6.606168    -0.002686    Cartesian   -0.04
    272 x          2.202951      2.202951     0.000000    Cartesian    0.00
    272 y         -6.608853     -6.570563     0.038291    Cartesian   -0.58
    272 z          2.202951      2.205122     0.002171    Cartesian    0.10
    273 x          6.608853      6.616195     0.007342    Cartesian    0.11
    273 y          6.608853      6.622772     0.013919    Cartesian    0.21
    273 z         -2.202951     -2.211615    -0.008664    Cartesian    0.39
    274 x          6.608853      6.616889     0.008036    Cartesian    0.12
    274 y         -2.202951     -2.205164    -0.002213    Cartesian    0.10
    274 z          6.608853      6.615791     0.006937    Cartesian    0.10
    275 x          4.405902      4.407850     0.001948    Cartesian    0.04
    275 y          0.000000      0.004849     0.004849    Cartesian    0.00
    275 z          8.811805      8.845376     0.033571    Cartesian    0.38
    276 x          4.405902      4.411800     0.005898    Cartesian    0.13
    276 y         -4.405902     -4.428024    -0.022122    Cartesian    0.50
    276 z         -4.405902     -4.410287    -0.004384    Cartesian    0.10
    277 x          8.811805      8.847589     0.035784    Cartesian    0.41
    277 y          4.405902      4.422257     0.016355    Cartesian    0.37
    277 z          4.405902      4.412395     0.006493    Cartesian    0.15
    278 x          4.405902      4.414561     0.008659    Cartesian    0.20
    278 y          8.811805      8.853291     0.041487    Cartesian    0.47
    278 z          0.000000     -0.002550    -0.002550    Cartesian    0.00
    279 x          2.202951      2.202951     0.000000    Cartesian    0.00
    279 y         -2.202951     -2.194891     0.008060    Cartesian   -0.37
    279 z         -6.608853     -6.607251     0.001603    Cartesian   -0.02
    280 x          2.202951      2.202951     0.000000    Cartesian    0.00
    280 y         -6.608853     -6.590953     0.017900    Cartesian   -0.27
    280 z         -2.202951     -2.203712    -0.000761    Cartesian    0.03
    281 x          4.405902      4.406237     0.000335    Cartesian    0.01
    281 y          4.405902      4.418309     0.012407    Cartesian    0.28
    281 z          8.811805      8.848466     0.036661    Cartesian    0.42
    282 x          8.811805      8.837259     0.025454    Cartesian    0.29
    282 y          0.000000     -0.003165    -0.003165    Cartesian    0.00
    282 z         -4.405902     -4.406955    -0.001053    Cartesian    0.02
    283 x          4.405902      4.415790     0.009887    Cartesian    0.22
    283 y          8.811805      8.847865     0.036060    Cartesian    0.41
    283 z          4.405902      4.416141     0.010238    Cartesian    0.23
    284 x          8.811805      8.825078     0.013273    Cartesian    0.15
    284 y         -4.405902     -4.413799    -0.007896    Cartesian    0.18
    284 z          0.000000      0.002336     0.002336    Cartesian    0.00
    285 x          6.608853      6.597607    -0.011246    Cartesian   -0.17
    285 y          2.202951      2.204050     0.001098    Cartesian    0.05
    285 z         -6.608853     -6.600944     0.007909    Cartesian   -0.12
    286 x          6.608853      6.623898     0.015045    Cartesian    0.23
    286 y          6.608853      6.626113     0.017259    Cartesian    0.26
    286 z          6.608853      6.621297     0.012444    Cartesian    0.19
    287 x          6.608853      6.602658    -0.006196    Cartesian   -0.09
    287 y         -6.608853     -6.594991     0.013862    Cartesian   -0.21
    287 z          2.202951      2.200656    -0.002295    Cartesian   -0.10
    288 x         11.014756     11.009900    -0.004856    Cartesian   -0.04
    288 y          2.202951      2.207800     0.004849    Cartesian    0.22
    288 z          2.202951      2.207119     0.004168    Cartesian    0.19
    289 x          8.811805      8.840155     0.028351    Cartesian    0.32
    289 y          4.405902      4.416667     0.010765    Cartesian    0.24
    289 z         -4.405902     -4.403308     0.002594    Cartesian   -0.06
    290 x          8.811805      8.828361     0.016556    Cartesian    0.19
    290 y         -4.405902     -4.412242    -0.006340    Cartesian    0.14
    290 z          4.405902      4.417546     0.011644    Cartesian    0.26
    291 x          2.202951      2.202951     0.000000    Cartesian    0.00
    291 y          6.608853      6.598814    -0.010040    Cartesian   -0.15
    291 z         -6.608853     -6.605427     0.003426    Cartesian   -0.05
    292 x          2.202951      2.202951     0.000000    Cartesian    0.00
    292 y         -6.608853     -6.590564     0.018289    Cartesian   -0.28
    292 z          6.608853      6.593304    -0.015550    Cartesian   -0.24
    293 x          6.608853      6.618106     0.009252    Cartesian    0.14
    293 y         -2.202951     -2.210500    -0.007549    Cartesian    0.34
    293 z         -6.608853     -6.614960    -0.006107    Cartesian    0.09
    294 x          6.608853      6.608009    -0.000845    Cartesian   -0.01
    294 y         -6.608853     -6.604172     0.004682    Cartesian   -0.07
    294 z         -2.202951     -2.200855     0.002096    Cartesian   -0.10
    295 x         11.014756     11.001620    -0.013136    Cartesian   -0.12
    295 y          2.202951      2.206444     0.003493    Cartesian    0.16
    295 z         -2.202951     -2.204238    -0.001287    Cartesian    0.06
    296 x         11.014756     11.009756    -0.005000    Cartesian   -0.05
    296 y         -2.202951     -2.197454     0.005497    Cartesian   -0.25
    296 z          2.202951      2.203326     0.000374    Cartesian    0.02
    297 x          4.405902      4.412052     0.006150    Cartesian    0.14
    297 y          8.811805      8.844133     0.032329    Cartesian    0.37
    297 z         -4.405902     -4.404417     0.001486    Cartesian   -0.03
    298 x          4.405902      4.411367     0.005464    Cartesian    0.12
    298 y         -4.405902     -4.406050    -0.000148    Cartesian    0.00
    298 z          8.811805      8.827822     0.016018    Cartesian    0.18
    299 x          2.202951      2.202951     0.000000    Cartesian    0.00
    299 y          2.202951      2.204533     0.001582    Cartesian    0.07
    299 z         11.014756     11.031005     0.016250    Cartesian    0.15
    300 x          2.202951      2.202951     0.000000    Cartesian    0.00
    300 y         11.014756     11.020632     0.005876    Cartesian    0.05
    300 z          2.202951      2.212926     0.009975    Cartesian    0.45
    301 x         11.014756     11.009191    -0.005565    Cartesian   -0.05
    301 y         -2.202951     -2.199028     0.003923    Cartesian   -0.18
    301 z         -2.202951     -2.199330     0.003621    Cartesian   -0.16
    302 x          4.405902      4.409330     0.003428    Cartesian    0.08
    302 y          0.000000     -0.002249    -0.002249    Cartesian    0.00
    302 z         -8.811805     -8.840103    -0.028298    Cartesian    0.32
    303 x          8.811805      8.824273     0.012469    Cartesian    0.14
    303 y          0.000000     -0.000390    -0.000390    Cartesian    0.00
    303 z          8.811805      8.828772     0.016968    Cartesian    0.19
    304 x          8.811805      8.830209     0.018405    Cartesian    0.21
    304 y          8.811805      8.830083     0.018279    Cartesian    0.21
    304 z          0.000000      0.006075     0.006075    Cartesian    0.00
    305 x          8.811805      8.825195     0.013391    Cartesian    0.15
    305 y         -4.405902     -4.421089    -0.015186    Cartesian    0.34
    305 z         -4.405902     -4.411436    -0.005534    Cartesian    0.13
    306 x          4.405902      4.405959     0.000056    Cartesian    0.00
    306 y         -8.811805     -8.828720    -0.016916    Cartesian    0.19
    306 z          0.000000      0.002221     0.002221    Cartesian    0.00
    307 x          2.202951      2.202951     0.000000    Cartesian    0.00
    307 y         11.014756     11.012363    -0.002393    Cartesian   -0.02
    307 z         -2.202951     -2.215096    -0.012145    Cartesian    0.55
    308 x          2.202951      2.202951     0.000000    Cartesian    0.00
    308 y         -2.202951     -2.208420    -0.005469    Cartesian    0.25
    308 z         11.014756     11.011561    -0.003195    Cartesian   -0.03
    309 x          6.608853      6.618918     0.010065    Cartesian    0.15
    309 y          6.608853      6.619343     0.010489    Cartesian    0.16
    309 z         -6.608853     -6.616288    -0.007434    Cartesian    0.11
    310 x          6.608853      6.607892    -0.000961    Cartesian   -0.01
    310 y         -6.608853     -6.606892     0.001962    Cartesian   -0.03
    310 z          6.608853      6.609027     0.000174    Cartesian    0.00
    311 x         11.014756     11.017628     0.002872    Cartesian    0.03
    311 y          2.202951      2.205351     0.002400    Cartesian    0.11
    311 z          6.608853      6.604802    -0.004051    Cartesian   -0.06
    312 x         11.014756     11.020820     0.006064    Cartesian    0.06
    312 y          6.608853      6.614008     0.005155    Cartesian    0.08
    312 z          2.202951      2.203793     0.000842    Cartesian    0.04
    313 x          8.811805      8.835034     0.023229    Cartesian    0.26
    313 y          8.811805      8.831484     0.019679    Cartesian    0.22
    313 z          4.405902      4.414250     0.008348    Cartesian    0.19
    314 x          4.405902      4.408437     0.002534    Cartesian    0.06
    314 y          4.405902      4.407979     0.002077    Cartesian    0.05
    314 z         -8.811805     -8.841614    -0.029809    Cartesian    0.34
    315 x          4.405902      4.405212    -0.000690    Cartesian   -0.02
    315 y         -8.811805     -8.824736    -0.012931    Cartesian    0.15
    315 z          4.405902      4.407912     0.002010    Cartesian    0.05
    316 x          8.811805      8.829678     0.017874    Cartesian    0.20
    316 y          4.405902      4.411632     0.005729    Cartesian    0.13
    316 z          8.811805      8.831186     0.019382    Cartesian    0.22
    317 x          2.202951      2.202951     0.000000    Cartesian    0.00
    317 y         -6.608853     -6.610352    -0.001498    Cartesian    0.02
    317 z         -6.608853     -6.607504     0.001350    Cartesian   -0.02
    318 x          6.608853      6.614028     0.005175    Cartesian    0.08
    318 y          2.202951      2.203110     0.000159    Cartesian    0.01
    318 z         11.014756     11.018950     0.004194    Cartesian    0.04
    319 x          6.608853      6.610056     0.001203    Cartesian    0.02
    319 y         11.014756     11.022325     0.007570    Cartesian    0.07
    319 z          2.202951      2.202186    -0.000765    Cartesian   -0.03
    320 x         11.014756     11.017898     0.003142    Cartesian    0.03
    320 y          6.608853      6.612231     0.003377    Cartesian    0.05
    320 z         -2.202951     -2.201344     0.001608    Cartesian   -0.07
    321 x         11.014756     11.016736     0.001980    Cartesian    0.02
    321 y         -2.202951     -2.201419     0.001532    Cartesian   -0.07
    321 z          6.608853      6.611713     0.002860    Cartesian    0.04
    322 x          4.405902      4.410846     0.004944    Cartesian    0.11
    322 y          8.811805      8.827268     0.015463    Cartesian    0.18
    322 z          8.811805      8.831206     0.019401    Cartesian    0.22
    323 x         13.217707     13.241649     0.023942    Cartesian    0.18
    323 y          0.000000     -0.000983    -0.000983    Cartesian    0.00
    323 z          0.000000      0.000021     0.000021    Cartesian    0.00
    324 x          6.608853      6.613703     0.004849    Cartesian    0.07
    324 y         11.014756     11.022705     0.007949    Cartesian    0.07
    324 z         -2.202951     -2.205149    -0.002198    Cartesian    0.10
    325 x          2.202951      2.202951     0.000000    Cartesian    0.00
    325 y          6.608853      6.617306     0.008453    Cartesian    0.13
    325 z         11.014756     11.017344     0.002588    Cartesian    0.02
    326 x          2.202951      2.202951     0.000000    Cartesian    0.00
    326 y         11.014756     11.020350     0.005594    Cartesian    0.05
    326 z          6.608853      6.607289    -0.001564    Cartesian   -0.02
    327 x          6.608853      6.611442     0.002589    Cartesian    0.04
    327 y         -2.202951     -2.205383    -0.002432    Cartesian    0.11
    327 z         11.014756     11.020180     0.005424    Cartesian    0.05
    328 x          4.405902      4.412766     0.006864    Cartesian    0.16
    328 y         -4.405902     -4.422075    -0.016172    Cartesian    0.37
    328 z         -8.811805     -8.832419    -0.020614    Cartesian    0.23
    329 x          4.405902      4.410096     0.004193    Cartesian    0.10
    329 y         -8.811805     -8.830029    -0.018225    Cartesian    0.21
    329 z         -4.405902     -4.413484    -0.007582    Cartesian    0.17
    330 x          8.811805      8.832328     0.020524    Cartesian    0.23
    330 y          8.811805      8.834891     0.023086    Cartesian    0.26
    330 z         -4.405902     -4.414829    -0.008926    Cartesian    0.20
    331 x          8.811805      8.826269     0.014464    Cartesian    0.16
    331 y         -4.405902     -4.418293    -0.012391    Cartesian    0.28
    331 z          8.811805      8.829441     0.017637    Cartesian    0.20
    332 x         13.217707     13.238306     0.020599    Cartesian    0.16
    332 y          0.000000     -0.001658    -0.001658    Cartesian    0.00
    332 z          4.405902      4.412708     0.006805    Cartesian    0.15
    333 x         13.217707     13.245010     0.027303    Cartesian    0.21
    333 y          4.405902      4.409404     0.003502    Cartesian    0.08
    333 z          0.000000     -0.000815    -0.000815    Cartesian    0.00
    334 x          6.608853      6.611807     0.002954    Cartesian    0.04
    334 y         -6.608853     -6.613617    -0.004763    Cartesian    0.07
    334 z         -6.608853     -6.613714    -0.004860    Cartesian    0.07
    335 x         11.014756     11.019125     0.004369    Cartesian    0.04
    335 y          2.202951      2.205901     0.002950    Cartesian    0.13
    335 z         -6.608853     -6.608024     0.000829    Cartesian   -0.01
    336 x         11.014756     11.022260     0.007504    Cartesian    0.07
    336 y          6.608853      6.613426     0.004572    Cartesian    0.07
    336 z          6.608853      6.614574     0.005720    Cartesian    0.09
    337 x         11.014756     11.017142     0.002387    Cartesian    0.02
    337 y         -6.608853     -6.610115    -0.001262    Cartesian    0.02
    337 z          2.202951      2.206554     0.003602    Cartesian    0.16
    338 x         13.217707     13.241038     0.023331    Cartesian    0.18
    338 y          4.405902      4.411866     0.005964    Cartesian    0.14
    338 z          4.405902      4.415578     0.009676    Cartesian    0.22
    339 x          8.811805      8.828592     0.016787    Cartesian    0.19
    339 y          0.000000     -0.005201    -0.005201    Cartesian    0.00
    339 z         -8.811805     -8.837247    -0.025443    Cartesian    0.29
    340 x          8.811805      8.821641     0.009836    Cartesian    0.11
    340 y         -8.811805     -8.831931    -0.020126    Cartesian    0.23
    340 z          0.000000     -0.001863    -0.001863    Cartesian    0.00
--------------------------------------------------------------------------------


  Time to end of optimisation  =       36.1587 seconds


  Peak dynamic memory used =     107.81 MB 


  Timing analysis for GULP :

--------------------------------------------------------------------------------
  Task / Subroutine                                          Time (Seconds)
--------------------------------------------------------------------------------
  Calculation of reciprocal space energy and derivatives          0.0004
  Calculation of reciprocal space energy using symmetry           0.0007
  Calculation of real space energy and derivatives                0.0022
  Calculation of real space energy using symmetry                 0.0067
  Calculation for region 1 energy and derivatives (2-b)          20.8951
  Calculation for region 2a energy                               13.9107
  Calculation for region 2b energy                                0.0046
  Calculation and manipulation of Hessian matrix                  0.1051
  Calculation of matrix inversion                                 1.0372
  Symmetry generation of equivalent positions                     0.0026
--------------------------------------------------------------------------------
  Total CPU time                                                 36.1588
--------------------------------------------------------------------------------


  Dump file written as Na3OCl.grs


  Job Finished at 15:17.09  2nd January    2021                               

