********************************************************************************
*                       GENERAL UTILITY LATTICE PROGRAM                        *
*                                 Julian Gale                                  *
*                       Curtin Institute for Computation                       *
*                    School of Molecular and Life Sciences                     *
*                    Curtin University, Western Australia                      *
********************************************************************************
* Version = 5.2.0 * Last modified =  10th September 2020                       *
********************************************************************************
*  optimise     - perform optimisation run                                     *
*  conp         - constant pressure calculation                                *
*  property     - calculate properties for final geometry                      *
*  defect       - perform defect calculation after bulk run                    *
*  compare      - compare initial and final structures                         *
********************************************************************************

  Job Started  at 15:17.07  2nd January    2021                               

  Number of CPUs =     1


  Total number of configurations input =      1

********************************************************************************
*  Input for Configuration =   1                                               *
********************************************************************************

  Formula = ClONa3                                                      

  Number of irreducible atoms/shells =       5


  Total number atoms/shells =       7

  Dimensionality = 3               :  Bulk   


  Symmetry :

  Crystal family                   :  Cubic       
  Crystal class  (Groth - 1921)    :  Cubic Hexakisoctahedral              

  Space group (centrosymmetric)    :  P M 3 M         

  Patterson group                  :  P m -3 m 

  Cartesian lattice vectors (Angstroms) :

        4.504000    0.000000    0.000000
        0.000000    4.504000    0.000000
        0.000000    0.000000    4.504000

  Cell parameters (Angstroms/Degrees):

  a =       4.5040    alpha =  90.0000
  b =       4.5040    beta  =  90.0000
  c =       4.5040    gamma =  90.0000

  Initial cell volume =          91.368216 Angs**3

  Temperature of configuration =   0.00     K 

  Pressure of configuration =         0.000 GPa 

  Fractional coordinates of asymmetric unit :

--------------------------------------------------------------------------------
   No.  Atomic       x           y          z         Charge      Occupancy
        Label      (Frac)      (Frac)     (Frac)        (e)         (Frac)  
--------------------------------------------------------------------------------
      1 Cl    c    0.000000    0.000000    0.000000     1.48500    1.000000    
      2 O     c    0.500000    0.500000    0.500000     0.18300    1.000000    
      3 Na    c    0.500000    0.500000    0.000000     1.00000    1.000000    
      4 Cl    s    0.000000    0.000000    0.000000    -2.48500    1.000000    
      5 O     s    0.500000    0.500000    0.500000    -2.18300    1.000000    
--------------------------------------------------------------------------------


  Constraints : 

--------------------------------------------------------------------------------
  Constraint no.      Unconstrained     Constrained    Coefficient    Offset
                         Variable         Variable
--------------------------------------------------------------------------------
           1              Strain 1        Strain 2       1.00000      0.0000
           2              Strain 1        Strain 3       1.00000      0.0000
--------------------------------------------------------------------------------


********************************************************************************
*  General input information                                                   *
********************************************************************************

  Species output for all configurations : 

--------------------------------------------------------------------------------
  Species    Type    Atomic    Atomic    Charge       Radii (Angs)     Library
                     Number     Mass       (e)     Cova   Ionic  VDW   Symbol
--------------------------------------------------------------------------------
    Na       Core       11      22.99   1.000000   0.970  0.000  2.300          
    O        Core        8      16.00   0.183000   0.730  0.000  1.360          
    O        Shell       8       0.00  -2.183000   0.730  0.000  1.360          
    Cl       Core       17      35.45   1.485000   0.990  0.000  1.650          
    Cl       Shell      17       0.00  -2.485000   0.990  0.000  1.650          
    Mg       Core       12      24.31   0.415000   1.100  0.000  0.000          
    Mg       Shell      12       0.00   1.585000   1.100  0.000  0.000          
    Ca       Core       20      40.08  -1.135000   0.990  0.000  0.000          
    Ca       Shell      20       0.00   3.135000   0.990  0.000  0.000          
    Sr       Core       38      87.62  -1.251000   1.120  0.000  0.000          
    Sr       Shell      38       0.00   3.251000   1.120  0.000  0.000          
    Ba       Core       56     137.33  -7.203000   1.340  0.000  0.000          
    Ba       Shell      56       0.00   9.203000   1.340  0.000  0.000          
--------------------------------------------------------------------------------


  Lattice summation method               =    Ewald          (3-D)
                                         =    Parry          (2-D)
                                         =    Saunders et al (1-D)
  Accuracy factor for lattice sums       =   12.000


  Analytic derivatives to be used

  Time limit = Infinity

  Maximum range for interatomic potentials =    100000.000000 Angstroms

  General interatomic potentials :

--------------------------------------------------------------------------------
Atom  Types   Potential      Parameter       Value         Units   Cutoffs(Ang)
  1     2                                                            Min /  Max 
--------------------------------------------------------------------------------
O    c O    s Spring (c-s)  Spring k 2       593.71600    eV*Ang^-2 0.000  0.800
                            Spring k 4       0.0000000    eV*Ang^-4 
--------------------------------------------------------------------------------
Cl   c Cl   s Spring (c-s)  Spring k 2       29.380000    eV*Ang^-2 0.000  0.800
                            Spring k 4       0.0000000    eV*Ang^-4 
--------------------------------------------------------------------------------
Mg   c Mg   s Spring (c-s)  Spring k 2       361.60000    eV*Ang^-2 0.000  0.800
                            Spring k 4       0.0000000    eV*Ang^-4 
--------------------------------------------------------------------------------
Ca   c Ca   s Spring (c-s)  Spring k 2       110.20000    eV*Ang^-2 0.000  0.800
                            Spring k 4       0.0000000    eV*Ang^-4 
--------------------------------------------------------------------------------
Sr   c Sr   s Spring (c-s)  Spring k 2       71.700000    eV*Ang^-2 0.000  0.800
                            Spring k 4       0.0000000    eV*Ang^-4 
--------------------------------------------------------------------------------
Ba   c Ba   s Spring (c-s)  Spring k 2       495.20000    eV*Ang^-2 0.000  0.800
                            Spring k 4       0.0000000    eV*Ang^-4 
--------------------------------------------------------------------------------
Na   c Na   c Buckingham    Buckingham A     1788.1900    eV        0.000 12.000
                            Buckingham rho  0.15900000    Ang       
                            Buckingham C     0.0000000    eV*Ang^6  
--------------------------------------------------------------------------------
Na   c O    s Buckingham    Buckingham A     588.38000    eV        0.000 12.000
                            Buckingham rho  0.33800000    Ang       
                            Buckingham C     0.0000000    eV*Ang^6  
--------------------------------------------------------------------------------
Na   c Cl   s Buckingham    Buckingham A     1170.4100    eV        0.000 12.000
                            Buckingham rho  0.31500000    Ang       
                            Buckingham C     0.0000000    eV*Ang^6  
--------------------------------------------------------------------------------
O    s O    s Buckingham    Buckingham A     22764.300    eV        0.000 12.000
                            Buckingham rho  0.14900000    Ang       
                            Buckingham C     13.190000    eV*Ang^6  
--------------------------------------------------------------------------------
O    s Cl   s Buckingham    Buckingham A     8286.9100    eV        0.000 12.000
                            Buckingham rho  0.25900000    Ang       
                            Buckingham C     62.200000    eV*Ang^6  
--------------------------------------------------------------------------------
Cl   s Cl   s Buckingham    Buckingham A     1227.2000    eV        0.000 12.000
                            Buckingham rho  0.32100000    Ang       
                            Buckingham C     14.530000    eV*Ang^6  
--------------------------------------------------------------------------------
O    s Mg   s Buckingham    Buckingham A     1428.5000    eV        0.000 12.000
                            Buckingham rho  0.29450000    Ang       
                            Buckingham C     0.0000000    eV*Ang^6  
--------------------------------------------------------------------------------
Mg   s Cl   s Buckingham    Buckingham A     4914.5400    eV        0.000 12.000
                            Buckingham rho  0.25700000    Ang       
                            Buckingham C     0.0000000    eV*Ang^6  
--------------------------------------------------------------------------------
O    s Ca   s Buckingham    Buckingham A     1090.4000    eV        0.000 12.000
                            Buckingham rho  0.34370000    Ang       
                            Buckingham C     0.0000000    eV*Ang^6  
--------------------------------------------------------------------------------
Cl   s Ca   s Buckingham    Buckingham A     2302.0000    eV        0.000 12.000
                            Buckingham rho  0.34020000    Ang       
                            Buckingham C     0.0000000    eV*Ang^6  
--------------------------------------------------------------------------------
O    s Sr   s Buckingham    Buckingham A     959.10000    eV        0.000 12.000
                            Buckingham rho  0.37210000    Ang       
                            Buckingham C     0.0000000    eV*Ang^6  
--------------------------------------------------------------------------------
Cl   s Sr   s Buckingham    Buckingham A     2191.0900    eV        0.000 12.000
                            Buckingham rho  0.34570000    Ang       
                            Buckingham C     0.0000000    eV*Ang^6  
--------------------------------------------------------------------------------
O    s Ba   s Buckingham    Buckingham A     905.70000    eV        0.000 12.000
                            Buckingham rho  0.39760000    Ang       
                            Buckingham C     0.0000000    eV*Ang^6  
--------------------------------------------------------------------------------
Cl   s Ba   s Buckingham    Buckingham A     2704.5500    eV        0.000 12.000
                            Buckingham rho  0.35280000    Ang       
                            Buckingham C     0.0000000    eV*Ang^6  
--------------------------------------------------------------------------------

********************************************************************************
*  Output for configuration   1                                                *
********************************************************************************


  Components of energy : 

--------------------------------------------------------------------------------
  Interatomic potentials     =           4.94315381 eV    
  Monopole - monopole (real) =         -10.03624526 eV    
  Monopole - monopole (recip)=         -29.53581274 eV    
  Monopole - monopole (total)=         -39.57205800 eV    
--------------------------------------------------------------------------------
  Total lattice energy       =         -34.62890419 eV    
--------------------------------------------------------------------------------
  Total lattice energy       =           -3341.1599 kJ/(mole unit cells)
--------------------------------------------------------------------------------


  Number of variables =        1

  Maximum number of calculations  =          1000
  Maximum Hessian update interval =            10
  Maximum step size               =   1.000000000
  Maximum parameter tolerance     =   0.000010000
  Maximum function  tolerance     =   0.000010000
  Maximum gradient  tolerance     =   0.001000000
  Maximum gradient  component     =   0.010000000

  Symmetry constrained optimisation

  Symmetry used for second derivatives

  Cell parameters to be optimised using strains

  Newton-Raphson optimiser to be used

  BFGS hessian update to be used

  Lower half triangular hessian to be used

  Start of bulk optimisation :

  Cycle:      0 Energy:       -34.628904  Gnorm:      4.328237  CPU:    0.016
  ** Hessian calculated **
  Cycle:      1 Energy:       -34.677667  Gnorm:      0.044008  CPU:    0.021
  Cycle:      2 Energy:       -34.677671  Gnorm:      0.003653  CPU:    0.024


  **** Optimisation achieved ****


  Final energy =     -34.67767136 eV
  Final Gnorm  =       0.00000010

  Components of energy : 

--------------------------------------------------------------------------------
  Interatomic potentials     =           5.77546103 eV    
  Monopole - monopole (real) =         -10.25970290 eV    
  Monopole - monopole (recip)=         -30.19342950 eV    
  Monopole - monopole (total)=         -40.45313239 eV    
--------------------------------------------------------------------------------
  Total lattice energy       =         -34.67767136 eV    
--------------------------------------------------------------------------------
  Total lattice energy       =           -3345.8652 kJ/(mole unit cells)
--------------------------------------------------------------------------------

  Final asymmetric unit coordinates :

--------------------------------------------------------------------------------
   No.  Atomic        x           y           z         Radius
        Label       (Frac)      (Frac)      (Frac)       (Angs) 
--------------------------------------------------------------------------------
     1  Cl    c     0.000000    0.000000    0.000000    0.000000
     2  O     c     0.500000    0.500000    0.500000    0.000000
     3  Na    c     0.500000    0.500000    0.000000    0.000000
     4  Cl    s     0.000000    0.000000    0.000000    0.000000
     5  O     s     0.500000    0.500000    0.500000    0.000000
--------------------------------------------------------------------------------

  Final Cartesian lattice vectors (Angstroms) :

        4.405902    0.000000    0.000000
        0.000000    4.405902    0.000000
        0.000000    0.000000    4.405902


  Final cell parameters and derivatives :

--------------------------------------------------------------------------------
       a            4.405902 Angstrom     dE/de1(xx)     0.000000 eV/strain
       b            4.405902 Angstrom     dE/de2(yy)     0.000000 eV/strain
       c            4.405902 Angstrom     dE/de3(zz)     0.000000 eV/strain
       alpha       90.000000 Degrees      dE/de4(yz)     0.000000 eV/strain
       beta        90.000000 Degrees      dE/de5(xz)     0.000000 eV/strain
       gamma       90.000000 Degrees      dE/de6(xy)     0.000000 eV/strain
--------------------------------------------------------------------------------

  Primitive cell volume =            85.527266 Angs**3

  Density of cell =      2.338030 g/cm**3

  Non-primitive cell volume =            85.527266 Angs**3


  Final internal derivatives :

--------------------------------------------------------------------------------
   No.  Atomic          a             b             c           Radius
        Label          (eV)          (eV)          (eV)        (eV/Angs)
--------------------------------------------------------------------------------
      1 Cl    c       0.000000      0.000000      0.000000      0.000000
      2 O     c       0.000000      0.000000      0.000000      0.000000
      3 Na    c       0.000000      0.000000      0.000000      0.000000
      4 Cl    s       0.000000      0.000000      0.000000      0.000000
      5 O     s       0.000000      0.000000      0.000000      0.000000
--------------------------------------------------------------------------------
  Maximum abs         0.000000      0.000000      0.000000      0.000000
--------------------------------------------------------------------------------

  Comparison of initial and final structures : 

--------------------------------------------------------------------------------
  Parameter   Initial value   Final value   Difference    Units      Percent
--------------------------------------------------------------------------------
    Volume        91.368216     85.527266    -5.840950    Angs**3     -6.39
    a              4.504000      4.405902    -0.098098    Angstroms   -2.18
    b              4.504000      4.405902    -0.098098    Angstroms   -2.18
    c              4.504000      4.405902    -0.098098    Angstroms   -2.18
    alpha         90.000000     90.000000     0.000000    Degrees      0.00
    beta          90.000000     90.000000     0.000000    Degrees      0.00
    gamma         90.000000     90.000000     0.000000    Degrees      0.00
      1 x          0.000000      0.000000     0.000000    Fractional   0.00
      1 y          0.000000      0.000000     0.000000    Fractional   0.00
      1 z          0.000000      0.000000     0.000000    Fractional   0.00
      2 x          0.500000      0.500000     0.000000    Fractional   0.00
      2 y          0.500000      0.500000     0.000000    Fractional   0.00
      2 z          0.500000      0.500000     0.000000    Fractional   0.00
      3 x          0.500000      0.500000     0.000000    Fractional   0.00
      3 y          0.500000      0.500000     0.000000    Fractional   0.00
      3 z          0.000000      0.000000     0.000000    Fractional   0.00
      4 x          0.000000      0.000000     0.000000    Fractional   0.00
      4 y          0.000000      0.000000     0.000000    Fractional   0.00
      4 z          0.000000      0.000000     0.000000    Fractional   0.00
      5 x          0.500000      0.500000     0.000000    Fractional   0.00
      5 y          0.500000      0.500000     0.000000    Fractional   0.00
      5 z          0.500000      0.500000     0.000000    Fractional   0.00
--------------------------------------------------------------------------------


  Born effective charge tensors : 

-------------------------------------------------------------------------------
  Atom             x           y             z
-------------------------------------------------------------------------------
    1 Cl    x      -0.9918     -0.0000     -0.0000
            y      -0.0000     -0.9918     -0.0000
            z      -0.0000     -0.0000     -0.9918
-------------------------------------------------------------------------------
    2 O     x      -2.2939      0.0000      0.0000
            y       0.0000     -2.2939      0.0000
            z       0.0000      0.0000     -2.2939
-------------------------------------------------------------------------------
    3 Na    x       1.2243      0.0000      0.0000
            y       0.0000      1.2243     -0.0000
            z       0.0000      0.0000      0.8372
-------------------------------------------------------------------------------




  Elastic Constant Matrix: (Units=GPa)

-------------------------------------------------------------------------------
  Indices      1         2         3         4         5         6    
-------------------------------------------------------------------------------
       1     82.7680   24.3534   24.3534   -0.0000    0.0000   -0.0000
       2     24.3534   82.7680   24.3534    0.0000   -0.0000   -0.0000
       3     24.3534   24.3534   82.7680    0.0000   -0.0000    0.0000
       4     -0.0000    0.0000    0.0000   24.3534   -0.0000    0.0000
       5      0.0000   -0.0000   -0.0000   -0.0000   24.3534    0.0000
       6     -0.0000   -0.0000    0.0000    0.0000    0.0000   24.3534
-------------------------------------------------------------------------------


  Elastic Compliance Matrix: (Units=1/GPa)

-------------------------------------------------------------------------------
  Indices      1         2         3         4         5         6    
-------------------------------------------------------------------------------
       1    0.013948 -0.003171 -0.003171  0.000000 -0.000000  0.000000
       2   -0.003171  0.013948 -0.003171 -0.000000  0.000000 -0.000000
       3   -0.003171 -0.003171  0.013948 -0.000000  0.000000 -0.000000
       4    0.000000 -0.000000 -0.000000  0.041062  0.000000 -0.000000
       5   -0.000000  0.000000  0.000000  0.000000  0.041062 -0.000000
       6    0.000000 -0.000000 -0.000000 -0.000000 -0.000000  0.041062
-------------------------------------------------------------------------------

  Mechanical properties :

-------------------------------------------------------------------------------
  Convention :                    Reuss         Voigt         Hill
-------------------------------------------------------------------------------
  Bulk  Modulus (GPa)     =      43.82493      43.82493      43.82493
  Shear Modulus (GPa)     =      26.08758      26.29496      26.19127
-------------------------------------------------------------------------------
  Velocity S-wave (km/s)  =       3.34035       3.35360       3.34698
  Velocity P-wave (km/s)  =       5.79842       5.80861       5.80351
-------------------------------------------------------------------------------
  Compressibility (1/GPa) =    0.02281806
-------------------------------------------------------------------------------
  Stress axis :                     x             y             z
-------------------------------------------------------------------------------
  Youngs Moduli (GPa)     =      71.69479      71.69479      71.69479
-------------------------------------------------------------------------------
  Poissons Ratio (x)      =                     0.22734       0.22734
  Poissons Ratio (y)      =       0.22734                     0.22734
  Poissons Ratio (z)      =       0.22734       0.22734
-------------------------------------------------------------------------------


  Piezoelectric Strain Matrix: (Units=C/m**2)

-------------------------------------------------------------------------------
  Indices      1         2         3         4         5         6    
-------------------------------------------------------------------------------
       x    -0.00000  -0.00000  -0.00000  -0.00000   0.00000  -0.00000
       y     0.00000  -0.00000   0.00000   0.00000  -0.00000   0.00000
       z    -0.00000  -0.00000   0.00000  -0.00000   0.00000  -0.00000
-------------------------------------------------------------------------------


  Piezoelectric Stress Matrix: (Units=10**-11 C/N)

-------------------------------------------------------------------------------
  Indices      1         2         3         4         5         6    
-------------------------------------------------------------------------------
       x     0.00000  -0.00000  -0.00000  -0.00000   0.00000  -0.00000
       y     0.00000  -0.00000   0.00000   0.00000  -0.00000   0.00000
       z    -0.00000  -0.00000   0.00000  -0.00000   0.00000  -0.00000
-------------------------------------------------------------------------------


  Static dielectric constant tensor : 

-------------------------------------------------------------------------------
              x         y         z
-------------------------------------------------------------------------------
       x    11.08357   0.00000   0.00000
       y     0.00000  11.08357   0.00000
       z     0.00000   0.00000  11.08357
--------------------------------------------------------------------------------

  High frequency dielectric constant tensor : 

-------------------------------------------------------------------------------
              x         y         z
-------------------------------------------------------------------------------
       x     1.50771   0.00000   0.00000
       y     0.00000   1.50771   0.00000
       z     0.00000   0.00000   1.50771
-------------------------------------------------------------------------------

  Static refractive indices : 

-------------------------------------------------------------------------------
    1 =    3.32920      2 =    3.32920      3 =    3.32920
-------------------------------------------------------------------------------

  High frequency refractive indices : 

-------------------------------------------------------------------------------
    1 =    1.22789      2 =    1.22789      3 =    1.22789
-------------------------------------------------------------------------------


  Time to end of optimisation =       0.0345 seconds

********************************************************************************
*  Defect calculation for configuration   1 :                                  *
********************************************************************************

  Total number of defects =      3

  Total charge on defect  =  -1.00

  Defect centre is at   0.5000   0.2500   0.2500  Frac

  Region 1 radius =  12.0000      Number of ions =    593

  Number of symmetry inequivalent region 1 ions  =    340

  Region 2 radius =  16.0000      Number of ions =    832

  Number of symmetry inequivalent region 2a ions =    454

  Region 2a mode = 4 : screened electrostatics due to region 1 
                       neglect correction to region 1 forces from 2a
                       region 2a displacements based on defects only

  Region 2a ions will only interact with defects in region 1

  Vacancies:

--------------------------------------------------------------------------------
    Specification type     Symbol/Number         x          y          z
--------------------------------------------------------------------------------
    Fractional                               0.500000   0.500000   0.000000
    Fractional                               0.500000   0.000000   0.500000
--------------------------------------------------------------------------------

  Interstitials:

--------------------------------------------------------------------------------
    Specification type     Symbol/Number         x          y          z
--------------------------------------------------------------------------------
    Atom/Fractional         Na               0.500000   0.170000   0.330000
--------------------------------------------------------------------------------


  Symmetry reduced region 1 (Relative to defect centre) :

--------------------------------------------------------------------------------
   No.   Atomic       x            y             z       Radius  Multiplicity   
         Label      (Angs)       (Angs)        (Angs)    (Angs)     
--------------------------------------------------------------------------------
     1  Na    c      0.0000      -0.3525       0.3525    0.0000     1    Defect
     2  O     c      0.0000       1.1015 *     1.1015 *  0.0000     1          
     3  Cl    c      2.2030 *    -1.1015 *    -1.1015 *  0.0000     2          
     4  Na    c      2.2030 *     1.1015 *     1.1015 *  0.0000     2          
     5  O     c      0.0000       1.1015 *    -3.3044 *  0.0000     1          
     6  O     c      0.0000      -3.3044 *     1.1015 *  0.0000     1          
     7  Na    c      0.0000       1.1015 *     3.3044 *  0.0000     1          
     8  Na    c      0.0000      -3.3044 *    -1.1015 *  0.0000     1          
     9  Na    c      0.0000      -1.1015 *    -3.3044 *  0.0000     1          
    10  Na    c      0.0000       3.3044 *     1.1015 *  0.0000     1          
    11  Cl    c      2.2030 *    -1.1015 *     3.3044 *  0.0000     2          
    12  Na    c      2.2030 *     1.1015 *    -3.3044 *  0.0000     2          
    13  Cl    c      2.2030 *     3.3044 *    -1.1015 *  0.0000     2          
    14  Na    c      2.2030 *    -3.3044 *     1.1015 *  0.0000     2          
    15  O     c      0.0000      -3.3044 *    -3.3044 *  0.0000     1          
    16  Na    c      0.0000      -3.3044 *     3.3044 *  0.0000     1          
    17  Na    c      0.0000       3.3044 *    -3.3044 *  0.0000     1          
    18  O     c      4.4059 *     1.1015 *     1.1015 *  0.0000     2          
    19  Na    c      4.4059 *     1.1015 *    -1.1015 *  0.0000     2          
    20  Na    c      4.4059 *    -1.1015 *     1.1015 *  0.0000     2          
    21  Cl    c      2.2030 *     3.3044 *     3.3044 *  0.0000     2          
    22  Na    c      2.2030 *    -3.3044 *    -3.3044 *  0.0000     2          
    23  O     c      0.0000       1.1015 *     5.5074 *  0.0000     1          
    24  O     c      0.0000       5.5074 *     1.1015 *  0.0000     1          
    25  O     c      4.4059 *     1.1015 *    -3.3044 *  0.0000     2          
    26  Na    c      0.0000       1.1015 *    -5.5074 *  0.0000     1          
    27  Na    c      0.0000       5.5074 *    -1.1015 *  0.0000     1          
    28  Na    c      4.4059 *     1.1015 *     3.3044 *  0.0000     2          
    29  Na    c      0.0000      -1.1015 *     5.5074 *  0.0000     1          
    30  Na    c      0.0000      -5.5074 *     1.1015 *  0.0000     1          
    31  Na    c      4.4059 *    -1.1015 *    -3.3044 *  0.0000     2          
    32  O     c      4.4059 *    -3.3044 *     1.1015 *  0.0000     2          
    33  Na    c      4.4059 *    -3.3044 *    -1.1015 *  0.0000     2          
    34  Na    c      4.4059 *     3.3044 *     1.1015 *  0.0000     2          
    35  Cl    c      2.2030 *    -1.1015 *    -5.5074 *  0.0000     2          
    36  Cl    c      2.2030 *    -5.5074 *    -1.1015 *  0.0000     2          
    37  Na    c      2.2030 *     1.1015 *     5.5074 *  0.0000     2          
    38  Na    c      2.2030 *     5.5074 *     1.1015 *  0.0000     2          
    39  O     c      0.0000       5.5074 *    -3.3044 *  0.0000     1          
    40  O     c      0.0000      -3.3044 *     5.5074 *  0.0000     1          
    41  Na    c      0.0000       5.5074 *     3.3044 *  0.0000     1          
    42  Na    c      0.0000      -3.3044 *    -5.5074 *  0.0000     1          
    43  Na    c      0.0000       3.3044 *     5.5074 *  0.0000     1          
    44  Na    c      0.0000      -5.5074 *    -3.3044 *  0.0000     1          
    45  O     c      4.4059 *    -3.3044 *    -3.3044 *  0.0000     2          
    46  Na    c      4.4059 *    -3.3044 *     3.3044 *  0.0000     2          
    47  Na    c      4.4059 *     3.3044 *    -3.3044 *  0.0000     2          
    48  Cl    c      6.6089 *    -1.1015 *    -1.1015 *  0.0000     2          
    49  Na    c      6.6089 *     1.1015 *     1.1015 *  0.0000     2          
    50  Cl    c      2.2030 *     3.3044 *    -5.5074 *  0.0000     2          
    51  Cl    c      2.2030 *    -5.5074 *     3.3044 *  0.0000     2          
    52  Na    c      2.2030 *     5.5074 *    -3.3044 *  0.0000     2          
    53  Na    c      2.2030 *    -3.3044 *     5.5074 *  0.0000     2          
    54  O     c      4.4059 *     1.1015 *     5.5074 *  0.0000     2          
    55  O     c      4.4059 *     5.5074 *     1.1015 *  0.0000     2          
    56  Na    c      4.4059 *     1.1015 *    -5.5074 *  0.0000     2          
    57  Na    c      4.4059 *     5.5074 *    -1.1015 *  0.0000     2          
    58  Na    c      4.4059 *    -1.1015 *     5.5074 *  0.0000     2          
    59  Na    c      4.4059 *    -5.5074 *     1.1015 *  0.0000     2          
    60  Cl    c      6.6089 *    -1.1015 *     3.3044 *  0.0000     2          
    61  Cl    c      6.6089 *     3.3044 *    -1.1015 *  0.0000     2          
    62  Na    c      6.6089 *     1.1015 *    -3.3044 *  0.0000     2          
    63  Na    c      6.6089 *    -3.3044 *     1.1015 *  0.0000     2          
    64  O     c      0.0000       1.1015 *    -7.7103 *  0.0000     1          
    65  O     c      0.0000       5.5074 *     5.5074 *  0.0000     1          
    66  O     c      0.0000      -7.7103 *     1.1015 *  0.0000     1          
    67  Na    c      0.0000       1.1015 *     7.7103 *  0.0000     1          
    68  Na    c      0.0000       5.5074 *    -5.5074 *  0.0000     1          
    69  Na    c      0.0000      -7.7103 *    -1.1015 *  0.0000     1          
    70  Na    c      0.0000      -1.1015 *    -7.7103 *  0.0000     1          
    71  Na    c      0.0000       7.7103 *     1.1015 *  0.0000     1          
    72  Na    c      0.0000      -5.5074 *     5.5074 *  0.0000     1          
    73  O     c      4.4059 *     5.5074 *    -3.3044 *  0.0000     2          
    74  O     c      4.4059 *    -3.3044 *     5.5074 *  0.0000     2          
    75  Na    c      4.4059 *     5.5074 *     3.3044 *  0.0000     2          
    76  Na    c      4.4059 *    -3.3044 *    -5.5074 *  0.0000     2          
    77  Na    c      4.4059 *     3.3044 *     5.5074 *  0.0000     2          
    78  Na    c      4.4059 *    -5.5074 *    -3.3044 *  0.0000     2          
    79  Cl    c      2.2030 *    -1.1015 *     7.7103 *  0.0000     2          
    80  Cl    c      2.2030 *    -5.5074 *    -5.5074 *  0.0000     2          
    81  Cl    c      6.6089 *     3.3044 *     3.3044 *  0.0000     2          
    82  Na    c      2.2030 *     1.1015 *    -7.7103 *  0.0000     2          
    83  Na    c      2.2030 *     5.5074 *     5.5074 *  0.0000     2          
    84  Na    c      6.6089 *    -3.3044 *    -3.3044 *  0.0000     2          
    85  Cl    c      2.2030 *     7.7103 *    -1.1015 *  0.0000     2          
    86  Na    c      2.2030 *    -7.7103 *     1.1015 *  0.0000     2          
    87  O     c      0.0000      -3.3044 *    -7.7103 *  0.0000     1          
    88  O     c      0.0000      -7.7103 *    -3.3044 *  0.0000     1          
    89  Na    c      0.0000      -3.3044 *     7.7103 *  0.0000     1          
    90  Na    c      0.0000      -7.7103 *     3.3044 *  0.0000     1          
    91  Na    c      0.0000       3.3044 *    -7.7103 *  0.0000     1          
    92  Na    c      0.0000       7.7103 *    -3.3044 *  0.0000     1          
    93  Cl    c      2.2030 *     3.3044 *     7.7103 *  0.0000     2          
    94  Cl    c      6.6089 *    -1.1015 *    -5.5074 *  0.0000     2          
    95  Na    c      2.2030 *    -3.3044 *    -7.7103 *  0.0000     2          
    96  Na    c      6.6089 *     1.1015 *     5.5074 *  0.0000     2          
    97  Cl    c      2.2030 *     7.7103 *     3.3044 *  0.0000     2          
    98  Cl    c      6.6089 *    -5.5074 *    -1.1015 *  0.0000     2          
    99  Na    c      2.2030 *    -7.7103 *    -3.3044 *  0.0000     2          
   100  Na    c      6.6089 *     5.5074 *     1.1015 *  0.0000     2          
   101  O     c      4.4059 *     1.1015 *    -7.7103 *  0.0000     2          
   102  O     c      4.4059 *     5.5074 *     5.5074 *  0.0000     2          
   103  Na    c      4.4059 *     1.1015 *     7.7103 *  0.0000     2          
   104  Na    c      4.4059 *     5.5074 *    -5.5074 *  0.0000     2          
   105  Na    c      4.4059 *    -1.1015 *    -7.7103 *  0.0000     2          
   106  Na    c      4.4059 *    -5.5074 *     5.5074 *  0.0000     2          
   107  O     c      4.4059 *    -7.7103 *     1.1015 *  0.0000     2          
   108  O     c      8.8118 *     1.1015 *     1.1015 *  0.0000     2          
   109  Na    c      4.4059 *    -7.7103 *    -1.1015 *  0.0000     2          
   110  Na    c      8.8118 *     1.1015 *    -1.1015 *  0.0000     2          
   111  Na    c      4.4059 *     7.7103 *     1.1015 *  0.0000     2          
   112  Na    c      8.8118 *    -1.1015 *     1.1015 *  0.0000     2          
   113  Cl    c      6.6089 *     3.3044 *    -5.5074 *  0.0000     2          
   114  Cl    c      6.6089 *    -5.5074 *     3.3044 *  0.0000     2          
   115  Na    c      6.6089 *     5.5074 *    -3.3044 *  0.0000     2          
   116  Na    c      6.6089 *    -3.3044 *     5.5074 *  0.0000     2          
   117  O     c      0.0000       5.5074 *    -7.7103 *  0.0000     1          
   118  O     c      0.0000      -7.7103 *     5.5074 *  0.0000     1          
   119  O     c      4.4059 *    -3.3044 *    -7.7103 *  0.0000     2          
   120  Na    c      0.0000       5.5074 *     7.7103 *  0.0000     1          
   121  Na    c      0.0000      -7.7103 *    -5.5074 *  0.0000     1          
   122  Na    c      4.4059 *    -3.3044 *     7.7103 *  0.0000     2          
   123  Na    c      0.0000       7.7103 *     5.5074 *  0.0000     1          
   124  Na    c      0.0000      -5.5074 *    -7.7103 *  0.0000     1          
   125  Na    c      4.4059 *     3.3044 *    -7.7103 *  0.0000     2          
   126  O     c      4.4059 *    -7.7103 *    -3.3044 *  0.0000     2          
   127  O     c      8.8118 *     1.1015 *    -3.3044 *  0.0000     2          
   128  O     c      8.8118 *    -3.3044 *     1.1015 *  0.0000     2          
   129  Na    c      4.4059 *    -7.7103 *     3.3044 *  0.0000     2          
   130  Na    c      8.8118 *     1.1015 *     3.3044 *  0.0000     2          
   131  Na    c      8.8118 *    -3.3044 *    -1.1015 *  0.0000     2          
   132  Na    c      4.4059 *     7.7103 *    -3.3044 *  0.0000     2          
   133  Na    c      8.8118 *    -1.1015 *    -3.3044 *  0.0000     2          
   134  Na    c      8.8118 *     3.3044 *     1.1015 *  0.0000     2          
   135  Cl    c      2.2030 *     7.7103 *    -5.5074 *  0.0000     2          
   136  Cl    c      2.2030 *    -5.5074 *     7.7103 *  0.0000     2          
   137  Na    c      2.2030 *     5.5074 *    -7.7103 *  0.0000     2          
   138  Na    c      2.2030 *    -7.7103 *     5.5074 *  0.0000     2          
   139  O     c      0.0000       1.1015 *     9.9133 *  0.0000     1          
   140  O     c      0.0000       9.9133 *     1.1015 *  0.0000     1          
   141  O     c      8.8118 *    -3.3044 *    -3.3044 *  0.0000     2          
   142  Na    c      0.0000       1.1015 *    -9.9133 *  0.0000     1          
   143  Na    c      0.0000       9.9133 *    -1.1015 *  0.0000     1          
   144  Na    c      8.8118 *    -3.3044 *     3.3044 *  0.0000     2          
   145  Na    c      0.0000      -1.1015 *     9.9133 *  0.0000     1          
   146  Na    c      0.0000      -9.9133 *     1.1015 *  0.0000     1          
   147  Na    c      8.8118 *     3.3044 *    -3.3044 *  0.0000     2          
   148  Cl    c      2.2030 *    -1.1015 *    -9.9133 *  0.0000     2          
   149  Cl    c      6.6089 *    -1.1015 *     7.7103 *  0.0000     2          
   150  Cl    c      6.6089 *     7.7103 *    -1.1015 *  0.0000     2          
   151  Cl    c      6.6089 *    -5.5074 *    -5.5074 *  0.0000     2          
   152  Na    c      2.2030 *     1.1015 *     9.9133 *  0.0000     2          
   153  Na    c      6.6089 *     1.1015 *    -7.7103 *  0.0000     2          
   154  Na    c      6.6089 *     5.5074 *     5.5074 *  0.0000     2          
   155  Na    c      6.6089 *    -7.7103 *     1.1015 *  0.0000     2          
   156  Cl    c      2.2030 *    -9.9133 *    -1.1015 *  0.0000     2          
   157  Na    c      2.2030 *     9.9133 *     1.1015 *  0.0000     2          
   158  O     c      0.0000       9.9133 *    -3.3044 *  0.0000     1          
   159  O     c      0.0000      -3.3044 *     9.9133 *  0.0000     1          
   160  O     c      4.4059 *     5.5074 *    -7.7103 *  0.0000     2          
   161  O     c      4.4059 *    -7.7103 *     5.5074 *  0.0000     2          
   162  O     c      8.8118 *     1.1015 *     5.5074 *  0.0000     2          
   163  O     c      8.8118 *     5.5074 *     1.1015 *  0.0000     2          
   164  Na    c      0.0000       9.9133 *     3.3044 *  0.0000     1          
   165  Na    c      0.0000      -3.3044 *    -9.9133 *  0.0000     1          
   166  Na    c      4.4059 *     5.5074 *     7.7103 *  0.0000     2          
   167  Na    c      4.4059 *    -7.7103 *    -5.5074 *  0.0000     2          
   168  Na    c      8.8118 *     1.1015 *    -5.5074 *  0.0000     2          
   169  Na    c      8.8118 *     5.5074 *    -1.1015 *  0.0000     2          
   170  Na    c      0.0000       3.3044 *     9.9133 *  0.0000     1          
   171  Na    c      0.0000      -9.9133 *    -3.3044 *  0.0000     1          
   172  Na    c      4.4059 *     7.7103 *     5.5074 *  0.0000     2          
   173  Na    c      4.4059 *    -5.5074 *    -7.7103 *  0.0000     2          
   174  Na    c      8.8118 *    -1.1015 *     5.5074 *  0.0000     2          
   175  Na    c      8.8118 *    -5.5074 *     1.1015 *  0.0000     2          
   176  Cl    c      6.6089 *     7.7103 *     3.3044 *  0.0000     2          
   177  Na    c      6.6089 *    -7.7103 *    -3.3044 *  0.0000     2          
   178  Cl    c      2.2030 *     3.3044 *    -9.9133 *  0.0000     2          
   179  Cl    c      2.2030 *    -9.9133 *     3.3044 *  0.0000     2          
   180  Cl    c      6.6089 *     3.3044 *     7.7103 *  0.0000     2          
   181  Na    c      2.2030 *     9.9133 *    -3.3044 *  0.0000     2          
   182  Na    c      2.2030 *    -3.3044 *     9.9133 *  0.0000     2          
   183  Na    c      6.6089 *    -3.3044 *    -7.7103 *  0.0000     2          
   184  O     c      0.0000      -7.7103 *    -7.7103 *  0.0000     1          
   185  O     c      4.4059 *     1.1015 *     9.9133 *  0.0000     2          
   186  O     c      4.4059 *     9.9133 *     1.1015 *  0.0000     2          
   187  O     c      8.8118 *     5.5074 *    -3.3044 *  0.0000     2          
   188  O     c      8.8118 *    -3.3044 *     5.5074 *  0.0000     2          
   189  Na    c      0.0000      -7.7103 *     7.7103 *  0.0000     1          
   190  Na    c      4.4059 *     1.1015 *    -9.9133 *  0.0000     2          
   191  Na    c      4.4059 *     9.9133 *    -1.1015 *  0.0000     2          
   192  Na    c      8.8118 *     5.5074 *     3.3044 *  0.0000     2          
   193  Na    c      8.8118 *    -3.3044 *    -5.5074 *  0.0000     2          
   194  Na    c      0.0000       7.7103 *    -7.7103 *  0.0000     1          
   195  Na    c      4.4059 *    -1.1015 *     9.9133 *  0.0000     2          
   196  Na    c      4.4059 *    -9.9133 *     1.1015 *  0.0000     2          
   197  Na    c      8.8118 *     3.3044 *     5.5074 *  0.0000     2          
   198  Na    c      8.8118 *    -5.5074 *    -3.3044 *  0.0000     2          
   199  Cl    c      2.2030 *     7.7103 *     7.7103 *  0.0000     2          
   200  Cl    c     11.0148 *    -1.1015 *    -1.1015 *  0.0000     2          
   201  Na    c      2.2030 *    -7.7103 *    -7.7103 *  0.0000     2          
   202  Na    c     11.0148 *     1.1015 *     1.1015 *  0.0000     2          
   203  O     c      4.4059 *     9.9133 *    -3.3044 *  0.0000     2          
   204  Na    c      4.4059 *     9.9133 *     3.3044 *  0.0000     2          
   205  Na    c      4.4059 *    -9.9133 *    -3.3044 *  0.0000     2          
   206  O     c      0.0000       5.5074 *     9.9133 *  0.0000     1          
   207  O     c      0.0000       9.9133 *     5.5074 *  0.0000     1          
   208  O     c      4.4059 *    -3.3044 *     9.9133 *  0.0000     2          
   209  Na    c      0.0000       5.5074 *    -9.9133 *  0.0000     1          
   210  Na    c      0.0000       9.9133 *    -5.5074 *  0.0000     1          
   211  Na    c      4.4059 *    -3.3044 *    -9.9133 *  0.0000     2          
   212  Na    c      0.0000      -5.5074 *     9.9133 *  0.0000     1          
   213  Na    c      0.0000      -9.9133 *     5.5074 *  0.0000     1          
   214  Na    c      4.4059 *     3.3044 *     9.9133 *  0.0000     2          
   215  Cl    c      2.2030 *    -5.5074 *    -9.9133 *  0.0000     2          
   216  Cl    c      2.2030 *    -9.9133 *    -5.5074 *  0.0000     2          
   217  Cl    c      6.6089 *     7.7103 *    -5.5074 *  0.0000     2          
   218  Cl    c      6.6089 *    -5.5074 *     7.7103 *  0.0000     2          
   219  Cl    c     11.0148 *    -1.1015 *     3.3044 *  0.0000     2          
   220  Cl    c     11.0148 *     3.3044 *    -1.1015 *  0.0000     2          
   221  Na    c      2.2030 *     5.5074 *     9.9133 *  0.0000     2          
   222  Na    c      2.2030 *     9.9133 *     5.5074 *  0.0000     2          
   223  Na    c      6.6089 *     5.5074 *    -7.7103 *  0.0000     2          
   224  Na    c      6.6089 *    -7.7103 *     5.5074 *  0.0000     2          
   225  Na    c     11.0148 *     1.1015 *    -3.3044 *  0.0000     2          
   226  Na    c     11.0148 *    -3.3044 *     1.1015 *  0.0000     2          
   227  O     c      4.4059 *    -7.7103 *    -7.7103 *  0.0000     2          
   228  O     c      8.8118 *     1.1015 *    -7.7103 *  0.0000     2          
   229  O     c      8.8118 *     5.5074 *     5.5074 *  0.0000     2          
   230  Na    c      4.4059 *    -7.7103 *     7.7103 *  0.0000     2          
   231  Na    c      8.8118 *     1.1015 *     7.7103 *  0.0000     2          
   232  Na    c      8.8118 *     5.5074 *    -5.5074 *  0.0000     2          
   233  Na    c      4.4059 *     7.7103 *    -7.7103 *  0.0000     2          
   234  Na    c      8.8118 *    -1.1015 *    -7.7103 *  0.0000     2          
   235  Na    c      8.8118 *    -5.5074 *     5.5074 *  0.0000     2          
   236  O     c      8.8118 *    -7.7103 *     1.1015 *  0.0000     2          
   237  Na    c      8.8118 *    -7.7103 *    -1.1015 *  0.0000     2          
   238  Na    c      8.8118 *     7.7103 *     1.1015 *  0.0000     2          
   239  Cl    c     11.0148 *     3.3044 *     3.3044 *  0.0000     2          
   240  Na    c     11.0148 *    -3.3044 *    -3.3044 *  0.0000     2          
   241  Cl    c      6.6089 *    -1.1015 *    -9.9133 *  0.0000     2          
   242  Cl    c      6.6089 *    -9.9133 *    -1.1015 *  0.0000     2          
   243  Na    c      6.6089 *     1.1015 *     9.9133 *  0.0000     2          
   244  Na    c      6.6089 *     9.9133 *     1.1015 *  0.0000     2          
   245  O     s      0.0000       1.1015 *     1.1015 *  0.0000     1          
   246  Cl    s      2.2030 *    -1.1015 *    -1.1015 *  0.0000     2          
   247  O     s      0.0000       1.1015 *    -3.3044 *  0.0000     1          
   248  O     s      0.0000      -3.3044 *     1.1015 *  0.0000     1          
   249  Cl    s      2.2030 *    -1.1015 *     3.3044 *  0.0000     2          
   250  Cl    s      2.2030 *     3.3044 *    -1.1015 *  0.0000     2          
   251  O     s      0.0000      -3.3044 *    -3.3044 *  0.0000     1          
   252  O     s      4.4059 *     1.1015 *     1.1015 *  0.0000     2          
   253  Cl    s      2.2030 *     3.3044 *     3.3044 *  0.0000     2          
   254  O     s      0.0000       1.1015 *     5.5074 *  0.0000     1          
   255  O     s      0.0000       5.5074 *     1.1015 *  0.0000     1          
   256  O     s      4.4059 *     1.1015 *    -3.3044 *  0.0000     2          
   257  O     s      4.4059 *    -3.3044 *     1.1015 *  0.0000     2          
   258  Cl    s      2.2030 *    -1.1015 *    -5.5074 *  0.0000     2          
   259  Cl    s      2.2030 *    -5.5074 *    -1.1015 *  0.0000     2          
   260  O     s      0.0000       5.5074 *    -3.3044 *  0.0000     1          
   261  O     s      0.0000      -3.3044 *     5.5074 *  0.0000     1          
   262  O     s      4.4059 *    -3.3044 *    -3.3044 *  0.0000     2          
   263  Cl    s      6.6089 *    -1.1015 *    -1.1015 *  0.0000     2          
   264  Cl    s      2.2030 *     3.3044 *    -5.5074 *  0.0000     2          
   265  Cl    s      2.2030 *    -5.5074 *     3.3044 *  0.0000     2          
   266  O     s      4.4059 *     1.1015 *     5.5074 *  0.0000     2          
   267  O     s      4.4059 *     5.5074 *     1.1015 *  0.0000     2          
   268  Cl    s      6.6089 *    -1.1015 *     3.3044 *  0.0000     2          
   269  Cl    s      6.6089 *     3.3044 *    -1.1015 *  0.0000     2          
   270  O     s      0.0000       1.1015 *    -7.7103 *  0.0000     1          
   271  O     s      0.0000       5.5074 *     5.5074 *  0.0000     1          
   272  O     s      0.0000      -7.7103 *     1.1015 *  0.0000     1          
   273  O     s      4.4059 *     5.5074 *    -3.3044 *  0.0000     2          
   274  O     s      4.4059 *    -3.3044 *     5.5074 *  0.0000     2          
   275  Cl    s      2.2030 *    -1.1015 *     7.7103 *  0.0000     2          
   276  Cl    s      2.2030 *    -5.5074 *    -5.5074 *  0.0000     2          
   277  Cl    s      6.6089 *     3.3044 *     3.3044 *  0.0000     2          
   278  Cl    s      2.2030 *     7.7103 *    -1.1015 *  0.0000     2          
   279  O     s      0.0000      -3.3044 *    -7.7103 *  0.0000     1          
   280  O     s      0.0000      -7.7103 *    -3.3044 *  0.0000     1          
   281  Cl    s      2.2030 *     3.3044 *     7.7103 *  0.0000     2          
   282  Cl    s      6.6089 *    -1.1015 *    -5.5074 *  0.0000     2          
   283  Cl    s      2.2030 *     7.7103 *     3.3044 *  0.0000     2          
   284  Cl    s      6.6089 *    -5.5074 *    -1.1015 *  0.0000     2          
   285  O     s      4.4059 *     1.1015 *    -7.7103 *  0.0000     2          
   286  O     s      4.4059 *     5.5074 *     5.5074 *  0.0000     2          
   287  O     s      4.4059 *    -7.7103 *     1.1015 *  0.0000     2          
   288  O     s      8.8118 *     1.1015 *     1.1015 *  0.0000     2          
   289  Cl    s      6.6089 *     3.3044 *    -5.5074 *  0.0000     2          
   290  Cl    s      6.6089 *    -5.5074 *     3.3044 *  0.0000     2          
   291  O     s      0.0000       5.5074 *    -7.7103 *  0.0000     1          
   292  O     s      0.0000      -7.7103 *     5.5074 *  0.0000     1          
   293  O     s      4.4059 *    -3.3044 *    -7.7103 *  0.0000     2          
   294  O     s      4.4059 *    -7.7103 *    -3.3044 *  0.0000     2          
   295  O     s      8.8118 *     1.1015 *    -3.3044 *  0.0000     2          
   296  O     s      8.8118 *    -3.3044 *     1.1015 *  0.0000     2          
   297  Cl    s      2.2030 *     7.7103 *    -5.5074 *  0.0000     2          
   298  Cl    s      2.2030 *    -5.5074 *     7.7103 *  0.0000     2          
   299  O     s      0.0000       1.1015 *     9.9133 *  0.0000     1          
   300  O     s      0.0000       9.9133 *     1.1015 *  0.0000     1          
   301  O     s      8.8118 *    -3.3044 *    -3.3044 *  0.0000     2          
   302  Cl    s      2.2030 *    -1.1015 *    -9.9133 *  0.0000     2          
   303  Cl    s      6.6089 *    -1.1015 *     7.7103 *  0.0000     2          
   304  Cl    s      6.6089 *     7.7103 *    -1.1015 *  0.0000     2          
   305  Cl    s      6.6089 *    -5.5074 *    -5.5074 *  0.0000     2          
   306  Cl    s      2.2030 *    -9.9133 *    -1.1015 *  0.0000     2          
   307  O     s      0.0000       9.9133 *    -3.3044 *  0.0000     1          
   308  O     s      0.0000      -3.3044 *     9.9133 *  0.0000     1          
   309  O     s      4.4059 *     5.5074 *    -7.7103 *  0.0000     2          
   310  O     s      4.4059 *    -7.7103 *     5.5074 *  0.0000     2          
   311  O     s      8.8118 *     1.1015 *     5.5074 *  0.0000     2          
   312  O     s      8.8118 *     5.5074 *     1.1015 *  0.0000     2          
   313  Cl    s      6.6089 *     7.7103 *     3.3044 *  0.0000     2          
   314  Cl    s      2.2030 *     3.3044 *    -9.9133 *  0.0000     2          
   315  Cl    s      2.2030 *    -9.9133 *     3.3044 *  0.0000     2          
   316  Cl    s      6.6089 *     3.3044 *     7.7103 *  0.0000     2          
   317  O     s      0.0000      -7.7103 *    -7.7103 *  0.0000     1          
   318  O     s      4.4059 *     1.1015 *     9.9133 *  0.0000     2          
   319  O     s      4.4059 *     9.9133 *     1.1015 *  0.0000     2          
   320  O     s      8.8118 *     5.5074 *    -3.3044 *  0.0000     2          
   321  O     s      8.8118 *    -3.3044 *     5.5074 *  0.0000     2          
   322  Cl    s      2.2030 *     7.7103 *     7.7103 *  0.0000     2          
   323  Cl    s     11.0148 *    -1.1015 *    -1.1015 *  0.0000     2          
   324  O     s      4.4059 *     9.9133 *    -3.3044 *  0.0000     2          
   325  O     s      0.0000       5.5074 *     9.9133 *  0.0000     1          
   326  O     s      0.0000       9.9133 *     5.5074 *  0.0000     1          
   327  O     s      4.4059 *    -3.3044 *     9.9133 *  0.0000     2          
   328  Cl    s      2.2030 *    -5.5074 *    -9.9133 *  0.0000     2          
   329  Cl    s      2.2030 *    -9.9133 *    -5.5074 *  0.0000     2          
   330  Cl    s      6.6089 *     7.7103 *    -5.5074 *  0.0000     2          
   331  Cl    s      6.6089 *    -5.5074 *     7.7103 *  0.0000     2          
   332  Cl    s     11.0148 *    -1.1015 *     3.3044 *  0.0000     2          
   333  Cl    s     11.0148 *     3.3044 *    -1.1015 *  0.0000     2          
   334  O     s      4.4059 *    -7.7103 *    -7.7103 *  0.0000     2          
   335  O     s      8.8118 *     1.1015 *    -7.7103 *  0.0000     2          
   336  O     s      8.8118 *     5.5074 *     5.5074 *  0.0000     2          
   337  O     s      8.8118 *    -7.7103 *     1.1015 *  0.0000     2          
   338  Cl    s     11.0148 *     3.3044 *     3.3044 *  0.0000     2          
   339  Cl    s      6.6089 *    -1.1015 *    -9.9133 *  0.0000     2          
   340  Cl    s      6.6089 *    -9.9133 *    -1.1015 *  0.0000     2          
--------------------------------------------------------------------------------

  Components of defect energy : 

--------------------------------------------------------------------------------
  Region 1 - region 1                   =      9.11581648 eV
  Region 1 - region 2a (unrelaxed)      =     -0.02386222 eV
  Region 1 - 2a (relaxed - correction)  =     -0.27660978 eV
  Region 1 (Total)                      =      8.81534448 eV
  Region 2a                             =      0.13825540 eV
  Region 2b                             =     -0.40771396 eV
--------------------------------------------------------------------------------
  Total defect energy                   =      8.54588592 eV
--------------------------------------------------------------------------------

  Largest displacement in region 2 =   0.0169 Angstroms


  Number of variables =      931

  Maximum number of calculations  =        1000
  Maximum Hessian update interval =          10
  Maximum step size               =   1.0000000
  Maximum parameter tolerance     =   0.0000100
  Maximum function  tolerance     =   0.0000100
  Maximum gradient  tolerance     =   0.0010000

  Symmetry adapted optimisation

  Symmetry to be used for second derivatives

  Newton-Raphson optimiser to be used

  BFGS hessian update to be used

  Lower half triangular hessian to be used

  Start of defect optimisation :

  Cycle:      0 Defect Energy:   8.545886  Gnorm:     0.018612  CPU:    3.458
  ** Hessian calculated **
  Cycle:      1 Defect Energy:   6.869150  Gnorm:     0.012790  CPU:   10.775
  Cycle:      2 Defect Energy:   5.619825  Gnorm:     0.005299  CPU:   17.584
  ** Hessian calculated **
  Cycle:      3 Defect Energy:   5.199920  Gnorm:     0.001157  CPU:   25.071
  Cycle:      4 Defect Energy:   5.180104  Gnorm:     0.000747  CPU:   26.244
  Cycle:      5 Defect Energy:   5.171622  Gnorm:     0.000505  CPU:   27.444
  Cycle:      6 Defect Energy:   5.167061  Gnorm:     0.000350  CPU:   28.593
  Cycle:      7 Defect Energy:   5.164801  Gnorm:     0.000244  CPU:   29.801
  Cycle:      8 Defect Energy:   5.163689  Gnorm:     0.000170  CPU:   30.973
  Cycle:      9 Defect Energy:   5.163151  Gnorm:     0.000119  CPU:   32.147
  Cycle:     10 Defect Energy:   5.162892  Gnorm:     0.000083  CPU:   33.310
  Cycle:     11 Defect Energy:   5.162771  Gnorm:     0.000058  CPU:   34.472
  Cycle:     12 Defect Energy:   5.162716  Gnorm:     0.000041  CPU:   35.635
  ** Hessian calculated **
  Cycle:     13 Defect Energy:   5.162691  Gnorm:     0.000029  CPU:   38.986
  Cycle:     14 Defect Energy:   5.162681  Gnorm:     0.000020  CPU:   40.222
  Cycle:     15 Defect Energy:   5.162678  Gnorm:     0.000014  CPU:   41.464


  **** Optimisation achieved ****


  Final defect energy  =        5.16267738
  Final defect Gnorm   =        0.00000980

  Components of defect energy : 

--------------------------------------------------------------------------------
  Region 1 - region 1                   =      6.62157945 eV
  Region 1 - region 2a (unrelaxed)      =     -0.94183646 eV
  Region 1 - 2a (relaxed - correction)  =     -0.21920137 eV
  Region 1 (Total)                      =      5.46054163 eV
  Region 2a                             =      0.10961218 eV
  Region 2b                             =     -0.40747643 eV
--------------------------------------------------------------------------------
  Total defect energy                   =      5.16267738 eV
--------------------------------------------------------------------------------

  Largest displacement in region 2 =   0.0169 Angstroms

  Final coordinates of region 1 :

--------------------------------------------------------------------------------
   No.  Atomic        x           y           z          Radius      Charge
        Label       (Angs)      (Angs)      (Angs)       (Angs)       (e) 
--------------------------------------------------------------------------------
     1  Na    c     2.202951    0.749003    1.453948    0.000000    1.000000
     2  O     c     2.202951    2.491310    2.438073    0.000000    0.183000
     3  Cl    c     4.480617   -0.022373   -0.009449    0.000000    1.485000
     4  Cl    c    -0.074715   -0.022373   -0.009449    0.000000    1.485000
     5  Na    c     4.376950    2.486973    2.288288    0.000000    1.000000
     6  Na    c     0.028952    2.486973    2.288288    0.000000    1.000000
     7  O     c     2.202951    2.226483   -2.335879    0.000000    0.183000
     8  O     c     2.202951   -2.170174    2.171642    0.000000    0.183000
     9  Na    c     2.202951    2.241137    4.499379    0.000000    1.000000
    10  Na    c     2.202951   -2.215624    0.015752    0.000000    1.000000
    11  Na    c     2.202951    0.084980   -2.145380    0.000000    1.000000
    12  Na    c     2.202951    4.484969    1.837630    0.000000    1.000000
    13  Cl    c     4.499844    0.034392    4.511371    0.000000    1.485000
    14  Cl    c    -0.093941    0.034392    4.511371    0.000000    1.485000
    15  Na    c     4.310373    2.217766   -1.949088    0.000000    1.000000
    16  Na    c     0.095529    2.217766   -1.949088    0.000000    1.000000
    17  Cl    c     4.524921    4.544641    0.016822    0.000000    1.485000
    18  Cl    c    -0.119018    4.544641    0.016822    0.000000    1.485000
    19  Na    c     4.352280   -2.018855    2.192014    0.000000    1.000000
    20  Na    c     0.053622   -2.018855    2.192014    0.000000    1.000000
    21  O     c     2.202951   -2.168390   -2.195951    0.000000    0.183000
    22  Na    c     2.202951   -1.812338    4.317542    0.000000    1.000000
    23  Na    c     2.202951    4.336284   -1.886960    0.000000    1.000000
    24  O     c     6.599844    2.255964    2.230503    0.000000    0.183000
    25  O     c    -2.193942    2.255964    2.230503    0.000000    0.183000
    26  Na    c     6.608896    2.217814    0.029838    0.000000    1.000000
    27  Na    c    -2.202994    2.217814    0.029838    0.000000    1.000000
    28  Na    c     6.534398    0.052535    2.227080    0.000000    1.000000
    29  Na    c    -2.128496    0.052535    2.227080    0.000000    1.000000
    30  Cl    c     4.528483    4.498005    4.510718    0.000000    1.485000
    31  Cl    c    -0.122580    4.498005    4.510718    0.000000    1.485000
    32  Na    c     4.398435   -2.169916   -2.197849    0.000000    1.000000
    33  Na    c     0.007467   -2.169916   -2.197849    0.000000    1.000000
    34  O     c     2.202951    2.225069    6.685961    0.000000    0.183000
    35  O     c     2.202951    6.662959    2.181764    0.000000    0.183000
    36  O     c     6.570520    2.216813   -2.171598    0.000000    0.183000
    37  O     c    -2.164618    2.216813   -2.171598    0.000000    0.183000
    38  Na    c     2.202951    2.315192   -4.431931    0.000000    1.000000
    39  Na    c     2.202951    6.867692   -0.008873    0.000000    1.000000
    40  Na    c     6.583379    2.227580    4.431792    0.000000    1.000000
    41  Na    c    -2.177477    2.227580    4.431792    0.000000    1.000000
    42  Na    c     2.202951    0.029680    6.718828    0.000000    1.000000
    43  Na    c     2.202951   -4.346936    2.318131    0.000000    1.000000
    44  Na    c     6.565772    0.018610   -2.204523    0.000000    1.000000
    45  Na    c    -2.159870    0.018610   -2.204523    0.000000    1.000000
    46  O     c     6.584460   -2.162407    2.211424    0.000000    0.183000
    47  O     c    -2.178558   -2.162407    2.211424    0.000000    0.183000
    48  Na    c     6.581154   -2.169072    0.008348    0.000000    1.000000
    49  Na    c    -2.175252   -2.169072    0.008348    0.000000    1.000000
    50  Na    c     6.688083    4.451460    2.202659    0.000000    1.000000
    51  Na    c    -2.282180    4.451460    2.202659    0.000000    1.000000
    52  Cl    c     4.453079   -0.061350   -4.470744    0.000000    1.485000
    53  Cl    c    -0.047177   -0.061350   -4.470744    0.000000    1.485000
    54  Cl    c     4.424553   -4.429278   -0.034221    0.000000    1.485000
    55  Cl    c    -0.018650   -4.429278   -0.034221    0.000000    1.485000
    56  Na    c     4.416037    2.211539    6.642746    0.000000    1.000000
    57  Na    c    -0.010135    2.211539    6.642746    0.000000    1.000000
    58  Na    c     4.417102    6.618500    2.208432    0.000000    1.000000
    59  Na    c    -0.011199    6.618500    2.208432    0.000000    1.000000
    60  O     c     2.202951    6.597915   -2.182158    0.000000    0.183000
    61  O     c     2.202951   -2.156542    6.571596    0.000000    0.183000
    62  Na    c     2.202951    6.418766    4.379174    0.000000    1.000000
    63  Na    c     2.202951   -2.127816   -4.395951    0.000000    1.000000
    64  Na    c     2.202951    4.415679    6.689853    0.000000    1.000000
    65  Na    c     2.202951   -4.379698   -2.233047    0.000000    1.000000
    66  O     c     6.606177   -2.193362   -2.201450    0.000000    0.183000
    67  O     c    -2.200275   -2.193362   -2.201450    0.000000    0.183000
    68  Na    c     6.588963   -2.176097    4.406353    0.000000    1.000000
    69  Na    c    -2.183061   -2.176097    4.406353    0.000000    1.000000
    70  Na    c     6.578753    4.412789   -2.186112    0.000000    1.000000
    71  Na    c    -2.172850    4.412789   -2.186112    0.000000    1.000000
    72  Cl    c     8.824789    0.020010    0.013720    0.000000    1.485000
    73  Cl    c    -4.418887    0.020010    0.013720    0.000000    1.485000
    74  Na    c     8.803875    2.188413    2.238774    0.000000    1.000000
    75  Na    c    -4.397973    2.188413    2.238774    0.000000    1.000000
    76  Cl    c     4.467360    4.472612   -4.479983    0.000000    1.485000
    77  Cl    c    -0.061458    4.472612   -4.479983    0.000000    1.485000
    78  Cl    c     4.444528   -4.438113    4.426441    0.000000    1.485000
    79  Cl    c    -0.038626   -4.438113    4.426441    0.000000    1.485000
    80  Na    c     4.402978    6.572860   -2.203850    0.000000    1.000000
    81  Na    c     0.002925    6.572860   -2.203850    0.000000    1.000000
    82  Na    c     4.401322   -2.183096    6.555610    0.000000    1.000000
    83  Na    c     0.004581   -2.183096    6.555610    0.000000    1.000000
    84  O     c     6.623157    2.216521    6.637157    0.000000    0.183000
    85  O     c    -2.217255    2.216521    6.637157    0.000000    0.183000
    86  O     c     6.631264    6.646377    2.214256    0.000000    0.183000
    87  O     c    -2.225361    6.646377    2.214256    0.000000    0.183000
    88  Na    c     6.453433    2.222345   -4.374390    0.000000    1.000000
    89  Na    c    -2.047531    2.222345   -4.374390    0.000000    1.000000
    90  Na    c     6.590511    6.623666   -0.000068    0.000000    1.000000
    91  Na    c    -2.184609    6.623666   -0.000068    0.000000    1.000000
    92  Na    c     6.595233    0.006810    6.601770    0.000000    1.000000
    93  Na    c    -2.189330    0.006810    6.601770    0.000000    1.000000
    94  Na    c     6.532233   -4.368957    2.209234    0.000000    1.000000
    95  Na    c    -2.126331   -4.368957    2.209234    0.000000    1.000000
    96  Cl    c     8.834273    0.016350    4.415514    0.000000    1.485000
    97  Cl    c    -4.428371    0.016350    4.415514    0.000000    1.485000
    98  Cl    c     8.838293    4.421774    0.013414    0.000000    1.485000
    99  Cl    c    -4.432391    4.421774    0.013414    0.000000    1.485000
   100  Na    c     8.780219    2.207348   -2.235102    0.000000    1.000000
   101  Na    c    -4.374317    2.207348   -2.235102    0.000000    1.000000
   102  Na    c     8.787768   -2.168299    2.202781    0.000000    1.000000
   103  Na    c    -4.381866   -2.168299    2.202781    0.000000    1.000000
   104  O     c     2.202951    2.211774   -6.643289    0.000000    0.183000
   105  O     c     2.202951    6.605902    6.601553    0.000000    0.183000
   106  O     c     2.202951   -6.588695    2.207331    0.000000    0.183000
   107  Na    c     2.202951    2.229514    8.855563    0.000000    1.000000
   108  Na    c     2.202951    6.411112   -4.383844    0.000000    1.000000
   109  Na    c     2.202951   -6.512123    0.005533    0.000000    1.000000
   110  Na    c     2.202951    0.009954   -6.576901    0.000000    1.000000
   111  Na    c     2.202951    8.833797    2.345095    0.000000    1.000000
   112  Na    c     2.202951   -4.360817    6.420413    0.000000    1.000000
   113  O     c     6.616342    6.623169   -2.210233    0.000000    0.183000
   114  O     c    -2.210440    6.623169   -2.210233    0.000000    0.183000
   115  O     c     6.614652   -2.203829    6.615326    0.000000    0.183000
   116  O     c    -2.208750   -2.203829    6.615326    0.000000    0.183000
   117  Na    c     6.610937    6.605391    4.417402    0.000000    1.000000
   118  Na    c    -2.205035    6.605391    4.417402    0.000000    1.000000
   119  Na    c     6.590954   -2.194088   -4.404026    0.000000    1.000000
   120  Na    c    -2.185052   -2.194088   -4.404026    0.000000    1.000000
   121  Na    c     6.601673    4.421313    6.609835    0.000000    1.000000
   122  Na    c    -2.195770    4.421313    6.609835    0.000000    1.000000
   123  Na    c     6.591022   -4.394337   -2.190011    0.000000    1.000000
   124  Na    c    -2.185120   -4.394337   -2.190011    0.000000    1.000000
   125  Cl    c     4.409497    0.003440    8.846588    0.000000    1.485000
   126  Cl    c    -0.003594    0.003440    8.846588    0.000000    1.485000
   127  Cl    c     4.408492   -4.419994   -4.413991    0.000000    1.485000
   128  Cl    c    -0.002590   -4.419994   -4.413991    0.000000    1.485000
   129  Cl    c     8.849164    4.423426    4.416883    0.000000    1.485000
   130  Cl    c    -4.443262    4.423426    4.416883    0.000000    1.485000
   131  Na    c     4.399898    2.196650   -6.636149    0.000000    1.000000
   132  Na    c     0.006004    2.196650   -6.636149    0.000000    1.000000
   133  Na    c     4.413110    6.610572    6.581158    0.000000    1.000000
   134  Na    c    -0.007208    6.610572    6.581158    0.000000    1.000000
   135  Na    c     8.799253   -2.188105   -2.200397    0.000000    1.000000
   136  Na    c    -4.393350   -2.188105   -2.200397    0.000000    1.000000
   137  Cl    c     4.419729    8.856633   -0.004713    0.000000    1.485000
   138  Cl    c    -0.013827    8.856633   -0.004713    0.000000    1.485000
   139  Na    c     4.399039   -6.581010    2.192064    0.000000    1.000000
   140  Na    c     0.006863   -6.581010    2.192064    0.000000    1.000000
   141  O     c     2.202951   -2.197525   -6.607867    0.000000    0.183000
   142  O     c     2.202951   -6.595932   -2.203267    0.000000    0.183000
   143  Na    c     2.202951   -2.266577    8.786446    0.000000    1.000000
   144  Na    c     2.202951   -6.661169    4.397227    0.000000    1.000000
   145  Na    c     2.202951    4.406405   -6.697614    0.000000    1.000000
   146  Na    c     2.202951    8.803164   -2.349002    0.000000    1.000000
   147  Cl    c     4.407522    4.421141    8.847795    0.000000    1.485000
   148  Cl    c    -0.001620    4.421141    8.847795    0.000000    1.485000
   149  Cl    c     8.827614    0.000492   -4.403890    0.000000    1.485000
   150  Cl    c    -4.421712    0.000492   -4.403890    0.000000    1.485000
   151  Na    c     4.407724   -2.185910   -6.590890    0.000000    1.000000
   152  Na    c    -0.001822   -2.185910   -6.590890    0.000000    1.000000
   153  Na    c     8.814963    2.206391    6.604822    0.000000    1.000000
   154  Na    c    -4.409061    2.206391    6.604822    0.000000    1.000000
   155  Cl    c     4.417985    8.847685    4.416539    0.000000    1.485000
   156  Cl    c    -0.012083    8.847685    4.416539    0.000000    1.485000
   157  Cl    c     8.821666   -4.404834    0.002304    0.000000    1.485000
   158  Cl    c    -4.415764   -4.404834    0.002304    0.000000    1.485000
   159  Na    c     4.404621   -6.586399   -2.189976    0.000000    1.000000
   160  Na    c     0.001281   -6.586399   -2.189976    0.000000    1.000000
   161  Na    c     8.822427    6.661271    2.198646    0.000000    1.000000
   162  Na    c    -4.416524    6.661271    2.198646    0.000000    1.000000
   163  O     c     6.598341    2.203584   -6.598424    0.000000    0.183000
   164  O     c    -2.192438    2.203584   -6.598424    0.000000    0.183000
   165  O     c     6.626552    6.629329    6.625430    0.000000    0.183000
   166  O     c    -2.220649    6.629329    6.625430    0.000000    0.183000
   167  Na    c     6.622119    2.204267    8.822166    0.000000    1.000000
   168  Na    c    -2.216217    2.204267    8.822166    0.000000    1.000000
   169  Na    c     6.602702    6.590415   -4.408547    0.000000    1.000000
   170  Na    c    -2.196800    6.590415   -4.408547    0.000000    1.000000
   171  Na    c     6.606450    0.001223   -6.569850    0.000000    1.000000
   172  Na    c    -2.200548    0.001223   -6.569850    0.000000    1.000000
   173  Na    c     6.600962   -4.400991    6.591071    0.000000    1.000000
   174  Na    c    -2.195059   -4.400991    6.591071    0.000000    1.000000
   175  O     c     6.601985   -6.593824    2.200523    0.000000    0.183000
   176  O     c    -2.196083   -6.593824    2.200523    0.000000    0.183000
   177  O     c    11.012846    2.207707    2.207005    0.000000    0.183000
   178  O     c    -6.606944    2.207707    2.207005    0.000000    0.183000
   179  Na    c     6.609624   -6.578331    0.001124    0.000000    1.000000
   180  Na    c    -2.203721   -6.578331    0.001124    0.000000    1.000000
   181  Na    c    10.962228    2.211430    0.001406    0.000000    1.000000
   182  Na    c    -6.556326    2.211430    0.001406    0.000000    1.000000
   183  Na    c     6.599933    8.828012    2.211559    0.000000    1.000000
   184  Na    c    -2.194031    8.828012    2.211559    0.000000    1.000000
   185  Na    c    11.006505    0.005308    2.196728    0.000000    1.000000
   186  Na    c    -6.600602    0.005308    2.196728    0.000000    1.000000
   187  Cl    c     8.831579    4.415640   -4.401182    0.000000    1.485000
   188  Cl    c    -4.425677    4.415640   -4.401182    0.000000    1.485000
   189  Cl    c     8.826063   -4.403505    4.414717    0.000000    1.485000
   190  Cl    c    -4.420161   -4.403505    4.414717    0.000000    1.485000
   191  Na    c     8.809029    6.610385   -2.197408    0.000000    1.000000
   192  Na    c    -4.403127    6.610385   -2.197408    0.000000    1.000000
   193  Na    c     8.808923   -2.195450    6.610892    0.000000    1.000000
   194  Na    c    -4.403020   -2.195450    6.610892    0.000000    1.000000
   195  O     c     2.202951    6.597881   -6.604712    0.000000    0.183000
   196  O     c     2.202951   -6.591275    6.591662    0.000000    0.183000
   197  O     c     6.616685   -2.208591   -6.613063    0.000000    0.183000
   198  O     c    -2.210783   -2.208591   -6.613063    0.000000    0.183000
   199  Na    c     2.202951    6.653834    8.805384    0.000000    1.000000
   200  Na    c     2.202951   -6.613436   -4.402732    0.000000    1.000000
   201  Na    c     6.593370   -2.208187    8.809953    0.000000    1.000000
   202  Na    c    -2.187468   -2.208187    8.809953    0.000000    1.000000
   203  Na    c     2.202951    8.802800    6.528570    0.000000    1.000000
   204  Na    c     2.202951   -4.397741   -6.582771    0.000000    1.000000
   205  Na    c     6.588885    4.408825   -6.594998    0.000000    1.000000
   206  Na    c    -2.182983    4.408825   -6.594998    0.000000    1.000000
   207  O     c     6.610895   -6.606117   -2.203318    0.000000    0.183000
   208  O     c    -2.204993   -6.606117   -2.203318    0.000000    0.183000
   209  O     c    11.001966    2.206723   -2.200773    0.000000    0.183000
   210  O     c    -6.596063    2.206723   -2.200773    0.000000    0.183000
   211  O     c    11.006393   -2.195828    2.204375    0.000000    0.183000
   212  O     c    -6.600491   -2.195828    2.204375    0.000000    0.183000
   213  Na    c     6.588458   -6.593840    4.403703    0.000000    1.000000
   214  Na    c    -2.182556   -6.593840    4.403703    0.000000    1.000000
   215  Na    c    11.019154    2.205076    4.407623    0.000000    1.000000
   216  Na    c    -6.613252    2.205076    4.407623    0.000000    1.000000
   217  Na    c    10.991916   -2.206412    0.003100    0.000000    1.000000
   218  Na    c    -6.586014   -2.206412    0.003100    0.000000    1.000000
   219  Na    c     6.595687    8.815043   -2.218034    0.000000    1.000000
   220  Na    c    -2.189785    8.815043   -2.218034    0.000000    1.000000
   221  Na    c    10.990219    0.005857   -2.195521    0.000000    1.000000
   222  Na    c    -6.584316    0.005857   -2.195521    0.000000    1.000000
   223  Na    c    10.989957    4.411251    2.203630    0.000000    1.000000
   224  Na    c    -6.584055    4.411251    2.203630    0.000000    1.000000
   225  Cl    c     4.411096    8.839204   -4.405882    0.000000    1.485000
   226  Cl    c    -0.005194    8.839204   -4.405882    0.000000    1.485000
   227  Cl    c     4.410375   -4.401430    8.827633    0.000000    1.485000
   228  Cl    c    -0.004472   -4.401430    8.827633    0.000000    1.485000
   229  Na    c     4.407291    6.604285   -6.584050    0.000000    1.000000
   230  Na    c    -0.001388    6.604285   -6.584050    0.000000    1.000000
   231  Na    c     4.403397   -6.581699    6.603625    0.000000    1.000000
   232  Na    c     0.002506   -6.581699    6.603625    0.000000    1.000000
   233  O     c     2.202951    2.205808   11.033964    0.000000    0.183000
   234  O     c     2.202951   11.026489    2.214350    0.000000    0.183000
   235  O     c    11.007922   -2.198311   -2.198771    0.000000    0.183000
   236  O     c    -6.602020   -2.198311   -2.198771    0.000000    0.183000
   237  Na    c     2.202951    2.175916   -8.828132    0.000000    1.000000
   238  Na    c     2.202951   10.954247   -0.003795    0.000000    1.000000
   239  Na    c    10.999706   -2.196880    4.405511    0.000000    1.000000
   240  Na    c    -6.593804   -2.196880    4.405511    0.000000    1.000000
   241  Na    c     2.202951   -0.007056   10.994932    0.000000    1.000000
   242  Na    c     2.202951   -8.801517    2.165881    0.000000    1.000000
   243  Na    c    10.997311    4.406971   -2.205635    0.000000    1.000000
   244  Na    c    -6.591409    4.406971   -2.205635    0.000000    1.000000
   245  Cl    c     4.409508   -0.000881   -8.836699    0.000000    1.485000
   246  Cl    c    -0.003606   -0.000881   -8.836699    0.000000    1.485000
   247  Cl    c     8.825661    0.001937    8.828525    0.000000    1.485000
   248  Cl    c    -4.419758    0.001937    8.828525    0.000000    1.485000
   249  Cl    c     8.829264    8.830351    0.004554    0.000000    1.485000
   250  Cl    c    -4.423361    8.830351    0.004554    0.000000    1.485000
   251  Cl    c     8.823246   -4.415254   -4.411589    0.000000    1.485000
   252  Cl    c    -4.417344   -4.415254   -4.411589    0.000000    1.485000
   253  Na    c     4.407792    2.197058   11.023103    0.000000    1.000000
   254  Na    c    -0.001889    2.197058   11.023103    0.000000    1.000000
   255  Na    c     8.798151    2.218659   -6.550946    0.000000    1.000000
   256  Na    c    -4.392249    2.218659   -6.550946    0.000000    1.000000
   257  Na    c     8.818776    6.611677    6.615227    0.000000    1.000000
   258  Na    c    -4.412874    6.611677    6.615227    0.000000    1.000000
   259  Na    c     8.801649   -6.576700    2.214755    0.000000    1.000000
   260  Na    c    -4.395746   -6.576700    2.214755    0.000000    1.000000
   261  Cl    c     4.406736   -8.828602    0.001225    0.000000    1.485000
   262  Cl    c    -0.000834   -8.828602    0.001225    0.000000    1.485000
   263  Na    c     4.404841   11.019989    2.182255    0.000000    1.000000
   264  Na    c     0.001061   11.019989    2.182255    0.000000    1.000000
   265  O     c     2.202951   11.012401   -2.216966    0.000000    0.183000
   266  O     c     2.202951   -2.211336   11.009764    0.000000    0.183000
   267  O     c     6.617819    6.618378   -6.614975    0.000000    0.183000
   268  O     c    -2.211917    6.618378   -6.614975    0.000000    0.183000
   269  O     c     6.610870   -6.608489    6.611854    0.000000    0.183000
[...]
    260 y          6.608853      6.597996    -0.010857    Cartesian   -0.16
    260 z         -2.202951     -2.182133     0.020819    Cartesian   -0.95
    261 x          2.202951      2.202951     0.000000    Cartesian    0.00
    261 y         -2.202951     -2.156501     0.046450    Cartesian   -2.11
    261 z          6.608853      6.571658    -0.037195    Cartesian   -0.56
    262 x          6.608853      6.606178    -0.002676    Cartesian   -0.04
    262 y         -2.202951     -2.193366     0.009585    Cartesian   -0.44
    262 z         -2.202951     -2.201457     0.001495    Cartesian   -0.07
    263 x          8.811805      8.829782     0.017977    Cartesian    0.20
    263 y          0.000000      0.020872     0.020872    Cartesian    0.00
    263 z          0.000000      0.014826     0.014826    Cartesian    0.00
    264 x          4.405902      4.476979     0.071077    Cartesian    1.61
    264 y          4.405902      4.483294     0.077392    Cartesian    1.76
    264 z         -4.405902     -4.491703    -0.085801    Cartesian    1.95
    265 x          4.405902      4.449809     0.043906    Cartesian    1.00
    265 y         -4.405902     -4.447043    -0.041141    Cartesian    0.93
    265 z          4.405902      4.432086     0.026184    Cartesian    0.59
    266 x          6.608853      6.623159     0.014305    Cartesian    0.22
    266 y          2.202951      2.216523     0.013572    Cartesian    0.62
    266 z          6.608853      6.637166     0.028313    Cartesian    0.43
    267 x          6.608853      6.631284     0.022431    Cartesian    0.34
    267 y          6.608853      6.646381     0.037528    Cartesian    0.57
    267 z          2.202951      2.214263     0.011311    Cartesian    0.51
    268 x          8.811805      8.838201     0.026396    Cartesian    0.30
    268 y          0.000000      0.017379     0.017379    Cartesian    0.00
    268 z          4.405902      4.416074     0.010172    Cartesian    0.23
    269 x          8.811805      8.841909     0.030104    Cartesian    0.34
    269 y          4.405902      4.422532     0.016629    Cartesian    0.38
    269 z          0.000000      0.015636     0.015636    Cartesian    0.00
    270 x          2.202951      2.202951     0.000000    Cartesian    0.00
    270 y          2.202951      2.211789     0.008838    Cartesian    0.40
    270 z         -6.608853     -6.643319    -0.034465    Cartesian    0.52
    271 x          2.202951      2.202951     0.000000    Cartesian    0.00
    271 y          6.608853      6.605874    -0.002979    Cartesian   -0.05
    271 z          6.608853      6.601579    -0.007274    Cartesian   -0.11
    272 x          2.202951      2.202951     0.000000    Cartesian    0.00
    272 y         -6.608853     -6.588726     0.020127    Cartesian   -0.30
    272 z          2.202951      2.207350     0.004399    Cartesian    0.20
    273 x          6.608853      6.616349     0.007496    Cartesian    0.11
    273 y          6.608853      6.623175     0.014321    Cartesian    0.22
    273 z         -2.202951     -2.210240    -0.007289    Cartesian    0.33
    274 x          6.608853      6.614661     0.005808    Cartesian    0.09
    274 y         -2.202951     -2.203836    -0.000885    Cartesian    0.04
    274 z          6.608853      6.615325     0.006471    Cartesian    0.10
    275 x          4.405902      4.409137     0.003235    Cartesian    0.07
    275 y          0.000000      0.004573     0.004573    Cartesian    0.00
    275 z          8.811805      8.849455     0.037651    Cartesian    0.43
    276 x          4.405902      4.409397     0.003494    Cartesian    0.08
    276 y         -4.405902     -4.423105    -0.017202    Cartesian    0.39
    276 z         -4.405902     -4.415195    -0.009293    Cartesian    0.21
    277 x          8.811805      8.852584     0.040779    Cartesian    0.46
    277 y          4.405902      4.424366     0.018464    Cartesian    0.42
    277 z          4.405902      4.416880     0.010977    Cartesian    0.25
    278 x          4.405902      4.419211     0.013309    Cartesian    0.30
    278 y          8.811805      8.858974     0.047170    Cartesian    0.54
    278 z          0.000000     -0.004676    -0.004676    Cartesian    0.00
    279 x          2.202951      2.202951     0.000000    Cartesian    0.00
    279 y         -2.202951     -2.197517     0.005435    Cartesian   -0.25
    279 z         -6.608853     -6.607869     0.000984    Cartesian   -0.01
    280 x          2.202951      2.202951     0.000000    Cartesian    0.00
    280 y         -6.608853     -6.595931     0.012923    Cartesian   -0.20
    280 z         -2.202951     -2.203275    -0.000324    Cartesian    0.01
    281 x          4.405902      4.406739     0.000837    Cartesian    0.02
    281 y          4.405902      4.421496     0.015594    Cartesian    0.35
    281 z          8.811805      8.850754     0.038950    Cartesian    0.44
    282 x          8.811805      8.832305     0.020500    Cartesian    0.23
    282 y          0.000000     -0.000889    -0.000889    Cartesian    0.00
    282 z         -4.405902     -4.404808     0.001094    Cartesian   -0.02
    283 x          4.405902      4.418687     0.012784    Cartesian    0.29
    283 y          8.811805      8.852753     0.040948    Cartesian    0.46
    283 z          4.405902      4.417313     0.011410    Cartesian    0.26
    284 x          8.811805      8.825429     0.013624    Cartesian    0.15
    284 y         -4.405902     -4.406899    -0.000996    Cartesian    0.02
    284 z          0.000000      0.001373     0.001373    Cartesian    0.00
    285 x          6.608853      6.598319    -0.010535    Cartesian   -0.16
    285 y          2.202951      2.203584     0.000633    Cartesian    0.03
    285 z         -6.608853     -6.598445     0.010408    Cartesian   -0.16
    286 x          6.608853      6.626565     0.017711    Cartesian    0.27
    286 y          6.608853      6.629341     0.020488    Cartesian    0.31
    286 z          6.608853      6.625438     0.016585    Cartesian    0.25
    287 x          6.608853      6.601976    -0.006877    Cartesian   -0.10
    287 y         -6.608853     -6.593838     0.015016    Cartesian   -0.23
    287 z          2.202951      2.200521    -0.002430    Cartesian   -0.11
    288 x         11.014756     11.012844    -0.001912    Cartesian   -0.02
    288 y          2.202951      2.207703     0.004751    Cartesian    0.22
    288 z          2.202951      2.207011     0.004060    Cartesian    0.18
    289 x          8.811805      8.836363     0.024559    Cartesian    0.28
    289 y          4.405902      4.417456     0.011553    Cartesian    0.26
    289 z         -4.405902     -4.401687     0.004216    Cartesian   -0.10
    290 x          8.811805      8.829864     0.018059    Cartesian    0.20
    290 y         -4.405902     -4.405133     0.000769    Cartesian   -0.02
    290 z          4.405902      4.416895     0.010993    Cartesian    0.25
    291 x          2.202951      2.202951     0.000000    Cartesian    0.00
    291 y          6.608853      6.597852    -0.011002    Cartesian   -0.17
    291 z         -6.608853     -6.604743     0.004110    Cartesian   -0.06
    292 x          2.202951      2.202951     0.000000    Cartesian    0.00
    292 y         -6.608853     -6.591308     0.017546    Cartesian   -0.27
    292 z          6.608853      6.591635    -0.017218    Cartesian   -0.26
    293 x          6.608853      6.616693     0.007839    Cartesian    0.12
    293 y         -2.202951     -2.208597    -0.005646    Cartesian    0.26
    293 z         -6.608853     -6.613066    -0.004212    Cartesian    0.06
    294 x          6.608853      6.610898     0.002045    Cartesian    0.03
    294 y         -6.608853     -6.606120     0.002733    Cartesian   -0.04
    294 z         -2.202951     -2.203317    -0.000366    Cartesian    0.02
    295 x         11.014756     11.001978    -0.012778    Cartesian   -0.12
    295 y          2.202951      2.206724     0.003772    Cartesian    0.17
    295 z         -2.202951     -2.200777     0.002174    Cartesian   -0.10
    296 x         11.014756     11.006405    -0.008350    Cartesian   -0.08
    296 y         -2.202951     -2.195823     0.007128    Cartesian   -0.32
    296 z          2.202951      2.204373     0.001422    Cartesian    0.06
    297 x          4.405902      4.410916     0.005014    Cartesian    0.11
    297 y          8.811805      8.844164     0.032359    Cartesian    0.37
    297 z         -4.405902     -4.404989     0.000914    Cartesian   -0.02
    298 x          4.405902      4.411451     0.005548    Cartesian    0.13
    298 y         -4.405902     -4.401999     0.003903    Cartesian   -0.09
    298 z          8.811805      8.832347     0.020543    Cartesian    0.23
    299 x          2.202951      2.202951     0.000000    Cartesian    0.00
    299 y          2.202951      2.205815     0.002864    Cartesian    0.13
    299 z         11.014756     11.033944     0.019188    Cartesian    0.17
    300 x          2.202951      2.202951     0.000000    Cartesian    0.00
    300 y         11.014756     11.026488     0.011733    Cartesian    0.11
    300 z          2.202951      2.214386     0.011435    Cartesian    0.52
    301 x         11.014756     11.007924    -0.006832    Cartesian   -0.06
    301 y         -2.202951     -2.198310     0.004641    Cartesian   -0.21
    301 z         -2.202951     -2.198768     0.004183    Cartesian   -0.19
    302 x          4.405902      4.409342     0.003439    Cartesian    0.08
    302 y          0.000000     -0.000462    -0.000462    Cartesian    0.00
    302 z         -8.811805     -8.839736    -0.027931    Cartesian    0.32
    303 x          8.811805      8.827692     0.015887    Cartesian    0.18
    303 y          0.000000      0.002817     0.002817    Cartesian    0.00
    303 z          8.811805      8.830776     0.018971    Cartesian    0.22
    304 x          8.811805      8.831572     0.019767    Cartesian    0.22
    304 y          8.811805      8.831900     0.020096    Cartesian    0.23
    304 z          0.000000      0.006269     0.006269    Cartesian    0.00
    305 x          8.811805      8.825493     0.013688    Cartesian    0.16
    305 y         -4.405902     -4.416958    -0.011055    Cartesian    0.25
    305 z         -4.405902     -4.412531    -0.006629    Cartesian    0.15
    306 x          4.405902      4.406990     0.001088    Cartesian    0.02
    306 y         -8.811805     -8.832312    -0.020508    Cartesian    0.23
    306 z          0.000000      0.001345     0.001345    Cartesian    0.00
    307 x          2.202951      2.202951     0.000000    Cartesian    0.00
    307 y         11.014756     11.012403    -0.002353    Cartesian   -0.02
    307 z         -2.202951     -2.217001    -0.014050    Cartesian    0.64
    308 x          2.202951      2.202951     0.000000    Cartesian    0.00
    308 y         -2.202951     -2.211351    -0.008400    Cartesian    0.38
    308 z         11.014756     11.009777    -0.004979    Cartesian   -0.05
    309 x          6.608853      6.617829     0.008976    Cartesian    0.14
    309 y          6.608853      6.618387     0.009534    Cartesian    0.14
    309 z         -6.608853     -6.614973    -0.006120    Cartesian    0.09
    310 x          6.608853      6.610875     0.002022    Cartesian    0.03
    310 y         -6.608853     -6.608483     0.000371    Cartesian   -0.01
    310 z          6.608853      6.611861     0.003007    Cartesian    0.05
    311 x         11.014756     11.020651     0.005895    Cartesian    0.05
    311 y          2.202951      2.205603     0.002652    Cartesian    0.12
    311 z          6.608853      6.610635     0.001781    Cartesian    0.03
    312 x         11.014756     11.022434     0.007679    Cartesian    0.07
    312 y          6.608853      6.616895     0.008042    Cartesian    0.12
    312 z          2.202951      2.204291     0.001340    Cartesian    0.06
    313 x          8.811805      8.837357     0.025553    Cartesian    0.29
    313 y          8.811805      8.833729     0.021924    Cartesian    0.25
    313 z          4.405902      4.412955     0.007053    Cartesian    0.16
    314 x          4.405902      4.408716     0.002813    Cartesian    0.06
    314 y          4.405902      4.409220     0.003317    Cartesian    0.08
    314 z         -8.811805     -8.838872    -0.027067    Cartesian    0.31
    315 x          4.405902      4.405759    -0.000144    Cartesian   -0.00
    315 y         -8.811805     -8.828128    -0.016323    Cartesian    0.19
    315 z          4.405902      4.407545     0.001642    Cartesian    0.04
    316 x          8.811805      8.833768     0.021963    Cartesian    0.25
    316 y          4.405902      4.412648     0.006746    Cartesian    0.15
    316 z          8.811805      8.833542     0.021737    Cartesian    0.25
    317 x          2.202951      2.202951     0.000000    Cartesian    0.00
    317 y         -6.608853     -6.610609    -0.001756    Cartesian    0.03
    317 z         -6.608853     -6.609131    -0.000278    Cartesian    0.00
    318 x          6.608853      6.612731     0.003878    Cartesian    0.06
    318 y          2.202951      2.203137     0.000186    Cartesian    0.01
    318 z         11.014756     11.022955     0.008199    Cartesian    0.07
    319 x          6.608853      6.610544     0.001691    Cartesian    0.03
    319 y         11.014756     11.025119     0.010363    Cartesian    0.09
    319 z          2.202951      2.202508    -0.000443    Cartesian   -0.02
    320 x         11.014756     11.017689     0.002933    Cartesian    0.03
    320 y          6.608853      6.612164     0.003311    Cartesian    0.05
    320 z         -2.202951     -2.201793     0.001159    Cartesian   -0.05
    321 x         11.014756     11.016387     0.001631    Cartesian    0.01
    321 y         -2.202951     -2.201198     0.001753    Cartesian   -0.08
    321 z          6.608853      6.611601     0.002748    Cartesian    0.04
    322 x          4.405902      4.410626     0.004724    Cartesian    0.11
    322 y          8.811805      8.827352     0.015547    Cartesian    0.18
    322 z          8.811805      8.830178     0.018373    Cartesian    0.21
    323 x         13.217707     13.239396     0.021689    Cartesian    0.16
    323 y          0.000000     -0.000625    -0.000625    Cartesian    0.00
    323 z          0.000000     -0.000307    -0.000307    Cartesian    0.00
    324 x          6.608853      6.613913     0.005060    Cartesian    0.08
    324 y         11.014756     11.023017     0.008262    Cartesian    0.08
    324 z         -2.202951     -2.205562    -0.002611    Cartesian    0.12
    325 x          2.202951      2.202951     0.000000    Cartesian    0.00
    325 y          6.608853      6.617170     0.008317    Cartesian    0.13
    325 z         11.014756     11.017269     0.002513    Cartesian    0.02
    326 x          2.202951      2.202951     0.000000    Cartesian    0.00
    326 y         11.014756     11.020400     0.005644    Cartesian    0.05
    326 z          6.608853      6.607364    -0.001490    Cartesian   -0.02
    327 x          6.608853      6.611748     0.002895    Cartesian    0.04
    327 y         -2.202951     -2.205382    -0.002431    Cartesian    0.11
    327 z         11.014756     11.020520     0.005764    Cartesian    0.05
    328 x          4.405902      4.412485     0.006583    Cartesian    0.15
    328 y         -4.405902     -4.421148    -0.015246    Cartesian    0.35
    328 z         -8.811805     -8.831963    -0.020158    Cartesian    0.23
    329 x          4.405902      4.410705     0.004803    Cartesian    0.11
    329 y         -8.811805     -8.830180    -0.018375    Cartesian    0.21
    329 z         -4.405902     -4.416653    -0.010751    Cartesian    0.24
    330 x          8.811805      8.831736     0.019931    Cartesian    0.23
    330 y          8.811805      8.834459     0.022655    Cartesian    0.26
    330 z         -4.405902     -4.414921    -0.009019    Cartesian    0.20
    331 x          8.811805      8.828054     0.016249    Cartesian    0.18
    331 y         -4.405902     -4.415934    -0.010032    Cartesian    0.23
    331 z          8.811805      8.830243     0.018439    Cartesian    0.21
    332 x         13.217707     13.238890     0.021183    Cartesian    0.16
    332 y          0.000000     -0.002142    -0.002142    Cartesian    0.00
    332 z          4.405902      4.412292     0.006389    Cartesian    0.15
    333 x         13.217707     13.243241     0.025534    Cartesian    0.19
    333 y          4.405902      4.410926     0.005024    Cartesian    0.11
    333 z          0.000000     -0.001866    -0.001866    Cartesian    0.00
    334 x          6.608853      6.612043     0.003190    Cartesian    0.05
    334 y         -6.608853     -6.613326    -0.004472    Cartesian    0.07
    334 z         -6.608853     -6.613630    -0.004776    Cartesian    0.07
    335 x         11.014756     11.017488     0.002733    Cartesian    0.02
    335 y          2.202951      2.206037     0.003086    Cartesian    0.14
    335 z         -6.608853     -6.608082     0.000772    Cartesian   -0.01
    336 x         11.014756     11.023418     0.008663    Cartesian    0.08
    336 y          6.608853      6.614041     0.005188    Cartesian    0.08
    336 z          6.608853      6.614843     0.005990    Cartesian    0.09
    337 x         11.014756     11.016129     0.001373    Cartesian    0.01
    337 y         -6.608853     -6.609210    -0.000357    Cartesian    0.01
    337 z          2.202951      2.206435     0.003484    Cartesian    0.16
    338 x         13.217707     13.242134     0.024427    Cartesian    0.18
    338 y          4.405902      4.413970     0.008068    Cartesian    0.18
    338 z          4.405902      4.415876     0.009973    Cartesian    0.23
    339 x          8.811805      8.827435     0.015630    Cartesian    0.18
    339 y          0.000000     -0.003989    -0.003989    Cartesian    0.00
    339 z         -8.811805     -8.836478    -0.024674    Cartesian    0.28
    340 x          8.811805      8.823802     0.011997    Cartesian    0.14
    340 y         -8.811805     -8.832886    -0.021082    Cartesian    0.24
    340 z          0.000000     -0.002422    -0.002422    Cartesian    0.00
--------------------------------------------------------------------------------


  Time to end of optimisation  =       42.7319 seconds


  Peak dynamic memory used =     107.81 MB 


  Timing analysis for GULP :

--------------------------------------------------------------------------------
  Task / Subroutine                                          Time (Seconds)
--------------------------------------------------------------------------------
  Calculation of reciprocal space energy and derivatives          0.0007
  Calculation of reciprocal space energy using symmetry           0.0014
  Calculation of real space energy and derivatives                0.0042
  Calculation of real space energy using symmetry                 0.0132
  Calculation for region 1 energy and derivatives (2-b)          22.6149
  Calculation for region 2a energy                               17.9799
  Calculation for region 2b energy                                0.0055
  Calculation and manipulation of Hessian matrix                  0.1095
  Calculation of matrix inversion                                 1.7834
  Symmetry generation of equivalent positions                     0.0049
--------------------------------------------------------------------------------
  Total CPU time                                                 42.7320
--------------------------------------------------------------------------------


  Dump file written as Na3OCl.grs


  Job Finished at 15:17.51  2nd January    2021                               

