********************************************************************************
*                       GENERAL UTILITY LATTICE PROGRAM                        *
*                                 Julian Gale                                  *
*                       Curtin Institute for Computation                       *
*                    School of Molecular and Life Sciences                     *
*                    Curtin University, Western Australia                      *
********************************************************************************
* Version = 5.2.0 * Last modified =  10th September 2020                       *
********************************************************************************
*  optimise     - perform optimisation run                                     *
*  conp         - constant pressure calculation                                *
*  property     - calculate properties for final geometry                      *
*  defect       - perform defect calculation after bulk run                    *
*  compare      - compare initial and final structures                         *
********************************************************************************

  Job Started  at 15:17.22  2nd January    2021                               

  Number of CPUs =     1


  Total number of configurations input =      1

********************************************************************************
*  Input for Configuration =   1                                               *
********************************************************************************

  Formula = ClONa3                                                      

  Number of irreducible atoms/shells =       5


  Total number atoms/shells =       7

  Dimensionality = 3               :  Bulk   


  Symmetry :

  Crystal family                   :  Cubic       
  Crystal class  (Groth - 1921)    :  Cubic Hexakisoctahedral              

  Space group (centrosymmetric)    :  P M 3 M         

  Patterson group                  :  P m -3 m 

  Cartesian lattice vectors (Angstroms) :

        4.504000    0.000000    0.000000
        0.000000    4.504000    0.000000
        0.000000    0.000000    4.504000

  Cell parameters (Angstroms/Degrees):

  a =       4.5040    alpha =  90.0000
  b =       4.5040    beta  =  90.0000
  c =       4.5040    gamma =  90.0000

  Initial cell volume =          91.368216 Angs**3

  Temperature of configuration =   0.00     K 

  Pressure of configuration =         0.000 GPa 

  Fractional coordinates of asymmetric unit :

--------------------------------------------------------------------------------
   No.  Atomic       x           y          z         Charge      Occupancy
        Label      (Frac)      (Frac)     (Frac)        (e)         (Frac)  
--------------------------------------------------------------------------------
      1 Cl    c    0.000000    0.000000    0.000000     1.48500    1.000000    
      2 O     c    0.500000    0.500000    0.500000     0.18300    1.000000    
      3 Na    c    0.500000    0.500000    0.000000     1.00000    1.000000    
      4 Cl    s    0.000000    0.000000    0.000000    -2.48500    1.000000    
      5 O     s    0.500000    0.500000    0.500000    -2.18300    1.000000    
--------------------------------------------------------------------------------


  Constraints : 

--------------------------------------------------------------------------------
  Constraint no.      Unconstrained     Constrained    Coefficient    Offset
                         Variable         Variable
--------------------------------------------------------------------------------
           1              Strain 1        Strain 2       1.00000      0.0000
           2              Strain 1        Strain 3       1.00000      0.0000
--------------------------------------------------------------------------------


********************************************************************************
*  General input information                                                   *
********************************************************************************

  Species output for all configurations : 

--------------------------------------------------------------------------------
  Species    Type    Atomic    Atomic    Charge       Radii (Angs)     Library
                     Number     Mass       (e)     Cova   Ionic  VDW   Symbol
--------------------------------------------------------------------------------
    Na       Core       11      22.99   1.000000   0.970  0.000  2.300          
    O        Core        8      16.00   0.183000   0.730  0.000  1.360          
    O        Shell       8       0.00  -2.183000   0.730  0.000  1.360          
    Cl       Core       17      35.45   1.485000   0.990  0.000  1.650          
    Cl       Shell      17       0.00  -2.485000   0.990  0.000  1.650          
    Mg       Core       12      24.31   0.415000   1.100  0.000  0.000          
    Mg       Shell      12       0.00   1.585000   1.100  0.000  0.000          
    Ca       Core       20      40.08  -1.135000   0.990  0.000  0.000          
    Ca       Shell      20       0.00   3.135000   0.990  0.000  0.000          
    Sr       Core       38      87.62  -1.251000   1.120  0.000  0.000          
    Sr       Shell      38       0.00   3.251000   1.120  0.000  0.000          
    Ba       Core       56     137.33  -7.203000   1.340  0.000  0.000          
    Ba       Shell      56       0.00   9.203000   1.340  0.000  0.000          
--------------------------------------------------------------------------------


  Lattice summation method               =    Ewald          (3-D)
                                         =    Parry          (2-D)
                                         =    Saunders et al (1-D)
  Accuracy factor for lattice sums       =   12.000


  Analytic derivatives to be used

  Time limit = Infinity

  Maximum range for interatomic potentials =    100000.000000 Angstroms

  General interatomic potentials :

--------------------------------------------------------------------------------
Atom  Types   Potential      Parameter       Value         Units   Cutoffs(Ang)
  1     2                                                            Min /  Max 
--------------------------------------------------------------------------------
O    c O    s Spring (c-s)  Spring k 2       593.71600    eV*Ang^-2 0.000  0.800
                            Spring k 4       0.0000000    eV*Ang^-4 
--------------------------------------------------------------------------------
Cl   c Cl   s Spring (c-s)  Spring k 2       29.380000    eV*Ang^-2 0.000  0.800
                            Spring k 4       0.0000000    eV*Ang^-4 
--------------------------------------------------------------------------------
Mg   c Mg   s Spring (c-s)  Spring k 2       361.60000    eV*Ang^-2 0.000  0.800
                            Spring k 4       0.0000000    eV*Ang^-4 
--------------------------------------------------------------------------------
Ca   c Ca   s Spring (c-s)  Spring k 2       110.20000    eV*Ang^-2 0.000  0.800
                            Spring k 4       0.0000000    eV*Ang^-4 
--------------------------------------------------------------------------------
Sr   c Sr   s Spring (c-s)  Spring k 2       71.700000    eV*Ang^-2 0.000  0.800
                            Spring k 4       0.0000000    eV*Ang^-4 
--------------------------------------------------------------------------------
Ba   c Ba   s Spring (c-s)  Spring k 2       495.20000    eV*Ang^-2 0.000  0.800
                            Spring k 4       0.0000000    eV*Ang^-4 
--------------------------------------------------------------------------------
Na   c Na   c Buckingham    Buckingham A     1788.1900    eV        0.000 12.000
                            Buckingham rho  0.15900000    Ang       
                            Buckingham C     0.0000000    eV*Ang^6  
--------------------------------------------------------------------------------
Na   c O    s Buckingham    Buckingham A     588.38000    eV        0.000 12.000
                            Buckingham rho  0.33800000    Ang       
                            Buckingham C     0.0000000    eV*Ang^6  
--------------------------------------------------------------------------------
Na   c Cl   s Buckingham    Buckingham A     1170.4100    eV        0.000 12.000
                            Buckingham rho  0.31500000    Ang       
                            Buckingham C     0.0000000    eV*Ang^6  
--------------------------------------------------------------------------------
O    s O    s Buckingham    Buckingham A     22764.300    eV        0.000 12.000
                            Buckingham rho  0.14900000    Ang       
                            Buckingham C     13.190000    eV*Ang^6  
--------------------------------------------------------------------------------
O    s Cl   s Buckingham    Buckingham A     8286.9100    eV        0.000 12.000
                            Buckingham rho  0.25900000    Ang       
                            Buckingham C     62.200000    eV*Ang^6  
--------------------------------------------------------------------------------
Cl   s Cl   s Buckingham    Buckingham A     1227.2000    eV        0.000 12.000
                            Buckingham rho  0.32100000    Ang       
                            Buckingham C     14.530000    eV*Ang^6  
--------------------------------------------------------------------------------
O    s Mg   s Buckingham    Buckingham A     1428.5000    eV        0.000 12.000
                            Buckingham rho  0.29450000    Ang       
                            Buckingham C     0.0000000    eV*Ang^6  
--------------------------------------------------------------------------------
Mg   s Cl   s Buckingham    Buckingham A     4914.5400    eV        0.000 12.000
                            Buckingham rho  0.25700000    Ang       
                            Buckingham C     0.0000000    eV*Ang^6  
--------------------------------------------------------------------------------
O    s Ca   s Buckingham    Buckingham A     1090.4000    eV        0.000 12.000
                            Buckingham rho  0.34370000    Ang       
                            Buckingham C     0.0000000    eV*Ang^6  
--------------------------------------------------------------------------------
Cl   s Ca   s Buckingham    Buckingham A     2302.0000    eV        0.000 12.000
                            Buckingham rho  0.34020000    Ang       
                            Buckingham C     0.0000000    eV*Ang^6  
--------------------------------------------------------------------------------
O    s Sr   s Buckingham    Buckingham A     959.10000    eV        0.000 12.000
                            Buckingham rho  0.37210000    Ang       
                            Buckingham C     0.0000000    eV*Ang^6  
--------------------------------------------------------------------------------
Cl   s Sr   s Buckingham    Buckingham A     2191.0900    eV        0.000 12.000
                            Buckingham rho  0.34570000    Ang       
                            Buckingham C     0.0000000    eV*Ang^6  
--------------------------------------------------------------------------------
O    s Ba   s Buckingham    Buckingham A     905.70000    eV        0.000 12.000
                            Buckingham rho  0.39760000    Ang       
                            Buckingham C     0.0000000    eV*Ang^6  
--------------------------------------------------------------------------------
Cl   s Ba   s Buckingham    Buckingham A     2704.5500    eV        0.000 12.000
                            Buckingham rho  0.35280000    Ang       
                            Buckingham C     0.0000000    eV*Ang^6  
--------------------------------------------------------------------------------

********************************************************************************
*  Output for configuration   1                                                *
********************************************************************************


  Components of energy : 

--------------------------------------------------------------------------------
  Interatomic potentials     =           4.94315381 eV    
  Monopole - monopole (real) =         -10.03624526 eV    
  Monopole - monopole (recip)=         -29.53581274 eV    
  Monopole - monopole (total)=         -39.57205800 eV    
--------------------------------------------------------------------------------
  Total lattice energy       =         -34.62890419 eV    
--------------------------------------------------------------------------------
  Total lattice energy       =           -3341.1599 kJ/(mole unit cells)
--------------------------------------------------------------------------------


  Number of variables =        1

  Maximum number of calculations  =          1000
  Maximum Hessian update interval =            10
  Maximum step size               =   1.000000000
  Maximum parameter tolerance     =   0.000010000
  Maximum function  tolerance     =   0.000010000
  Maximum gradient  tolerance     =   0.001000000
  Maximum gradient  component     =   0.010000000

  Symmetry constrained optimisation

  Symmetry used for second derivatives

  Cell parameters to be optimised using strains

  Newton-Raphson optimiser to be used

  BFGS hessian update to be used

  Lower half triangular hessian to be used

  Start of bulk optimisation :

  Cycle:      0 Energy:       -34.628904  Gnorm:      4.328237  CPU:    0.017
  ** Hessian calculated **
  Cycle:      1 Energy:       -34.677667  Gnorm:      0.044008  CPU:    0.021
  Cycle:      2 Energy:       -34.677671  Gnorm:      0.003653  CPU:    0.025


  **** Optimisation achieved ****


  Final energy =     -34.67767136 eV
  Final Gnorm  =       0.00000010

  Components of energy : 

--------------------------------------------------------------------------------
  Interatomic potentials     =           5.77546103 eV    
  Monopole - monopole (real) =         -10.25970290 eV    
  Monopole - monopole (recip)=         -30.19342950 eV    
  Monopole - monopole (total)=         -40.45313239 eV    
--------------------------------------------------------------------------------
  Total lattice energy       =         -34.67767136 eV    
--------------------------------------------------------------------------------
  Total lattice energy       =           -3345.8652 kJ/(mole unit cells)
--------------------------------------------------------------------------------

  Final asymmetric unit coordinates :

--------------------------------------------------------------------------------
   No.  Atomic        x           y           z         Radius
        Label       (Frac)      (Frac)      (Frac)       (Angs) 
--------------------------------------------------------------------------------
     1  Cl    c     0.000000    0.000000    0.000000    0.000000
     2  O     c     0.500000    0.500000    0.500000    0.000000
     3  Na    c     0.500000    0.500000    0.000000    0.000000
     4  Cl    s     0.000000    0.000000    0.000000    0.000000
     5  O     s     0.500000    0.500000    0.500000    0.000000
--------------------------------------------------------------------------------

  Final Cartesian lattice vectors (Angstroms) :

        4.405902    0.000000    0.000000
        0.000000    4.405902    0.000000
        0.000000    0.000000    4.405902


  Final cell parameters and derivatives :

--------------------------------------------------------------------------------
       a            4.405902 Angstrom     dE/de1(xx)     0.000000 eV/strain
       b            4.405902 Angstrom     dE/de2(yy)     0.000000 eV/strain
       c            4.405902 Angstrom     dE/de3(zz)     0.000000 eV/strain
       alpha       90.000000 Degrees      dE/de4(yz)     0.000000 eV/strain
       beta        90.000000 Degrees      dE/de5(xz)     0.000000 eV/strain
       gamma       90.000000 Degrees      dE/de6(xy)     0.000000 eV/strain
--------------------------------------------------------------------------------

  Primitive cell volume =            85.527266 Angs**3

  Density of cell =      2.338030 g/cm**3

  Non-primitive cell volume =            85.527266 Angs**3


  Final internal derivatives :

--------------------------------------------------------------------------------
   No.  Atomic          a             b             c           Radius
        Label          (eV)          (eV)          (eV)        (eV/Angs)
--------------------------------------------------------------------------------
      1 Cl    c       0.000000      0.000000      0.000000      0.000000
      2 O     c       0.000000      0.000000      0.000000      0.000000
      3 Na    c       0.000000      0.000000      0.000000      0.000000
      4 Cl    s       0.000000      0.000000      0.000000      0.000000
      5 O     s       0.000000      0.000000      0.000000      0.000000
--------------------------------------------------------------------------------
  Maximum abs         0.000000      0.000000      0.000000      0.000000
--------------------------------------------------------------------------------

  Comparison of initial and final structures : 

--------------------------------------------------------------------------------
  Parameter   Initial value   Final value   Difference    Units      Percent
--------------------------------------------------------------------------------
    Volume        91.368216     85.527266    -5.840950    Angs**3     -6.39
    a              4.504000      4.405902    -0.098098    Angstroms   -2.18
    b              4.504000      4.405902    -0.098098    Angstroms   -2.18
    c              4.504000      4.405902    -0.098098    Angstroms   -2.18
    alpha         90.000000     90.000000     0.000000    Degrees      0.00
    beta          90.000000     90.000000     0.000000    Degrees      0.00
    gamma         90.000000     90.000000     0.000000    Degrees      0.00
      1 x          0.000000      0.000000     0.000000    Fractional   0.00
      1 y          0.000000      0.000000     0.000000    Fractional   0.00
      1 z          0.000000      0.000000     0.000000    Fractional   0.00
      2 x          0.500000      0.500000     0.000000    Fractional   0.00
      2 y          0.500000      0.500000     0.000000    Fractional   0.00
      2 z          0.500000      0.500000     0.000000    Fractional   0.00
      3 x          0.500000      0.500000     0.000000    Fractional   0.00
      3 y          0.500000      0.500000     0.000000    Fractional   0.00
      3 z          0.000000      0.000000     0.000000    Fractional   0.00
      4 x          0.000000      0.000000     0.000000    Fractional   0.00
      4 y          0.000000      0.000000     0.000000    Fractional   0.00
      4 z          0.000000      0.000000     0.000000    Fractional   0.00
      5 x          0.500000      0.500000     0.000000    Fractional   0.00
      5 y          0.500000      0.500000     0.000000    Fractional   0.00
      5 z          0.500000      0.500000     0.000000    Fractional   0.00
--------------------------------------------------------------------------------


  Born effective charge tensors : 

-------------------------------------------------------------------------------
  Atom             x           y             z
-------------------------------------------------------------------------------
    1 Cl    x      -0.9918     -0.0000     -0.0000
            y      -0.0000     -0.9918     -0.0000
            z      -0.0000     -0.0000     -0.9918
-------------------------------------------------------------------------------
    2 O     x      -2.2939      0.0000      0.0000
            y       0.0000     -2.2939      0.0000
            z       0.0000      0.0000     -2.2939
-------------------------------------------------------------------------------
    3 Na    x       1.2243      0.0000      0.0000
            y       0.0000      1.2243     -0.0000
            z       0.0000      0.0000      0.8372
-------------------------------------------------------------------------------




  Elastic Constant Matrix: (Units=GPa)

-------------------------------------------------------------------------------
  Indices      1         2         3         4         5         6    
-------------------------------------------------------------------------------
       1     82.7680   24.3534   24.3534   -0.0000    0.0000   -0.0000
       2     24.3534   82.7680   24.3534    0.0000   -0.0000   -0.0000
       3     24.3534   24.3534   82.7680    0.0000   -0.0000    0.0000
       4     -0.0000    0.0000    0.0000   24.3534   -0.0000    0.0000
       5      0.0000   -0.0000   -0.0000   -0.0000   24.3534    0.0000
       6     -0.0000   -0.0000    0.0000    0.0000    0.0000   24.3534
-------------------------------------------------------------------------------


  Elastic Compliance Matrix: (Units=1/GPa)

-------------------------------------------------------------------------------
  Indices      1         2         3         4         5         6    
-------------------------------------------------------------------------------
       1    0.013948 -0.003171 -0.003171  0.000000 -0.000000  0.000000
       2   -0.003171  0.013948 -0.003171 -0.000000  0.000000 -0.000000
       3   -0.003171 -0.003171  0.013948 -0.000000  0.000000 -0.000000
       4    0.000000 -0.000000 -0.000000  0.041062  0.000000 -0.000000
       5   -0.000000  0.000000  0.000000  0.000000  0.041062 -0.000000
       6    0.000000 -0.000000 -0.000000 -0.000000 -0.000000  0.041062
-------------------------------------------------------------------------------

  Mechanical properties :

-------------------------------------------------------------------------------
  Convention :                    Reuss         Voigt         Hill
-------------------------------------------------------------------------------
  Bulk  Modulus (GPa)     =      43.82493      43.82493      43.82493
  Shear Modulus (GPa)     =      26.08758      26.29496      26.19127
-------------------------------------------------------------------------------
  Velocity S-wave (km/s)  =       3.34035       3.35360       3.34698
  Velocity P-wave (km/s)  =       5.79842       5.80861       5.80351
-------------------------------------------------------------------------------
  Compressibility (1/GPa) =    0.02281806
-------------------------------------------------------------------------------
  Stress axis :                     x             y             z
-------------------------------------------------------------------------------
  Youngs Moduli (GPa)     =      71.69479      71.69479      71.69479
-------------------------------------------------------------------------------
  Poissons Ratio (x)      =                     0.22734       0.22734
  Poissons Ratio (y)      =       0.22734                     0.22734
  Poissons Ratio (z)      =       0.22734       0.22734
-------------------------------------------------------------------------------


  Piezoelectric Strain Matrix: (Units=C/m**2)

-------------------------------------------------------------------------------
  Indices      1         2         3         4         5         6    
-------------------------------------------------------------------------------
       x    -0.00000  -0.00000  -0.00000  -0.00000   0.00000  -0.00000
       y     0.00000  -0.00000   0.00000   0.00000  -0.00000   0.00000
       z    -0.00000  -0.00000   0.00000  -0.00000   0.00000  -0.00000
-------------------------------------------------------------------------------


  Piezoelectric Stress Matrix: (Units=10**-11 C/N)

-------------------------------------------------------------------------------
  Indices      1         2         3         4         5         6    
-------------------------------------------------------------------------------
       x     0.00000  -0.00000  -0.00000  -0.00000   0.00000  -0.00000
       y     0.00000  -0.00000   0.00000   0.00000  -0.00000   0.00000
       z    -0.00000  -0.00000   0.00000  -0.00000   0.00000  -0.00000
-------------------------------------------------------------------------------


  Static dielectric constant tensor : 

-------------------------------------------------------------------------------
              x         y         z
-------------------------------------------------------------------------------
       x    11.08357   0.00000   0.00000
       y     0.00000  11.08357   0.00000
       z     0.00000   0.00000  11.08357
--------------------------------------------------------------------------------

  High frequency dielectric constant tensor : 

-------------------------------------------------------------------------------
              x         y         z
-------------------------------------------------------------------------------
       x     1.50771   0.00000   0.00000
       y     0.00000   1.50771   0.00000
       z     0.00000   0.00000   1.50771
-------------------------------------------------------------------------------

  Static refractive indices : 

-------------------------------------------------------------------------------
    1 =    3.32920      2 =    3.32920      3 =    3.32920
-------------------------------------------------------------------------------

  High frequency refractive indices : 

-------------------------------------------------------------------------------
    1 =    1.22789      2 =    1.22789      3 =    1.22789
-------------------------------------------------------------------------------


  Time to end of optimisation =       0.0353 seconds

********************************************************************************
*  Defect calculation for configuration   1 :                                  *
********************************************************************************

  Total number of defects =      3

  Total charge on defect  =  -1.00

  Defect centre is at   0.5000   0.2500   0.2500  Frac

  Region 1 radius =  12.0000      Number of ions =    593

  Number of symmetry inequivalent region 1 ions  =    340

  Region 2 radius =  16.0000      Number of ions =    832

  Number of symmetry inequivalent region 2a ions =    454

  Region 2a mode = 4 : screened electrostatics due to region 1 
                       neglect correction to region 1 forces from 2a
                       region 2a displacements based on defects only

  Region 2a ions will only interact with defects in region 1

  Vacancies:

--------------------------------------------------------------------------------
    Specification type     Symbol/Number         x          y          z
--------------------------------------------------------------------------------
    Fractional                               0.500000   0.500000   0.000000
    Fractional                               0.500000   0.000000   0.500000
--------------------------------------------------------------------------------

  Interstitials:

--------------------------------------------------------------------------------
    Specification type     Symbol/Number         x          y          z
--------------------------------------------------------------------------------
    Atom/Fractional         Na               0.500000   0.210000   0.290000
--------------------------------------------------------------------------------


  Symmetry reduced region 1 (Relative to defect centre) :

--------------------------------------------------------------------------------
   No.   Atomic       x            y             z       Radius  Multiplicity   
         Label      (Angs)       (Angs)        (Angs)    (Angs)     
--------------------------------------------------------------------------------
     1  Na    c      0.0000      -0.1762       0.1762    0.0000     1    Defect
     2  O     c      0.0000       1.1015 *     1.1015 *  0.0000     1          
     3  Cl    c      2.2030 *    -1.1015 *    -1.1015 *  0.0000     2          
     4  Na    c      2.2030 *     1.1015 *     1.1015 *  0.0000     2          
     5  O     c      0.0000       1.1015 *    -3.3044 *  0.0000     1          
     6  O     c      0.0000      -3.3044 *     1.1015 *  0.0000     1          
     7  Na    c      0.0000       1.1015 *     3.3044 *  0.0000     1          
     8  Na    c      0.0000      -3.3044 *    -1.1015 *  0.0000     1          
     9  Na    c      0.0000      -1.1015 *    -3.3044 *  0.0000     1          
    10  Na    c      0.0000       3.3044 *     1.1015 *  0.0000     1          
    11  Cl    c      2.2030 *    -1.1015 *     3.3044 *  0.0000     2          
    12  Na    c      2.2030 *     1.1015 *    -3.3044 *  0.0000     2          
    13  Cl    c      2.2030 *     3.3044 *    -1.1015 *  0.0000     2          
    14  Na    c      2.2030 *    -3.3044 *     1.1015 *  0.0000     2          
    15  O     c      0.0000      -3.3044 *    -3.3044 *  0.0000     1          
    16  Na    c      0.0000      -3.3044 *     3.3044 *  0.0000     1          
    17  Na    c      0.0000       3.3044 *    -3.3044 *  0.0000     1          
    18  O     c      4.4059 *     1.1015 *     1.1015 *  0.0000     2          
    19  Na    c      4.4059 *     1.1015 *    -1.1015 *  0.0000     2          
    20  Na    c      4.4059 *    -1.1015 *     1.1015 *  0.0000     2          
    21  Cl    c      2.2030 *     3.3044 *     3.3044 *  0.0000     2          
    22  Na    c      2.2030 *    -3.3044 *    -3.3044 *  0.0000     2          
    23  O     c      0.0000       1.1015 *     5.5074 *  0.0000     1          
    24  O     c      0.0000       5.5074 *     1.1015 *  0.0000     1          
    25  O     c      4.4059 *     1.1015 *    -3.3044 *  0.0000     2          
    26  Na    c      0.0000       1.1015 *    -5.5074 *  0.0000     1          
    27  Na    c      0.0000       5.5074 *    -1.1015 *  0.0000     1          
    28  Na    c      4.4059 *     1.1015 *     3.3044 *  0.0000     2          
    29  Na    c      0.0000      -1.1015 *     5.5074 *  0.0000     1          
    30  Na    c      0.0000      -5.5074 *     1.1015 *  0.0000     1          
    31  Na    c      4.4059 *    -1.1015 *    -3.3044 *  0.0000     2          
    32  O     c      4.4059 *    -3.3044 *     1.1015 *  0.0000     2          
    33  Na    c      4.4059 *    -3.3044 *    -1.1015 *  0.0000     2          
    34  Na    c      4.4059 *     3.3044 *     1.1015 *  0.0000     2          
    35  Cl    c      2.2030 *    -1.1015 *    -5.5074 *  0.0000     2          
    36  Cl    c      2.2030 *    -5.5074 *    -1.1015 *  0.0000     2          
    37  Na    c      2.2030 *     1.1015 *     5.5074 *  0.0000     2          
    38  Na    c      2.2030 *     5.5074 *     1.1015 *  0.0000     2          
    39  O     c      0.0000       5.5074 *    -3.3044 *  0.0000     1          
    40  O     c      0.0000      -3.3044 *     5.5074 *  0.0000     1          
    41  Na    c      0.0000       5.5074 *     3.3044 *  0.0000     1          
    42  Na    c      0.0000      -3.3044 *    -5.5074 *  0.0000     1          
    43  Na    c      0.0000       3.3044 *     5.5074 *  0.0000     1          
    44  Na    c      0.0000      -5.5074 *    -3.3044 *  0.0000     1          
    45  O     c      4.4059 *    -3.3044 *    -3.3044 *  0.0000     2          
    46  Na    c      4.4059 *    -3.3044 *     3.3044 *  0.0000     2          
    47  Na    c      4.4059 *     3.3044 *    -3.3044 *  0.0000     2          
    48  Cl    c      6.6089 *    -1.1015 *    -1.1015 *  0.0000     2          
    49  Na    c      6.6089 *     1.1015 *     1.1015 *  0.0000     2          
    50  Cl    c      2.2030 *     3.3044 *    -5.5074 *  0.0000     2          
    51  Cl    c      2.2030 *    -5.5074 *     3.3044 *  0.0000     2          
    52  Na    c      2.2030 *     5.5074 *    -3.3044 *  0.0000     2          
    53  Na    c      2.2030 *    -3.3044 *     5.5074 *  0.0000     2          
    54  O     c      4.4059 *     1.1015 *     5.5074 *  0.0000     2          
    55  O     c      4.4059 *     5.5074 *     1.1015 *  0.0000     2          
    56  Na    c      4.4059 *     1.1015 *    -5.5074 *  0.0000     2          
    57  Na    c      4.4059 *     5.5074 *    -1.1015 *  0.0000     2          
    58  Na    c      4.4059 *    -1.1015 *     5.5074 *  0.0000     2          
    59  Na    c      4.4059 *    -5.5074 *     1.1015 *  0.0000     2          
    60  Cl    c      6.6089 *    -1.1015 *     3.3044 *  0.0000     2          
    61  Cl    c      6.6089 *     3.3044 *    -1.1015 *  0.0000     2          
    62  Na    c      6.6089 *     1.1015 *    -3.3044 *  0.0000     2          
    63  Na    c      6.6089 *    -3.3044 *     1.1015 *  0.0000     2          
    64  O     c      0.0000       1.1015 *    -7.7103 *  0.0000     1          
    65  O     c      0.0000       5.5074 *     5.5074 *  0.0000     1          
    66  O     c      0.0000      -7.7103 *     1.1015 *  0.0000     1          
    67  Na    c      0.0000       1.1015 *     7.7103 *  0.0000     1          
    68  Na    c      0.0000       5.5074 *    -5.5074 *  0.0000     1          
    69  Na    c      0.0000      -7.7103 *    -1.1015 *  0.0000     1          
    70  Na    c      0.0000      -1.1015 *    -7.7103 *  0.0000     1          
    71  Na    c      0.0000       7.7103 *     1.1015 *  0.0000     1          
    72  Na    c      0.0000      -5.5074 *     5.5074 *  0.0000     1          
    73  O     c      4.4059 *     5.5074 *    -3.3044 *  0.0000     2          
    74  O     c      4.4059 *    -3.3044 *     5.5074 *  0.0000     2          
    75  Na    c      4.4059 *     5.5074 *     3.3044 *  0.0000     2          
    76  Na    c      4.4059 *    -3.3044 *    -5.5074 *  0.0000     2          
    77  Na    c      4.4059 *     3.3044 *     5.5074 *  0.0000     2          
    78  Na    c      4.4059 *    -5.5074 *    -3.3044 *  0.0000     2          
    79  Cl    c      2.2030 *    -1.1015 *     7.7103 *  0.0000     2          
    80  Cl    c      2.2030 *    -5.5074 *    -5.5074 *  0.0000     2          
    81  Cl    c      6.6089 *     3.3044 *     3.3044 *  0.0000     2          
    82  Na    c      2.2030 *     1.1015 *    -7.7103 *  0.0000     2          
    83  Na    c      2.2030 *     5.5074 *     5.5074 *  0.0000     2          
    84  Na    c      6.6089 *    -3.3044 *    -3.3044 *  0.0000     2          
    85  Cl    c      2.2030 *     7.7103 *    -1.1015 *  0.0000     2          
    86  Na    c      2.2030 *    -7.7103 *     1.1015 *  0.0000     2          
    87  O     c      0.0000      -3.3044 *    -7.7103 *  0.0000     1          
    88  O     c      0.0000      -7.7103 *    -3.3044 *  0.0000     1          
    89  Na    c      0.0000      -3.3044 *     7.7103 *  0.0000     1          
    90  Na    c      0.0000      -7.7103 *     3.3044 *  0.0000     1          
    91  Na    c      0.0000       3.3044 *    -7.7103 *  0.0000     1          
    92  Na    c      0.0000       7.7103 *    -3.3044 *  0.0000     1          
    93  Cl    c      2.2030 *     3.3044 *     7.7103 *  0.0000     2          
    94  Cl    c      6.6089 *    -1.1015 *    -5.5074 *  0.0000     2          
    95  Na    c      2.2030 *    -3.3044 *    -7.7103 *  0.0000     2          
    96  Na    c      6.6089 *     1.1015 *     5.5074 *  0.0000     2          
    97  Cl    c      2.2030 *     7.7103 *     3.3044 *  0.0000     2          
    98  Cl    c      6.6089 *    -5.5074 *    -1.1015 *  0.0000     2          
    99  Na    c      2.2030 *    -7.7103 *    -3.3044 *  0.0000     2          
   100  Na    c      6.6089 *     5.5074 *     1.1015 *  0.0000     2          
   101  O     c      4.4059 *     1.1015 *    -7.7103 *  0.0000     2          
   102  O     c      4.4059 *     5.5074 *     5.5074 *  0.0000     2          
   103  Na    c      4.4059 *     1.1015 *     7.7103 *  0.0000     2          
   104  Na    c      4.4059 *     5.5074 *    -5.5074 *  0.0000     2          
   105  Na    c      4.4059 *    -1.1015 *    -7.7103 *  0.0000     2          
   106  Na    c      4.4059 *    -5.5074 *     5.5074 *  0.0000     2          
   107  O     c      4.4059 *    -7.7103 *     1.1015 *  0.0000     2          
   108  O     c      8.8118 *     1.1015 *     1.1015 *  0.0000     2          
   109  Na    c      4.4059 *    -7.7103 *    -1.1015 *  0.0000     2          
   110  Na    c      8.8118 *     1.1015 *    -1.1015 *  0.0000     2          
   111  Na    c      4.4059 *     7.7103 *     1.1015 *  0.0000     2          
   112  Na    c      8.8118 *    -1.1015 *     1.1015 *  0.0000     2          
   113  Cl    c      6.6089 *     3.3044 *    -5.5074 *  0.0000     2          
   114  Cl    c      6.6089 *    -5.5074 *     3.3044 *  0.0000     2          
   115  Na    c      6.6089 *     5.5074 *    -3.3044 *  0.0000     2          
   116  Na    c      6.6089 *    -3.3044 *     5.5074 *  0.0000     2          
   117  O     c      0.0000       5.5074 *    -7.7103 *  0.0000     1          
   118  O     c      0.0000      -7.7103 *     5.5074 *  0.0000     1          
   119  O     c      4.4059 *    -3.3044 *    -7.7103 *  0.0000     2          
   120  Na    c      0.0000       5.5074 *     7.7103 *  0.0000     1          
   121  Na    c      0.0000      -7.7103 *    -5.5074 *  0.0000     1          
   122  Na    c      4.4059 *    -3.3044 *     7.7103 *  0.0000     2          
   123  Na    c      0.0000       7.7103 *     5.5074 *  0.0000     1          
   124  Na    c      0.0000      -5.5074 *    -7.7103 *  0.0000     1          
   125  Na    c      4.4059 *     3.3044 *    -7.7103 *  0.0000     2          
   126  O     c      4.4059 *    -7.7103 *    -3.3044 *  0.0000     2          
   127  O     c      8.8118 *     1.1015 *    -3.3044 *  0.0000     2          
   128  O     c      8.8118 *    -3.3044 *     1.1015 *  0.0000     2          
   129  Na    c      4.4059 *    -7.7103 *     3.3044 *  0.0000     2          
   130  Na    c      8.8118 *     1.1015 *     3.3044 *  0.0000     2          
   131  Na    c      8.8118 *    -3.3044 *    -1.1015 *  0.0000     2          
   132  Na    c      4.4059 *     7.7103 *    -3.3044 *  0.0000     2          
   133  Na    c      8.8118 *    -1.1015 *    -3.3044 *  0.0000     2          
   134  Na    c      8.8118 *     3.3044 *     1.1015 *  0.0000     2          
   135  Cl    c      2.2030 *     7.7103 *    -5.5074 *  0.0000     2          
   136  Cl    c      2.2030 *    -5.5074 *     7.7103 *  0.0000     2          
   137  Na    c      2.2030 *     5.5074 *    -7.7103 *  0.0000     2          
   138  Na    c      2.2030 *    -7.7103 *     5.5074 *  0.0000     2          
   139  O     c      0.0000       1.1015 *     9.9133 *  0.0000     1          
   140  O     c      0.0000       9.9133 *     1.1015 *  0.0000     1          
   141  O     c      8.8118 *    -3.3044 *    -3.3044 *  0.0000     2          
   142  Na    c      0.0000       1.1015 *    -9.9133 *  0.0000     1          
   143  Na    c      0.0000       9.9133 *    -1.1015 *  0.0000     1          
   144  Na    c      8.8118 *    -3.3044 *     3.3044 *  0.0000     2          
   145  Na    c      0.0000      -1.1015 *     9.9133 *  0.0000     1          
   146  Na    c      0.0000      -9.9133 *     1.1015 *  0.0000     1          
   147  Na    c      8.8118 *     3.3044 *    -3.3044 *  0.0000     2          
   148  Cl    c      2.2030 *    -1.1015 *    -9.9133 *  0.0000     2          
   149  Cl    c      6.6089 *    -1.1015 *     7.7103 *  0.0000     2          
   150  Cl    c      6.6089 *     7.7103 *    -1.1015 *  0.0000     2          
   151  Cl    c      6.6089 *    -5.5074 *    -5.5074 *  0.0000     2          
   152  Na    c      2.2030 *     1.1015 *     9.9133 *  0.0000     2          
   153  Na    c      6.6089 *     1.1015 *    -7.7103 *  0.0000     2          
   154  Na    c      6.6089 *     5.5074 *     5.5074 *  0.0000     2          
   155  Na    c      6.6089 *    -7.7103 *     1.1015 *  0.0000     2          
   156  Cl    c      2.2030 *    -9.9133 *    -1.1015 *  0.0000     2          
   157  Na    c      2.2030 *     9.9133 *     1.1015 *  0.0000     2          
   158  O     c      0.0000       9.9133 *    -3.3044 *  0.0000     1          
   159  O     c      0.0000      -3.3044 *     9.9133 *  0.0000     1          
   160  O     c      4.4059 *     5.5074 *    -7.7103 *  0.0000     2          
   161  O     c      4.4059 *    -7.7103 *     5.5074 *  0.0000     2          
   162  O     c      8.8118 *     1.1015 *     5.5074 *  0.0000     2          
   163  O     c      8.8118 *     5.5074 *     1.1015 *  0.0000     2          
   164  Na    c      0.0000       9.9133 *     3.3044 *  0.0000     1          
   165  Na    c      0.0000      -3.3044 *    -9.9133 *  0.0000     1          
   166  Na    c      4.4059 *     5.5074 *     7.7103 *  0.0000     2          
   167  Na    c      4.4059 *    -7.7103 *    -5.5074 *  0.0000     2          
   168  Na    c      8.8118 *     1.1015 *    -5.5074 *  0.0000     2          
   169  Na    c      8.8118 *     5.5074 *    -1.1015 *  0.0000     2          
   170  Na    c      0.0000       3.3044 *     9.9133 *  0.0000     1          
   171  Na    c      0.0000      -9.9133 *    -3.3044 *  0.0000     1          
   172  Na    c      4.4059 *     7.7103 *     5.5074 *  0.0000     2          
   173  Na    c      4.4059 *    -5.5074 *    -7.7103 *  0.0000     2          
   174  Na    c      8.8118 *    -1.1015 *     5.5074 *  0.0000     2          
   175  Na    c      8.8118 *    -5.5074 *     1.1015 *  0.0000     2          
   176  Cl    c      6.6089 *     7.7103 *     3.3044 *  0.0000     2          
   177  Na    c      6.6089 *    -7.7103 *    -3.3044 *  0.0000     2          
   178  Cl    c      2.2030 *     3.3044 *    -9.9133 *  0.0000     2          
   179  Cl    c      2.2030 *    -9.9133 *     3.3044 *  0.0000     2          
   180  Cl    c      6.6089 *     3.3044 *     7.7103 *  0.0000     2          
   181  Na    c      2.2030 *     9.9133 *    -3.3044 *  0.0000     2          
   182  Na    c      2.2030 *    -3.3044 *     9.9133 *  0.0000     2          
   183  Na    c      6.6089 *    -3.3044 *    -7.7103 *  0.0000     2          
   184  O     c      0.0000      -7.7103 *    -7.7103 *  0.0000     1          
   185  O     c      4.4059 *     1.1015 *     9.9133 *  0.0000     2          
   186  O     c      4.4059 *     9.9133 *     1.1015 *  0.0000     2          
   187  O     c      8.8118 *     5.5074 *    -3.3044 *  0.0000     2          
   188  O     c      8.8118 *    -3.3044 *     5.5074 *  0.0000     2          
   189  Na    c      0.0000      -7.7103 *     7.7103 *  0.0000     1          
   190  Na    c      4.4059 *     1.1015 *    -9.9133 *  0.0000     2          
   191  Na    c      4.4059 *     9.9133 *    -1.1015 *  0.0000     2          
   192  Na    c      8.8118 *     5.5074 *     3.3044 *  0.0000     2          
   193  Na    c      8.8118 *    -3.3044 *    -5.5074 *  0.0000     2          
   194  Na    c      0.0000       7.7103 *    -7.7103 *  0.0000     1          
   195  Na    c      4.4059 *    -1.1015 *     9.9133 *  0.0000     2          
   196  Na    c      4.4059 *    -9.9133 *     1.1015 *  0.0000     2          
   197  Na    c      8.8118 *     3.3044 *     5.5074 *  0.0000     2          
   198  Na    c      8.8118 *    -5.5074 *    -3.3044 *  0.0000     2          
   199  Cl    c      2.2030 *     7.7103 *     7.7103 *  0.0000     2          
   200  Cl    c     11.0148 *    -1.1015 *    -1.1015 *  0.0000     2          
   201  Na    c      2.2030 *    -7.7103 *    -7.7103 *  0.0000     2          
   202  Na    c     11.0148 *     1.1015 *     1.1015 *  0.0000     2          
   203  O     c      4.4059 *     9.9133 *    -3.3044 *  0.0000     2          
   204  Na    c      4.4059 *     9.9133 *     3.3044 *  0.0000     2          
   205  Na    c      4.4059 *    -9.9133 *    -3.3044 *  0.0000     2          
   206  O     c      0.0000       5.5074 *     9.9133 *  0.0000     1          
   207  O     c      0.0000       9.9133 *     5.5074 *  0.0000     1          
   208  O     c      4.4059 *    -3.3044 *     9.9133 *  0.0000     2          
   209  Na    c      0.0000       5.5074 *    -9.9133 *  0.0000     1          
   210  Na    c      0.0000       9.9133 *    -5.5074 *  0.0000     1          
   211  Na    c      4.4059 *    -3.3044 *    -9.9133 *  0.0000     2          
   212  Na    c      0.0000      -5.5074 *     9.9133 *  0.0000     1          
   213  Na    c      0.0000      -9.9133 *     5.5074 *  0.0000     1          
   214  Na    c      4.4059 *     3.3044 *     9.9133 *  0.0000     2          
   215  Cl    c      2.2030 *    -5.5074 *    -9.9133 *  0.0000     2          
   216  Cl    c      2.2030 *    -9.9133 *    -5.5074 *  0.0000     2          
   217  Cl    c      6.6089 *     7.7103 *    -5.5074 *  0.0000     2          
   218  Cl    c      6.6089 *    -5.5074 *     7.7103 *  0.0000     2          
   219  Cl    c     11.0148 *    -1.1015 *     3.3044 *  0.0000     2          
   220  Cl    c     11.0148 *     3.3044 *    -1.1015 *  0.0000     2          
   221  Na    c      2.2030 *     5.5074 *     9.9133 *  0.0000     2          
   222  Na    c      2.2030 *     9.9133 *     5.5074 *  0.0000     2          
   223  Na    c      6.6089 *     5.5074 *    -7.7103 *  0.0000     2          
   224  Na    c      6.6089 *    -7.7103 *     5.5074 *  0.0000     2          
   225  Na    c     11.0148 *     1.1015 *    -3.3044 *  0.0000     2          
   226  Na    c     11.0148 *    -3.3044 *     1.1015 *  0.0000     2          
   227  O     c      4.4059 *    -7.7103 *    -7.7103 *  0.0000     2          
   228  O     c      8.8118 *     1.1015 *    -7.7103 *  0.0000     2          
   229  O     c      8.8118 *     5.5074 *     5.5074 *  0.0000     2          
   230  Na    c      4.4059 *    -7.7103 *     7.7103 *  0.0000     2          
   231  Na    c      8.8118 *     1.1015 *     7.7103 *  0.0000     2          
   232  Na    c      8.8118 *     5.5074 *    -5.5074 *  0.0000     2          
   233  Na    c      4.4059 *     7.7103 *    -7.7103 *  0.0000     2          
   234  Na    c      8.8118 *    -1.1015 *    -7.7103 *  0.0000     2          
   235  Na    c      8.8118 *    -5.5074 *     5.5074 *  0.0000     2          
   236  O     c      8.8118 *    -7.7103 *     1.1015 *  0.0000     2          
   237  Na    c      8.8118 *    -7.7103 *    -1.1015 *  0.0000     2          
   238  Na    c      8.8118 *     7.7103 *     1.1015 *  0.0000     2          
   239  Cl    c     11.0148 *     3.3044 *     3.3044 *  0.0000     2          
   240  Na    c     11.0148 *    -3.3044 *    -3.3044 *  0.0000     2          
   241  Cl    c      6.6089 *    -1.1015 *    -9.9133 *  0.0000     2          
   242  Cl    c      6.6089 *    -9.9133 *    -1.1015 *  0.0000     2          
   243  Na    c      6.6089 *     1.1015 *     9.9133 *  0.0000     2          
   244  Na    c      6.6089 *     9.9133 *     1.1015 *  0.0000     2          
   245  O     s      0.0000       1.1015 *     1.1015 *  0.0000     1          
   246  Cl    s      2.2030 *    -1.1015 *    -1.1015 *  0.0000     2          
   247  O     s      0.0000       1.1015 *    -3.3044 *  0.0000     1          
   248  O     s      0.0000      -3.3044 *     1.1015 *  0.0000     1          
   249  Cl    s      2.2030 *    -1.1015 *     3.3044 *  0.0000     2          
   250  Cl    s      2.2030 *     3.3044 *    -1.1015 *  0.0000     2          
   251  O     s      0.0000      -3.3044 *    -3.3044 *  0.0000     1          
   252  O     s      4.4059 *     1.1015 *     1.1015 *  0.0000     2          
   253  Cl    s      2.2030 *     3.3044 *     3.3044 *  0.0000     2          
   254  O     s      0.0000       1.1015 *     5.5074 *  0.0000     1          
   255  O     s      0.0000       5.5074 *     1.1015 *  0.0000     1          
   256  O     s      4.4059 *     1.1015 *    -3.3044 *  0.0000     2          
   257  O     s      4.4059 *    -3.3044 *     1.1015 *  0.0000     2          
   258  Cl    s      2.2030 *    -1.1015 *    -5.5074 *  0.0000     2          
   259  Cl    s      2.2030 *    -5.5074 *    -1.1015 *  0.0000     2          
   260  O     s      0.0000       5.5074 *    -3.3044 *  0.0000     1          
   261  O     s      0.0000      -3.3044 *     5.5074 *  0.0000     1          
   262  O     s      4.4059 *    -3.3044 *    -3.3044 *  0.0000     2          
   263  Cl    s      6.6089 *    -1.1015 *    -1.1015 *  0.0000     2          
   264  Cl    s      2.2030 *     3.3044 *    -5.5074 *  0.0000     2          
   265  Cl    s      2.2030 *    -5.5074 *     3.3044 *  0.0000     2          
   266  O     s      4.4059 *     1.1015 *     5.5074 *  0.0000     2          
   267  O     s      4.4059 *     5.5074 *     1.1015 *  0.0000     2          
   268  Cl    s      6.6089 *    -1.1015 *     3.3044 *  0.0000     2          
   269  Cl    s      6.6089 *     3.3044 *    -1.1015 *  0.0000     2          
   270  O     s      0.0000       1.1015 *    -7.7103 *  0.0000     1          
   271  O     s      0.0000       5.5074 *     5.5074 *  0.0000     1          
   272  O     s      0.0000      -7.7103 *     1.1015 *  0.0000     1          
   273  O     s      4.4059 *     5.5074 *    -3.3044 *  0.0000     2          
   274  O     s      4.4059 *    -3.3044 *     5.5074 *  0.0000     2          
   275  Cl    s      2.2030 *    -1.1015 *     7.7103 *  0.0000     2          
   276  Cl    s      2.2030 *    -5.5074 *    -5.5074 *  0.0000     2          
   277  Cl    s      6.6089 *     3.3044 *     3.3044 *  0.0000     2          
   278  Cl    s      2.2030 *     7.7103 *    -1.1015 *  0.0000     2          
   279  O     s      0.0000      -3.3044 *    -7.7103 *  0.0000     1          
   280  O     s      0.0000      -7.7103 *    -3.3044 *  0.0000     1          
   281  Cl    s      2.2030 *     3.3044 *     7.7103 *  0.0000     2          
   282  Cl    s      6.6089 *    -1.1015 *    -5.5074 *  0.0000     2          
   283  Cl    s      2.2030 *     7.7103 *     3.3044 *  0.0000     2          
   284  Cl    s      6.6089 *    -5.5074 *    -1.1015 *  0.0000     2          
   285  O     s      4.4059 *     1.1015 *    -7.7103 *  0.0000     2          
   286  O     s      4.4059 *     5.5074 *     5.5074 *  0.0000     2          
   287  O     s      4.4059 *    -7.7103 *     1.1015 *  0.0000     2          
   288  O     s      8.8118 *     1.1015 *     1.1015 *  0.0000     2          
   289  Cl    s      6.6089 *     3.3044 *    -5.5074 *  0.0000     2          
   290  Cl    s      6.6089 *    -5.5074 *     3.3044 *  0.0000     2          
   291  O     s      0.0000       5.5074 *    -7.7103 *  0.0000     1          
   292  O     s      0.0000      -7.7103 *     5.5074 *  0.0000     1          
   293  O     s      4.4059 *    -3.3044 *    -7.7103 *  0.0000     2          
   294  O     s      4.4059 *    -7.7103 *    -3.3044 *  0.0000     2          
   295  O     s      8.8118 *     1.1015 *    -3.3044 *  0.0000     2          
   296  O     s      8.8118 *    -3.3044 *     1.1015 *  0.0000     2          
   297  Cl    s      2.2030 *     7.7103 *    -5.5074 *  0.0000     2          
   298  Cl    s      2.2030 *    -5.5074 *     7.7103 *  0.0000     2          
   299  O     s      0.0000       1.1015 *     9.9133 *  0.0000     1          
   300  O     s      0.0000       9.9133 *     1.1015 *  0.0000     1          
   301  O     s      8.8118 *    -3.3044 *    -3.3044 *  0.0000     2          
   302  Cl    s      2.2030 *    -1.1015 *    -9.9133 *  0.0000     2          
   303  Cl    s      6.6089 *    -1.1015 *     7.7103 *  0.0000     2          
   304  Cl    s      6.6089 *     7.7103 *    -1.1015 *  0.0000     2          
   305  Cl    s      6.6089 *    -5.5074 *    -5.5074 *  0.0000     2          
   306  Cl    s      2.2030 *    -9.9133 *    -1.1015 *  0.0000     2          
   307  O     s      0.0000       9.9133 *    -3.3044 *  0.0000     1          
   308  O     s      0.0000      -3.3044 *     9.9133 *  0.0000     1          
   309  O     s      4.4059 *     5.5074 *    -7.7103 *  0.0000     2          
   310  O     s      4.4059 *    -7.7103 *     5.5074 *  0.0000     2          
   311  O     s      8.8118 *     1.1015 *     5.5074 *  0.0000     2          
   312  O     s      8.8118 *     5.5074 *     1.1015 *  0.0000     2          
   313  Cl    s      6.6089 *     7.7103 *     3.3044 *  0.0000     2          
   314  Cl    s      2.2030 *     3.3044 *    -9.9133 *  0.0000     2          
   315  Cl    s      2.2030 *    -9.9133 *     3.3044 *  0.0000     2          
   316  Cl    s      6.6089 *     3.3044 *     7.7103 *  0.0000     2          
   317  O     s      0.0000      -7.7103 *    -7.7103 *  0.0000     1          
   318  O     s      4.4059 *     1.1015 *     9.9133 *  0.0000     2          
   319  O     s      4.4059 *     9.9133 *     1.1015 *  0.0000     2          
   320  O     s      8.8118 *     5.5074 *    -3.3044 *  0.0000     2          
   321  O     s      8.8118 *    -3.3044 *     5.5074 *  0.0000     2          
   322  Cl    s      2.2030 *     7.7103 *     7.7103 *  0.0000     2          
   323  Cl    s     11.0148 *    -1.1015 *    -1.1015 *  0.0000     2          
   324  O     s      4.4059 *     9.9133 *    -3.3044 *  0.0000     2          
   325  O     s      0.0000       5.5074 *     9.9133 *  0.0000     1          
   326  O     s      0.0000       9.9133 *     5.5074 *  0.0000     1          
   327  O     s      4.4059 *    -3.3044 *     9.9133 *  0.0000     2          
   328  Cl    s      2.2030 *    -5.5074 *    -9.9133 *  0.0000     2          
   329  Cl    s      2.2030 *    -9.9133 *    -5.5074 *  0.0000     2          
   330  Cl    s      6.6089 *     7.7103 *    -5.5074 *  0.0000     2          
   331  Cl    s      6.6089 *    -5.5074 *     7.7103 *  0.0000     2          
   332  Cl    s     11.0148 *    -1.1015 *     3.3044 *  0.0000     2          
   333  Cl    s     11.0148 *     3.3044 *    -1.1015 *  0.0000     2          
   334  O     s      4.4059 *    -7.7103 *    -7.7103 *  0.0000     2          
   335  O     s      8.8118 *     1.1015 *    -7.7103 *  0.0000     2          
   336  O     s      8.8118 *     5.5074 *     5.5074 *  0.0000     2          
   337  O     s      8.8118 *    -7.7103 *     1.1015 *  0.0000     2          
   338  Cl    s     11.0148 *     3.3044 *     3.3044 *  0.0000     2          
   339  Cl    s      6.6089 *    -1.1015 *    -9.9133 *  0.0000     2          
   340  Cl    s      6.6089 *    -9.9133 *    -1.1015 *  0.0000     2          
--------------------------------------------------------------------------------

  Components of defect energy : 

--------------------------------------------------------------------------------
  Region 1 - region 1                   =      9.50519699 eV
  Region 1 - region 2a (unrelaxed)      =     -0.02490166 eV
  Region 1 - 2a (relaxed - correction)  =     -0.27613906 eV
  Region 1 (Total)                      =      9.20415627 eV
  Region 2a                             =      0.13802036 eV
  Region 2b                             =     -0.40751334 eV
--------------------------------------------------------------------------------
  Total defect energy                   =      8.93466329 eV
--------------------------------------------------------------------------------

  Largest displacement in region 2 =   0.0164 Angstroms


  Number of variables =      931

  Maximum number of calculations  =        1000
  Maximum Hessian update interval =          10
  Maximum step size               =   1.0000000
  Maximum parameter tolerance     =   0.0000100
  Maximum function  tolerance     =   0.0000100
  Maximum gradient  tolerance     =   0.0010000

  Symmetry adapted optimisation

  Symmetry to be used for second derivatives

  Newton-Raphson optimiser to be used

  BFGS hessian update to be used

  Lower half triangular hessian to be used

  Start of defect optimisation :

  Cycle:      0 Defect Energy:   8.934663  Gnorm:     0.019306  CPU:    3.875
  ** Hessian calculated **
  Cycle:      1 Defect Energy:   6.983280  Gnorm:     0.012589  CPU:   10.980
  Cycle:      2 Defect Energy:   5.600270  Gnorm:     0.004489  CPU:   16.197
  Cycle:      3 Defect Energy:   5.346487  Gnorm:     0.001302  CPU:   21.544
  Cycle:      4 Defect Energy:   5.350728  Gnorm:     0.001158  CPU:   22.832
  ** Hessian calculated **
  Cycle:      5 Defect Energy:   5.291934  Gnorm:     0.000796  CPU:   26.074
  Cycle:      6 Defect Energy:   5.265612  Gnorm:     0.000544  CPU:   27.332
  Cycle:      7 Defect Energy:   5.254001  Gnorm:     0.000378  CPU:   28.469
  Cycle:      8 Defect Energy:   5.248521  Gnorm:     0.000264  CPU:   29.548
  Cycle:      9 Defect Energy:   5.245847  Gnorm:     0.000185  CPU:   30.913
  Cycle:     10 Defect Energy:   5.244521  Gnorm:     0.000129  CPU:   32.271
  Cycle:     11 Defect Energy:   5.243856  Gnorm:     0.000090  CPU:   33.426
  Cycle:     12 Defect Energy:   5.243520  Gnorm:     0.000063  CPU:   34.665
  Cycle:     13 Defect Energy:   5.243347  Gnorm:     0.000044  CPU:   35.959
  Cycle:     14 Defect Energy:   5.243258  Gnorm:     0.000031  CPU:   37.180
  ** Hessian calculated **
  Cycle:     15 Defect Energy:   5.243211  Gnorm:     0.000022  CPU:   40.374
  Cycle:     16 Defect Energy:   5.243185  Gnorm:     0.000015  CPU:   41.551
  Cycle:     17 Defect Energy:   5.243171  Gnorm:     0.000011  CPU:   42.762


  **** Optimisation achieved ****


  Final defect energy  =        5.24316311
  Final defect Gnorm   =        0.00000745

  Components of defect energy : 

--------------------------------------------------------------------------------
  Region 1 - region 1                   =      6.72623221 eV
  Region 1 - region 2a (unrelaxed)      =     -0.96578557 eV
  Region 1 - 2a (relaxed - correction)  =     -0.21964466 eV
  Region 1 (Total)                      =      5.54080198 eV
  Region 2a                             =      0.10983238 eV
  Region 2b                             =     -0.40747125 eV
--------------------------------------------------------------------------------
  Total defect energy                   =      5.24316311 eV
--------------------------------------------------------------------------------

  Largest displacement in region 2 =   0.0164 Angstroms

  Final coordinates of region 1 :

--------------------------------------------------------------------------------
   No.  Atomic        x           y           z          Radius      Charge
        Label       (Angs)      (Angs)      (Angs)       (Angs)       (e) 
--------------------------------------------------------------------------------
     1  Na    c     2.202951    0.925239    1.277712    0.000000    1.000000
     2  O     c     2.202951    2.513713    2.469516    0.000000    0.183000
     3  Cl    c     4.472843   -0.020464   -0.014273    0.000000    1.485000
     4  Cl    c    -0.066940   -0.020464   -0.014273    0.000000    1.485000
     5  Na    c     4.384201    2.496077    2.382387    0.000000    1.000000
     6  Na    c     0.021701    2.496077    2.382387    0.000000    1.000000
     7  O     c     2.202951    2.217263   -2.314966    0.000000    0.183000
     8  O     c     2.202951   -2.234607    2.186344    0.000000    0.183000
     9  Na    c     2.202951    2.136509    4.508913    0.000000    1.000000
    10  Na    c     2.202951   -2.217559    0.032230    0.000000    1.000000
    11  Na    c     2.202951    0.068968   -2.179732    0.000000    1.000000
    12  Na    c     2.202951    4.504794    1.883258    0.000000    1.000000
    13  Cl    c     4.502370    0.040845    4.521117    0.000000    1.485000
    14  Cl    c    -0.096468    0.040845    4.521117    0.000000    1.485000
    15  Na    c     4.317418    2.212148   -1.973438    0.000000    1.000000
    16  Na    c     0.088484    2.212148   -1.973438    0.000000    1.000000
    17  Cl    c     4.519229    4.539850    0.025748    0.000000    1.485000
    18  Cl    c    -0.113326    4.539850    0.025748    0.000000    1.485000
    19  Na    c     4.338663   -2.013693    2.196422    0.000000    1.000000
    20  Na    c     0.067239   -2.013693    2.196422    0.000000    1.000000
    21  O     c     2.202951   -2.176764   -2.191138    0.000000    0.183000
    22  Na    c     2.202951   -1.814374    4.316032    0.000000    1.000000
    23  Na    c     2.202951    4.331202   -1.860341    0.000000    1.000000
    24  O     c     6.599213    2.256663    2.242145    0.000000    0.183000
    25  O     c    -2.193310    2.256663    2.242145    0.000000    0.183000
    26  Na    c     6.571748    2.223603    0.039745    0.000000    1.000000
    27  Na    c    -2.165845    2.223603    0.039745    0.000000    1.000000
    28  Na    c     6.528185    0.052603    2.230897    0.000000    1.000000
    29  Na    c    -2.122282    0.052603    2.230897    0.000000    1.000000
    30  Cl    c     4.538909    4.507616    4.518571    0.000000    1.485000
    31  Cl    c    -0.133006    4.507616    4.518571    0.000000    1.485000
    32  Na    c     4.398058   -2.176575   -2.190748    0.000000    1.000000
    33  Na    c     0.007844   -2.176575   -2.190748    0.000000    1.000000
    34  O     c     2.202951    2.213543    6.689285    0.000000    0.183000
    35  O     c     2.202951    6.676497    2.187311    0.000000    0.183000
    36  O     c     6.570837    2.216218   -2.166911    0.000000    0.183000
    37  O     c    -2.164935    2.216218   -2.166911    0.000000    0.183000
    38  Na    c     2.202951    2.329736   -4.420593    0.000000    1.000000
    39  Na    c     2.202951    6.864740   -0.004798    0.000000    1.000000
    40  Na    c     6.627494    2.223335    4.442857    0.000000    1.000000
    41  Na    c    -2.221592    2.223335    4.442857    0.000000    1.000000
    42  Na    c     2.202951    0.017856    6.766010    0.000000    1.000000
    43  Na    c     2.202951   -4.377953    2.332528    0.000000    1.000000
    44  Na    c     6.570995    0.017117   -2.197102    0.000000    1.000000
    45  Na    c    -2.165093    0.017117   -2.197102    0.000000    1.000000
    46  O     c     6.577563   -2.161404    2.213319    0.000000    0.183000
    47  O     c    -2.171661   -2.161404    2.213319    0.000000    0.183000
    48  Na    c     6.579775   -2.176188    0.011672    0.000000    1.000000
    49  Na    c    -2.173872   -2.176188    0.011672    0.000000    1.000000
    50  Na    c     6.688634    4.453274    2.207364    0.000000    1.000000
    51  Na    c    -2.282732    4.453274    2.207364    0.000000    1.000000
    52  Cl    c     4.447930   -0.057476   -4.462665    0.000000    1.485000
    53  Cl    c    -0.042028   -0.057476   -4.462665    0.000000    1.485000
    54  Cl    c     4.434764   -4.442301   -0.044689    0.000000    1.485000
    55  Cl    c    -0.028862   -4.442301   -0.044689    0.000000    1.485000
    56  Na    c     4.418970    2.210684    6.641935    0.000000    1.000000
    57  Na    c    -0.013067    2.210684    6.641935    0.000000    1.000000
    58  Na    c     4.419222    6.628877    2.209612    0.000000    1.000000
    59  Na    c    -0.013320    6.628877    2.209612    0.000000    1.000000
    60  O     c     2.202951    6.593621   -2.177650    0.000000    0.183000
    61  O     c     2.202951   -2.163220    6.575854    0.000000    0.183000
    62  Na    c     2.202951    6.452571    4.383399    0.000000    1.000000
    63  Na    c     2.202951   -2.158188   -4.393839    0.000000    1.000000
    64  Na    c     2.202951    4.406317    6.633686    0.000000    1.000000
    65  Na    c     2.202951   -4.385514   -2.213724    0.000000    1.000000
    66  O     c     6.605802   -2.194047   -2.198561    0.000000    0.183000
    67  O     c    -2.199899   -2.194047   -2.198561    0.000000    0.183000
    68  Na    c     6.587372   -2.177758    4.407950    0.000000    1.000000
    69  Na    c    -2.181469   -2.177758    4.407950    0.000000    1.000000
    70  Na    c     6.582645    4.411850   -2.182294    0.000000    1.000000
    71  Na    c    -2.176742    4.411850   -2.182294    0.000000    1.000000
    72  Cl    c     8.822783    0.020093    0.016106    0.000000    1.485000
    73  Cl    c    -4.416880    0.020093    0.016106    0.000000    1.485000
    74  Na    c     8.803609    2.186513    2.216605    0.000000    1.000000
    75  Na    c    -4.397707    2.186513    2.216605    0.000000    1.000000
    76  Cl    c     4.465441    4.464116   -4.473316    0.000000    1.485000
    77  Cl    c    -0.059539    4.464116   -4.473316    0.000000    1.485000
    78  Cl    c     4.455694   -4.453014    4.439923    0.000000    1.485000
    79  Cl    c    -0.049791   -4.453014    4.439923    0.000000    1.485000
    80  Na    c     4.402315    6.567246   -2.200165    0.000000    1.000000
    81  Na    c     0.003587    6.567246   -2.200165    0.000000    1.000000
    82  Na    c     4.400872   -2.189467    6.556657    0.000000    1.000000
    83  Na    c     0.005030   -2.189467    6.556657    0.000000    1.000000
    84  O     c     6.628030    2.216333    6.644088    0.000000    0.183000
    85  O     c    -2.222128    2.216333    6.644088    0.000000    0.183000
    86  O     c     6.632280    6.648358    2.215163    0.000000    0.183000
    87  O     c    -2.226377    6.648358    2.215163    0.000000    0.183000
    88  Na    c     6.475179    2.220725   -4.372474    0.000000    1.000000
    89  Na    c    -2.069277    2.220725   -4.372474    0.000000    1.000000
    90  Na    c     6.590493    6.622439    0.001593    0.000000    1.000000
    91  Na    c    -2.184591    6.622439    0.001593    0.000000    1.000000
    92  Na    c     6.592767    0.005484    6.609143    0.000000    1.000000
    93  Na    c    -2.186865    0.005484    6.609143    0.000000    1.000000
    94  Na    c     6.517986   -4.369535    2.212890    0.000000    1.000000
    95  Na    c    -2.112084   -4.369535    2.212890    0.000000    1.000000
    96  Cl    c     8.833595    0.017767    4.417590    0.000000    1.485000
    97  Cl    c    -4.427693    0.017767    4.417590    0.000000    1.485000
    98  Cl    c     8.836439    4.421297    0.015562    0.000000    1.485000
    99  Cl    c    -4.430536    4.421297    0.015562    0.000000    1.485000
   100  Na    c     8.780247    2.206106   -2.208557    0.000000    1.000000
   101  Na    c    -4.374345    2.206106   -2.208557    0.000000    1.000000
   102  Na    c     8.783800   -2.170933    2.204125    0.000000    1.000000
   103  Na    c    -4.377898   -2.170933    2.204125    0.000000    1.000000
   104  O     c     2.202951    2.211946   -6.634586    0.000000    0.183000
   105  O     c     2.202951    6.603821    6.600935    0.000000    0.183000
   106  O     c     2.202951   -6.606730    2.209655    0.000000    0.183000
   107  Na    c     2.202951    2.259195    8.855914    0.000000    1.000000
   108  Na    c     2.202951    6.404078   -4.379717    0.000000    1.000000
   109  Na    c     2.202951   -6.524502    0.007053    0.000000    1.000000
   110  Na    c     2.202951    0.009411   -6.557957    0.000000    1.000000
   111  Na    c     2.202951    8.842448    2.338632    0.000000    1.000000
   112  Na    c     2.202951   -4.366548    6.407064    0.000000    1.000000
   113  O     c     6.615694    6.621590   -2.208492    0.000000    0.183000
   114  O     c    -2.209792    6.621590   -2.208492    0.000000    0.183000
   115  O     c     6.614257   -2.204634    6.616690    0.000000    0.183000
   116  O     c    -2.208355   -2.204634    6.616690    0.000000    0.183000
   117  Na    c     6.609585    6.606511    4.419852    0.000000    1.000000
   118  Na    c    -2.203682    6.606511    4.419852    0.000000    1.000000
   119  Na    c     6.589269   -2.193052   -4.401430    0.000000    1.000000
   120  Na    c    -2.183367   -2.193052   -4.401430    0.000000    1.000000
   121  Na    c     6.603148    4.421965    6.612137    0.000000    1.000000
   122  Na    c    -2.197246    4.421965    6.612137    0.000000    1.000000
   123  Na    c     6.589417   -4.396327   -2.189238    0.000000    1.000000
   124  Na    c    -2.183514   -4.396327   -2.189238    0.000000    1.000000
   125  Cl    c     4.412414    0.000854    8.850428    0.000000    1.485000
   126  Cl    c    -0.006511    0.000854    8.850428    0.000000    1.485000
   127  Cl    c     4.407527   -4.418438   -4.415719    0.000000    1.485000
   128  Cl    c    -0.001625   -4.418438   -4.415719    0.000000    1.485000
   129  Cl    c     8.851189    4.423092    4.419272    0.000000    1.485000
   130  Cl    c    -4.445287    4.423092    4.419272    0.000000    1.485000
   131  Na    c     4.400286    2.195203   -6.624464    0.000000    1.000000
   132  Na    c     0.005616    2.195203   -6.624464    0.000000    1.000000
   133  Na    c     4.414102    6.607637    6.588562    0.000000    1.000000
   134  Na    c    -0.008200    6.607637    6.588562    0.000000    1.000000
   135  Na    c     8.798882   -2.191968   -2.198783    0.000000    1.000000
   136  Na    c    -4.392979   -2.191968   -2.198783    0.000000    1.000000
   137  Cl    c     4.420009    8.856945   -0.004394    0.000000    1.485000
   138  Cl    c    -0.014107    8.856945   -0.004394    0.000000    1.485000
   139  Na    c     4.400145   -6.595598    2.193016    0.000000    1.000000
   140  Na    c     0.005757   -6.595598    2.193016    0.000000    1.000000
   141  O     c     2.202951   -2.199027   -6.605856    0.000000    0.183000
   142  O     c     2.202951   -6.599614   -2.202167    0.000000    0.183000
   143  Na    c     2.202951   -2.294371    8.789490    0.000000    1.000000
   144  Na    c     2.202951   -6.684379    4.400466    0.000000    1.000000
   145  Na    c     2.202951    4.405237   -6.702105    0.000000    1.000000
   146  Na    c     2.202951    8.800534   -2.346262    0.000000    1.000000
   147  Cl    c     4.408867    4.420240    8.848549    0.000000    1.485000
   148  Cl    c    -0.002964    4.420240    8.848549    0.000000    1.485000
   149  Cl    c     8.825180    0.001580   -4.402910    0.000000    1.485000
   150  Cl    c    -4.419277    0.001580   -4.402910    0.000000    1.485000
   151  Na    c     4.407122   -2.186330   -6.590714    0.000000    1.000000
   152  Na    c    -0.001220   -2.186330   -6.590714    0.000000    1.000000
   153  Na    c     8.818737    2.204388    6.629409    0.000000    1.000000
   154  Na    c    -4.412834    2.204388    6.629409    0.000000    1.000000
   155  Cl    c     4.417088    8.849297    4.417384    0.000000    1.485000
   156  Cl    c    -0.011186    8.849297    4.417384    0.000000    1.485000
   157  Cl    c     8.822156   -4.403045    0.002373    0.000000    1.485000
   158  Cl    c    -4.416253   -4.403045    0.002373    0.000000    1.485000
   159  Na    c     4.405611   -6.588142   -2.188252    0.000000    1.000000
   160  Na    c     0.000291   -6.588142   -2.188252    0.000000    1.000000
   161  Na    c     8.823001    6.661686    2.200035    0.000000    1.000000
   162  Na    c    -4.417099    6.661686    2.200035    0.000000    1.000000
   163  O     c     6.599576    2.202800   -6.597399    0.000000    0.183000
   164  O     c    -2.193674    2.202800   -6.597399    0.000000    0.183000
   165  O     c     6.628289    6.630473    6.628190    0.000000    0.183000
   166  O     c    -2.222386    6.630473    6.628190    0.000000    0.183000
   167  Na    c     6.616257    2.206191    8.826581    0.000000    1.000000
   168  Na    c    -2.210354    2.206191    8.826581    0.000000    1.000000
   169  Na    c     6.603002    6.589431   -4.406893    0.000000    1.000000
   170  Na    c    -2.197100    6.589431   -4.406893    0.000000    1.000000
   171  Na    c     6.607322    0.001038   -6.570502    0.000000    1.000000
   172  Na    c    -2.201420    0.001038   -6.570502    0.000000    1.000000
   173  Na    c     6.601659   -4.402804    6.589812    0.000000    1.000000
   174  Na    c    -2.195756   -4.402804    6.589812    0.000000    1.000000
   175  O     c     6.601855   -6.595160    2.201002    0.000000    0.183000
   176  O     c    -2.195953   -6.595160    2.201002    0.000000    0.183000
   177  O     c    11.012907    2.207296    2.207060    0.000000    0.183000
   178  O     c    -6.607004    2.207296    2.207060    0.000000    0.183000
   179  Na    c     6.608697   -6.575448    0.000913    0.000000    1.000000
   180  Na    c    -2.202794   -6.575448    0.000913    0.000000    1.000000
   181  Na    c    10.978841    2.209499    0.002649    0.000000    1.000000
   182  Na    c    -6.572939    2.209499    0.002649    0.000000    1.000000
   183  Na    c     6.603865    8.829520    2.212195    0.000000    1.000000
   184  Na    c    -2.197962    8.829520    2.212195    0.000000    1.000000
   185  Na    c    11.004387    0.004644    2.201176    0.000000    1.000000
   186  Na    c    -6.598485    0.004644    2.201176    0.000000    1.000000
   187  Cl    c     8.829585    4.415181   -4.400594    0.000000    1.485000
   188  Cl    c    -4.423683    4.415181   -4.400594    0.000000    1.485000
   189  Cl    c     8.826860   -4.401457    4.414604    0.000000    1.485000
   190  Cl    c    -4.420958   -4.401457    4.414604    0.000000    1.485000
   191  Na    c     8.808895    6.611760   -2.196213    0.000000    1.000000
   192  Na    c    -4.402993    6.611760   -2.196213    0.000000    1.000000
   193  Na    c     8.808522   -2.195107    6.611882    0.000000    1.000000
   194  Na    c    -4.402620   -2.195107    6.611882    0.000000    1.000000
   195  O     c     2.202951    6.596166   -6.602535    0.000000    0.183000
   196  O     c     2.202951   -6.595183    6.592658    0.000000    0.183000
   197  O     c     6.615493   -2.207514   -6.611466    0.000000    0.183000
   198  O     c    -2.209591   -2.207514   -6.611466    0.000000    0.183000
   199  Na    c     2.202951    6.628026    8.804199    0.000000    1.000000
   200  Na    c     2.202951   -6.608419   -4.402018    0.000000    1.000000
   201  Na    c     6.592100   -2.211222    8.811021    0.000000    1.000000
   202  Na    c    -2.186197   -2.211222    8.811021    0.000000    1.000000
   203  Na    c     2.202951    8.802352    6.545461    0.000000    1.000000
   204  Na    c     2.202951   -4.399417   -6.591901    0.000000    1.000000
   205  Na    c     6.588094    4.407847   -6.595068    0.000000    1.000000
   206  Na    c    -2.182191    4.407847   -6.595068    0.000000    1.000000
   207  O     c     6.612659   -6.607944   -2.204890    0.000000    0.183000
   208  O     c    -2.206757   -6.607944   -2.204890    0.000000    0.183000
   209  O     c    11.002441    2.206457   -2.198644    0.000000    0.183000
   210  O     c    -6.596539    2.206457   -2.198644    0.000000    0.183000
   211  O     c    11.004606   -2.195803    2.205174    0.000000    0.183000
   212  O     c    -6.598703   -2.195803    2.205174    0.000000    0.183000
   213  Na    c     6.587686   -6.593725    4.405151    0.000000    1.000000
   214  Na    c    -2.181783   -6.593725    4.405151    0.000000    1.000000
   215  Na    c    11.006371    2.206047    4.408915    0.000000    1.000000
   216  Na    c    -6.600469    2.206047    4.408915    0.000000    1.000000
   217  Na    c    10.989943   -2.203797    0.004002    0.000000    1.000000
   218  Na    c    -6.584040   -2.203797    0.004002    0.000000    1.000000
   219  Na    c     6.593696    8.814186   -2.216831    0.000000    1.000000
   220  Na    c    -2.187794    8.814186   -2.216831    0.000000    1.000000
   221  Na    c    10.989597    0.005413   -2.197353    0.000000    1.000000
   222  Na    c    -6.583695    0.005413   -2.197353    0.000000    1.000000
   223  Na    c    10.989804    4.410843    2.205460    0.000000    1.000000
   224  Na    c    -6.583902    4.410843    2.205460    0.000000    1.000000
   225  Cl    c     4.410917    8.837492   -4.405452    0.000000    1.485000
   226  Cl    c    -0.005015    8.837492   -4.405452    0.000000    1.485000
   227  Cl    c     4.410765   -4.402169    8.831087    0.000000    1.485000
   228  Cl    c    -0.004863   -4.402169    8.831087    0.000000    1.485000
   229  Na    c     4.406666    6.604367   -6.582702    0.000000    1.000000
   230  Na    c    -0.000764    6.604367   -6.582702    0.000000    1.000000
   231  Na    c     4.404643   -6.580914    6.603739    0.000000    1.000000
   232  Na    c     0.001259   -6.580914    6.603739    0.000000    1.000000
   233  O     c     2.202951    2.207636   11.034583    0.000000    0.183000
   234  O     c     2.202951   11.029779    2.213664    0.000000    0.183000
   235  O     c    11.007524   -2.198286   -2.198530    0.000000    0.183000
   236  O     c    -6.601622   -2.198286   -2.198530    0.000000    0.183000
   237  Na    c     2.202951    2.169417   -8.823576    0.000000    1.000000
   238  Na    c     2.202951   10.957800   -0.004534    0.000000    1.000000
   239  Na    c    10.998155   -2.200630    4.405890    0.000000    1.000000
   240  Na    c    -6.592253   -2.200630    4.405890    0.000000    1.000000
   241  Na    c     2.202951   -0.007340   10.983819    0.000000    1.000000
   242  Na    c     2.202951   -8.809896    2.164147    0.000000    1.000000
   243  Na    c    10.997186    4.406675   -2.205495    0.000000    1.000000
   244  Na    c    -6.591284    4.406675   -2.205495    0.000000    1.000000
   245  Cl    c     4.409168   -0.000363   -8.835478    0.000000    1.485000
   246  Cl    c    -0.003266   -0.000363   -8.835478    0.000000    1.485000
   247  Cl    c     8.827208    0.002681    8.829665    0.000000    1.485000
   248  Cl    c    -4.421306    0.002681    8.829665    0.000000    1.485000
   249  Cl    c     8.829251    8.830553    0.004098    0.000000    1.485000
   250  Cl    c    -4.423348    8.830553    0.004098    0.000000    1.485000
   251  Cl    c     8.823402   -4.413783   -4.412160    0.000000    1.485000
   252  Cl    c    -4.417500   -4.413783   -4.412160    0.000000    1.485000
   253  Na    c     4.407097    2.192916   11.025455    0.000000    1.000000
   254  Na    c    -0.001194    2.192916   11.025455    0.000000    1.000000
   255  Na    c     8.798900    2.217815   -6.558253    0.000000    1.000000
   256  Na    c    -4.392998    2.217815   -6.558253    0.000000    1.000000
   257  Na    c     8.819604    6.612128    6.614982    0.000000    1.000000
   258  Na    c    -4.413702    6.612128    6.614982    0.000000    1.000000
   259  Na    c     8.800784   -6.572644    2.215720    0.000000    1.000000
   260  Na    c    -4.394881   -6.572644    2.215720    0.000000    1.000000
   261  Cl    c     4.407790   -8.831419    0.000502    0.000000    1.485000
   262  Cl    c    -0.001888   -8.831419    0.000502    0.000000    1.485000
   263  Na    c     4.405509   11.022548    2.183476    0.000000    1.000000
   264  Na    c     0.000394   11.022548    2.183476    0.000000    1.000000
   265  O     c     2.202951   11.011734   -2.217009    0.000000    0.183000
   266  O     c     2.202951   -2.213747   11.010165    0.000000    0.183000
   267  O     c     6.616635    6.617248   -6.613670    0.000000    0.183000
[...]
    260 y          6.608853      6.593704    -0.015149    Cartesian   -0.23
    260 z         -2.202951     -2.177622     0.025329    Cartesian   -1.15
    261 x          2.202951      2.202951     0.000000    Cartesian    0.00
    261 y         -2.202951     -2.163181     0.039770    Cartesian   -1.81
    261 z          6.608853      6.575926    -0.032928    Cartesian   -0.50
    262 x          6.608853      6.605802    -0.003051    Cartesian   -0.05
    262 y         -2.202951     -2.194051     0.008900    Cartesian   -0.40
    262 z         -2.202951     -2.198566     0.004385    Cartesian   -0.20
    263 x          8.811805      8.828021     0.016217    Cartesian    0.18
    263 y          0.000000      0.020995     0.020995    Cartesian    0.00
    263 z          0.000000      0.017135     0.017135    Cartesian    0.00
    264 x          4.405902      4.474109     0.068206    Cartesian    1.55
    264 y          4.405902      4.473956     0.068054    Cartesian    1.54
    264 z         -4.405902     -4.484512    -0.078610    Cartesian    1.78
    265 x          4.405902      4.462309     0.056406    Cartesian    1.28
    265 y         -4.405902     -4.462879    -0.056976    Cartesian    1.29
    265 z          4.405902      4.447165     0.041262    Cartesian    0.94
    266 x          6.608853      6.628039     0.019185    Cartesian    0.29
    266 y          2.202951      2.216335     0.013384    Cartesian    0.61
    266 z          6.608853      6.644096     0.035242    Cartesian    0.53
    267 x          6.608853      6.632299     0.023446    Cartesian    0.35
    267 y          6.608853      6.648363     0.039509    Cartesian    0.60
    267 z          2.202951      2.215167     0.012216    Cartesian    0.55
    268 x          8.811805      8.837262     0.025457    Cartesian    0.29
    268 y          0.000000      0.019243     0.019243    Cartesian    0.00
    268 z          4.405902      4.418218     0.012316    Cartesian    0.28
    269 x          8.811805      8.839870     0.028066    Cartesian    0.32
    269 y          4.405902      4.422155     0.016253    Cartesian    0.37
    269 z          0.000000      0.017746     0.017746    Cartesian    0.00
    270 x          2.202951      2.202951     0.000000    Cartesian    0.00
    270 y          2.202951      2.211963     0.009012    Cartesian    0.41
    270 z         -6.608853     -6.634614    -0.025760    Cartesian    0.39
    271 x          2.202951      2.202951     0.000000    Cartesian    0.00
    271 y          6.608853      6.603799    -0.005054    Cartesian   -0.08
    271 z          6.608853      6.600950    -0.007904    Cartesian   -0.12
    272 x          2.202951      2.202951     0.000000    Cartesian    0.00
    272 y         -6.608853     -6.606758     0.002096    Cartesian   -0.03
    272 z          2.202951      2.209675     0.006724    Cartesian    0.31
    273 x          6.608853      6.615702     0.006849    Cartesian    0.10
    273 y          6.608853      6.621594     0.012740    Cartesian    0.19
    273 z         -2.202951     -2.208498    -0.005547    Cartesian    0.25
    274 x          6.608853      6.614266     0.005412    Cartesian    0.08
    274 y         -2.202951     -2.204640    -0.001688    Cartesian    0.08
    274 z          6.608853      6.616689     0.007836    Cartesian    0.12
    275 x          4.405902      4.412155     0.006253    Cartesian    0.14
    275 y          0.000000      0.001772     0.001772    Cartesian    0.00
    275 z          8.811805      8.853095     0.041291    Cartesian    0.47
    276 x          4.405902      4.408320     0.002418    Cartesian    0.05
    276 y         -4.405902     -4.420984    -0.015082    Cartesian    0.34
    276 z         -4.405902     -4.417324    -0.011422    Cartesian    0.26
    277 x          8.811805      8.854490     0.042686    Cartesian    0.48
    277 y          4.405902      4.423886     0.017984    Cartesian    0.41
    277 z          4.405902      4.419382     0.013479    Cartesian    0.31
    278 x          4.405902      4.419538     0.013636    Cartesian    0.31
    278 y          8.811805      8.859188     0.047384    Cartesian    0.54
    278 z          0.000000     -0.004284    -0.004284    Cartesian    0.00
    279 x          2.202951      2.202951     0.000000    Cartesian    0.00
    279 y         -2.202951     -2.199023     0.003928    Cartesian   -0.18
    279 z         -6.608853     -6.605856     0.002997    Cartesian   -0.05
    280 x          2.202951      2.202951     0.000000    Cartesian    0.00
    280 y         -6.608853     -6.599612     0.009241    Cartesian   -0.14
    280 z         -2.202951     -2.202172     0.000779    Cartesian   -0.04
    281 x          4.405902      4.408599     0.002697    Cartesian    0.06
    281 y          4.405902      4.420508     0.014606    Cartesian    0.33
    281 z          8.811805      8.852051     0.040246    Cartesian    0.46
    282 x          8.811805      8.829574     0.017769    Cartesian    0.20
    282 y          0.000000      0.000246     0.000246    Cartesian    0.00
    282 z         -4.405902     -4.404082     0.001820    Cartesian   -0.04
    283 x          4.405902      4.417743     0.011841    Cartesian    0.27
    283 y          8.811805      8.854248     0.042444    Cartesian    0.48
    283 z          4.405902      4.417833     0.011931    Cartesian    0.27
    284 x          8.811805      8.826088     0.014284    Cartesian    0.16
    284 y         -4.405902     -4.404798     0.001104    Cartesian   -0.03
    284 z          0.000000      0.001247     0.001247    Cartesian    0.00
    285 x          6.608853      6.599558    -0.009296    Cartesian   -0.14
    285 y          2.202951      2.202800    -0.000151    Cartesian   -0.01
    285 z         -6.608853     -6.597418     0.011435    Cartesian   -0.17
    286 x          6.608853      6.628303     0.019450    Cartesian    0.29
    286 y          6.608853      6.630486     0.021633    Cartesian    0.33
    286 z          6.608853      6.628200     0.019347    Cartesian    0.29
    287 x          6.608853      6.601844    -0.007010    Cartesian   -0.11
    287 y         -6.608853     -6.595176     0.013677    Cartesian   -0.21
    287 z          2.202951      2.201000    -0.001951    Cartesian   -0.09
    288 x         11.014756     11.012905    -0.001851    Cartesian   -0.02
    288 y          2.202951      2.207292     0.004340    Cartesian    0.20
    288 z          2.202951      2.207062     0.004110    Cartesian    0.19
    289 x          8.811805      8.834100     0.022296    Cartesian    0.25
    289 y          4.405902      4.417186     0.011283    Cartesian    0.26
    289 z         -4.405902     -4.401357     0.004546    Cartesian   -0.10
    290 x          8.811805      8.830891     0.019086    Cartesian    0.22
    290 y         -4.405902     -4.402779     0.003123    Cartesian   -0.07
    290 z          4.405902      4.416774     0.010871    Cartesian    0.25
    291 x          2.202951      2.202951     0.000000    Cartesian    0.00
    291 y          6.608853      6.596136    -0.012717    Cartesian   -0.19
    291 z         -6.608853     -6.602568     0.006285    Cartesian   -0.10
    292 x          2.202951      2.202951     0.000000    Cartesian    0.00
    292 y         -6.608853     -6.595218     0.013636    Cartesian   -0.21
    292 z          6.608853      6.592629    -0.016225    Cartesian   -0.25
    293 x          6.608853      6.615500     0.006646    Cartesian    0.10
    293 y         -2.202951     -2.207518    -0.004567    Cartesian    0.21
    293 z         -6.608853     -6.611469    -0.002616    Cartesian    0.04
    294 x          6.608853      6.612664     0.003810    Cartesian    0.06
    294 y         -6.608853     -6.607948     0.000906    Cartesian   -0.01
    294 z         -2.202951     -2.204891    -0.001940    Cartesian    0.09
    295 x         11.014756     11.002455    -0.012301    Cartesian   -0.11
    295 y          2.202951      2.206457     0.003506    Cartesian    0.16
    295 z         -2.202951     -2.198645     0.004306    Cartesian   -0.20
    296 x         11.014756     11.004620    -0.010136    Cartesian   -0.09
    296 y         -2.202951     -2.195798     0.007153    Cartesian   -0.32
    296 z          2.202951      2.205173     0.002222    Cartesian    0.10
    297 x          4.405902      4.410786     0.004884    Cartesian    0.11
    297 y          8.811805      8.842488     0.030683    Cartesian    0.35
    297 z         -4.405902     -4.404739     0.001163    Cartesian   -0.03
    298 x          4.405902      4.411510     0.005608    Cartesian    0.13
    298 y         -4.405902     -4.402283     0.003620    Cartesian   -0.08
    298 z          8.811805      8.836016     0.024211    Cartesian    0.27
    299 x          2.202951      2.202951     0.000000    Cartesian    0.00
    299 y          2.202951      2.207651     0.004700    Cartesian    0.21
    299 z         11.014756     11.034565     0.019809    Cartesian    0.18
    300 x          2.202951      2.202951     0.000000    Cartesian    0.00
    300 y         11.014756     11.029775     0.015019    Cartesian    0.14
    300 z          2.202951      2.213698     0.010747    Cartesian    0.49
    301 x         11.014756     11.007525    -0.007230    Cartesian   -0.07
    301 y         -2.202951     -2.198285     0.004666    Cartesian   -0.21
    301 z         -2.202951     -2.198528     0.004423    Cartesian   -0.20
    302 x          4.405902      4.409082     0.003179    Cartesian    0.07
    302 y          0.000000      0.000041     0.000041    Cartesian    0.00
    302 z         -8.811805     -8.838780    -0.026976    Cartesian    0.31
    303 x          8.811805      8.829345     0.017540    Cartesian    0.20
    303 y          0.000000      0.003890     0.003890    Cartesian    0.00
    303 z          8.811805      8.831668     0.019863    Cartesian    0.23
    304 x          8.811805      8.831518     0.019713    Cartesian    0.22
    304 y          8.811805      8.832120     0.020316    Cartesian    0.23
    304 z          0.000000      0.005755     0.005755    Cartesian    0.00
    305 x          8.811805      8.825728     0.013923    Cartesian    0.16
    305 y         -4.405902     -4.415239    -0.009337    Cartesian    0.21
    305 z         -4.405902     -4.413270    -0.007368    Cartesian    0.17
    306 x          4.405902      4.407922     0.002020    Cartesian    0.05
    306 y         -8.811805     -8.835077    -0.023272    Cartesian    0.26
    306 z          0.000000      0.000721     0.000721    Cartesian    0.00
    307 x          2.202951      2.202951     0.000000    Cartesian    0.00
    307 y         11.014756     11.011738    -0.003018    Cartesian   -0.03
    307 z         -2.202951     -2.217042    -0.014091    Cartesian    0.64
    308 x          2.202951      2.202951     0.000000    Cartesian    0.00
    308 y         -2.202951     -2.213767    -0.010816    Cartesian    0.49
    308 z         11.014756     11.010177    -0.004579    Cartesian   -0.04
    309 x          6.608853      6.616644     0.007791    Cartesian    0.12
    309 y          6.608853      6.617256     0.008403    Cartesian    0.13
    309 z         -6.608853     -6.613667    -0.004814    Cartesian    0.07
    310 x          6.608853      6.613103     0.004250    Cartesian    0.06
    310 y         -6.608853     -6.610231    -0.001377    Cartesian    0.02
    310 z          6.608853      6.613970     0.005117    Cartesian    0.08
    311 x         11.014756     11.021631     0.006875    Cartesian    0.06
    311 y          2.202951      2.205380     0.002429    Cartesian    0.11
    311 z          6.608853      6.613302     0.004448    Cartesian    0.07
    312 x         11.014756     11.022549     0.007793    Cartesian    0.07
    312 y          6.608853      6.616819     0.007966    Cartesian    0.12
    312 z          2.202951      2.204611     0.001660    Cartesian    0.08
    313 x          8.811805      8.837959     0.026155    Cartesian    0.30
    313 y          8.811805      8.834598     0.022793    Cartesian    0.26
    313 z          4.405902      4.412226     0.006323    Cartesian    0.14
    314 x          4.405902      4.408510     0.002608    Cartesian    0.06
    314 y          4.405902      4.409353     0.003451    Cartesian    0.08
    314 z         -8.811805     -8.836768    -0.024964    Cartesian    0.28
    315 x          4.405902      4.406932     0.001030    Cartesian    0.02
    315 y         -8.811805     -8.831342    -0.019538    Cartesian    0.22
    315 z          4.405902      4.408348     0.002446    Cartesian    0.06
    316 x          8.811805      8.835834     0.024029    Cartesian    0.27
    316 y          4.405902      4.412409     0.006507    Cartesian    0.15
    316 z          8.811805      8.834630     0.022825    Cartesian    0.26
    317 x          2.202951      2.202951     0.000000    Cartesian    0.00
    317 y         -6.608853     -6.610548    -0.001694    Cartesian    0.03
    317 z         -6.608853     -6.609775    -0.000922    Cartesian    0.01
    318 x          6.608853      6.612179     0.003326    Cartesian    0.05
    318 y          2.202951      2.203012     0.000061    Cartesian    0.00
    318 z         11.014756     11.024685     0.009930    Cartesian    0.09
    319 x          6.608853      6.611074     0.002220    Cartesian    0.03
    319 y         11.014756     11.025815     0.011059    Cartesian    0.10
    319 z          2.202951      2.202643    -0.000308    Cartesian   -0.01
    320 x         11.014756     11.017313     0.002557    Cartesian    0.02
    320 y          6.608853      6.611988     0.003135    Cartesian    0.05
    320 z         -2.202951     -2.201735     0.001216    Cartesian   -0.06
    321 x         11.014756     11.016469     0.001713    Cartesian    0.02
    321 y         -2.202951     -2.201258     0.001693    Cartesian   -0.08
    321 z          6.608853      6.611651     0.002797    Cartesian    0.04
    322 x          4.405902      4.411296     0.005393    Cartesian    0.12
    322 y          8.811805      8.827611     0.015807    Cartesian    0.18
    322 z          8.811805      8.829466     0.017661    Cartesian    0.20
    323 x         13.217707     13.238428     0.020721    Cartesian    0.16
    323 y          0.000000     -0.000518    -0.000518    Cartesian    0.00
    323 z          0.000000     -0.000379    -0.000379    Cartesian    0.00
    324 x          6.608853      6.613660     0.004806    Cartesian    0.07
    324 y         11.014756     11.022693     0.007937    Cartesian    0.07
    324 z         -2.202951     -2.205686    -0.002735    Cartesian    0.12
    325 x          2.202951      2.202951     0.000000    Cartesian    0.00
    325 y          6.608853      6.615438     0.006584    Cartesian    0.10
    325 z         11.014756     11.018083     0.003327    Cartesian    0.03
    326 x          2.202951      2.202951     0.000000    Cartesian    0.00
    326 y         11.014756     11.020111     0.005355    Cartesian    0.05
    326 z          6.608853      6.608923     0.000070    Cartesian    0.00
    327 x          6.608853      6.612301     0.003447    Cartesian    0.05
    327 y         -2.202951     -2.205502    -0.002551    Cartesian    0.12
    327 z         11.014756     11.021181     0.006425    Cartesian    0.06
    328 x          4.405902      4.412089     0.006187    Cartesian    0.14
    328 y         -4.405902     -4.420321    -0.014418    Cartesian    0.33
    328 z         -8.811805     -8.831532    -0.019728    Cartesian    0.22
    329 x          4.405902      4.411058     0.005156    Cartesian    0.12
    329 y         -8.811805     -8.830574    -0.018769    Cartesian    0.21
    329 z         -4.405902     -4.418209    -0.012307    Cartesian    0.28
    330 x          8.811805      8.831146     0.019342    Cartesian    0.22
    330 y          8.811805      8.833440     0.021635    Cartesian    0.25
    330 z         -4.405902     -4.414940    -0.009038    Cartesian    0.21
    331 x          8.811805      8.829237     0.017432    Cartesian    0.20
    331 y         -4.405902     -4.415138    -0.009236    Cartesian    0.21
    331 z          8.811805      8.831056     0.019251    Cartesian    0.22
    332 x         13.217707     13.239528     0.021822    Cartesian    0.17
    332 y          0.000000     -0.002331    -0.002331    Cartesian    0.00
    332 z          4.405902      4.411930     0.006028    Cartesian    0.14
    333 x         13.217707     13.241961     0.024254    Cartesian    0.18
    333 y          4.405902      4.411305     0.005402    Cartesian    0.12
    333 z          0.000000     -0.002252    -0.002252    Cartesian    0.00
    334 x          6.608853      6.612113     0.003260    Cartesian    0.05
    334 y         -6.608853     -6.613308    -0.004455    Cartesian    0.07
    334 z         -6.608853     -6.613544    -0.004691    Cartesian    0.07
    335 x         11.014756     11.016767     0.002012    Cartesian    0.02
    335 y          2.202951      2.206107     0.003155    Cartesian    0.14
    335 z         -6.608853     -6.608302     0.000552    Cartesian   -0.01
    336 x         11.014756     11.023947     0.009191    Cartesian    0.08
    336 y          6.608853      6.614299     0.005445    Cartesian    0.08
    336 z          6.608853      6.614806     0.005952    Cartesian    0.09
    337 x         11.014756     11.015994     0.001239    Cartesian    0.01
    337 y         -6.608853     -6.608896    -0.000043    Cartesian    0.00
    337 z          2.202951      2.206336     0.003385    Cartesian    0.15
    338 x         13.217707     13.242605     0.024899    Cartesian    0.19
    338 y          4.405902      4.414600     0.008697    Cartesian    0.20
    338 z          4.405902      4.415624     0.009721    Cartesian    0.22
    339 x          8.811805      8.826802     0.014998    Cartesian    0.17
    339 y          0.000000     -0.003321    -0.003321    Cartesian    0.00
    339 z         -8.811805     -8.835762    -0.023957    Cartesian    0.27
    340 x          8.811805      8.825126     0.013321    Cartesian    0.15
    340 y         -8.811805     -8.833925    -0.022121    Cartesian    0.25
    340 z          0.000000     -0.002521    -0.002521    Cartesian    0.00
--------------------------------------------------------------------------------


  Time to end of optimisation  =       43.9942 seconds


  Peak dynamic memory used =     107.81 MB 


  Timing analysis for GULP :

--------------------------------------------------------------------------------
  Task / Subroutine                                          Time (Seconds)
--------------------------------------------------------------------------------
  Calculation of reciprocal space energy and derivatives          0.0008
  Calculation of reciprocal space energy using symmetry           0.0014
  Calculation of real space energy and derivatives                0.0042
  Calculation of real space energy using symmetry                 0.0135
  Calculation for region 1 energy and derivatives (2-b)          23.5696
  Calculation for region 2a energy                               18.3929
  Calculation for region 2b energy                                0.0058
  Calculation and manipulation of Hessian matrix                  0.1199
  Calculation of matrix inversion                                 1.6606
  Symmetry generation of equivalent positions                     0.0051
--------------------------------------------------------------------------------
  Total CPU time                                                 43.9943
--------------------------------------------------------------------------------


  Dump file written as Na3OCl.grs


  Job Finished at 15:18.06  2nd January    2021                               

