********************************************************************************
*                       GENERAL UTILITY LATTICE PROGRAM                        *
*                                 Julian Gale                                  *
*                       Curtin Institute for Computation                       *
*                    School of Molecular and Life Sciences                     *
*                    Curtin University, Western Australia                      *
********************************************************************************
* Version = 5.2.0 * Last modified =  10th September 2020                       *
********************************************************************************
*  optimise     - perform optimisation run                                     *
*  conp         - constant pressure calculation                                *
*  property     - calculate properties for final geometry                      *
*  defect       - perform defect calculation after bulk run                    *
*  compare      - compare initial and final structures                         *
********************************************************************************

  Job Started  at 15:17.46  2nd January    2021                               

  Number of CPUs =     1


  Total number of configurations input =      1

********************************************************************************
*  Input for Configuration =   1                                               *
********************************************************************************

  Formula = ClONa3                                                      

  Number of irreducible atoms/shells =       5


  Total number atoms/shells =       7

  Dimensionality = 3               :  Bulk   


  Symmetry :

  Crystal family                   :  Cubic       
  Crystal class  (Groth - 1921)    :  Cubic Hexakisoctahedral              

  Space group (centrosymmetric)    :  P M 3 M         

  Patterson group                  :  P m -3 m 

  Cartesian lattice vectors (Angstroms) :

        4.504000    0.000000    0.000000
        0.000000    4.504000    0.000000
        0.000000    0.000000    4.504000

  Cell parameters (Angstroms/Degrees):

  a =       4.5040    alpha =  90.0000
  b =       4.5040    beta  =  90.0000
  c =       4.5040    gamma =  90.0000

  Initial cell volume =          91.368216 Angs**3

  Temperature of configuration =   0.00     K 

  Pressure of configuration =         0.000 GPa 

  Fractional coordinates of asymmetric unit :

--------------------------------------------------------------------------------
   No.  Atomic       x           y          z         Charge      Occupancy
        Label      (Frac)      (Frac)     (Frac)        (e)         (Frac)  
--------------------------------------------------------------------------------
      1 Cl    c    0.000000    0.000000    0.000000     1.48500    1.000000    
      2 O     c    0.500000    0.500000    0.500000     0.18300    1.000000    
      3 Na    c    0.500000    0.500000    0.000000     1.00000    1.000000    
      4 Cl    s    0.000000    0.000000    0.000000    -2.48500    1.000000    
      5 O     s    0.500000    0.500000    0.500000    -2.18300    1.000000    
--------------------------------------------------------------------------------


  Constraints : 

--------------------------------------------------------------------------------
  Constraint no.      Unconstrained     Constrained    Coefficient    Offset
                         Variable         Variable
--------------------------------------------------------------------------------
           1              Strain 1        Strain 2       1.00000      0.0000
           2              Strain 1        Strain 3       1.00000      0.0000
--------------------------------------------------------------------------------


********************************************************************************
*  General input information                                                   *
********************************************************************************

  Species output for all configurations : 

--------------------------------------------------------------------------------
  Species    Type    Atomic    Atomic    Charge       Radii (Angs)     Library
                     Number     Mass       (e)     Cova   Ionic  VDW   Symbol
--------------------------------------------------------------------------------
    Na       Core       11      22.99   1.000000   0.970  0.000  2.300          
    O        Core        8      16.00   0.183000   0.730  0.000  1.360          
    O        Shell       8       0.00  -2.183000   0.730  0.000  1.360          
    Cl       Core       17      35.45   1.485000   0.990  0.000  1.650          
    Cl       Shell      17       0.00  -2.485000   0.990  0.000  1.650          
    Mg       Core       12      24.31   0.415000   1.100  0.000  0.000          
    Mg       Shell      12       0.00   1.585000   1.100  0.000  0.000          
    Ca       Core       20      40.08  -1.135000   0.990  0.000  0.000          
    Ca       Shell      20       0.00   3.135000   0.990  0.000  0.000          
    Sr       Core       38      87.62  -1.251000   1.120  0.000  0.000          
    Sr       Shell      38       0.00   3.251000   1.120  0.000  0.000          
    Ba       Core       56     137.33  -7.203000   1.340  0.000  0.000          
    Ba       Shell      56       0.00   9.203000   1.340  0.000  0.000          
--------------------------------------------------------------------------------


  Lattice summation method               =    Ewald          (3-D)
                                         =    Parry          (2-D)
                                         =    Saunders et al (1-D)
  Accuracy factor for lattice sums       =   12.000


  Analytic derivatives to be used

  Time limit = Infinity

  Maximum range for interatomic potentials =    100000.000000 Angstroms

  General interatomic potentials :

--------------------------------------------------------------------------------
Atom  Types   Potential      Parameter       Value         Units   Cutoffs(Ang)
  1     2                                                            Min /  Max 
--------------------------------------------------------------------------------
O    c O    s Spring (c-s)  Spring k 2       593.71600    eV*Ang^-2 0.000  0.800
                            Spring k 4       0.0000000    eV*Ang^-4 
--------------------------------------------------------------------------------
Cl   c Cl   s Spring (c-s)  Spring k 2       29.380000    eV*Ang^-2 0.000  0.800
                            Spring k 4       0.0000000    eV*Ang^-4 
--------------------------------------------------------------------------------
Mg   c Mg   s Spring (c-s)  Spring k 2       361.60000    eV*Ang^-2 0.000  0.800
                            Spring k 4       0.0000000    eV*Ang^-4 
--------------------------------------------------------------------------------
Ca   c Ca   s Spring (c-s)  Spring k 2       110.20000    eV*Ang^-2 0.000  0.800
                            Spring k 4       0.0000000    eV*Ang^-4 
--------------------------------------------------------------------------------
Sr   c Sr   s Spring (c-s)  Spring k 2       71.700000    eV*Ang^-2 0.000  0.800
                            Spring k 4       0.0000000    eV*Ang^-4 
--------------------------------------------------------------------------------
Ba   c Ba   s Spring (c-s)  Spring k 2       495.20000    eV*Ang^-2 0.000  0.800
                            Spring k 4       0.0000000    eV*Ang^-4 
--------------------------------------------------------------------------------
Na   c Na   c Buckingham    Buckingham A     1788.1900    eV        0.000 12.000
                            Buckingham rho  0.15900000    Ang       
                            Buckingham C     0.0000000    eV*Ang^6  
--------------------------------------------------------------------------------
Na   c O    s Buckingham    Buckingham A     588.38000    eV        0.000 12.000
                            Buckingham rho  0.33800000    Ang       
                            Buckingham C     0.0000000    eV*Ang^6  
--------------------------------------------------------------------------------
Na   c Cl   s Buckingham    Buckingham A     1170.4100    eV        0.000 12.000
                            Buckingham rho  0.31500000    Ang       
                            Buckingham C     0.0000000    eV*Ang^6  
--------------------------------------------------------------------------------
O    s O    s Buckingham    Buckingham A     22764.300    eV        0.000 12.000
                            Buckingham rho  0.14900000    Ang       
                            Buckingham C     13.190000    eV*Ang^6  
--------------------------------------------------------------------------------
O    s Cl   s Buckingham    Buckingham A     8286.9100    eV        0.000 12.000
                            Buckingham rho  0.25900000    Ang       
                            Buckingham C     62.200000    eV*Ang^6  
--------------------------------------------------------------------------------
Cl   s Cl   s Buckingham    Buckingham A     1227.2000    eV        0.000 12.000
                            Buckingham rho  0.32100000    Ang       
                            Buckingham C     14.530000    eV*Ang^6  
--------------------------------------------------------------------------------
O    s Mg   s Buckingham    Buckingham A     1428.5000    eV        0.000 12.000
                            Buckingham rho  0.29450000    Ang       
                            Buckingham C     0.0000000    eV*Ang^6  
--------------------------------------------------------------------------------
Mg   s Cl   s Buckingham    Buckingham A     4914.5400    eV        0.000 12.000
                            Buckingham rho  0.25700000    Ang       
                            Buckingham C     0.0000000    eV*Ang^6  
--------------------------------------------------------------------------------
O    s Ca   s Buckingham    Buckingham A     1090.4000    eV        0.000 12.000
                            Buckingham rho  0.34370000    Ang       
                            Buckingham C     0.0000000    eV*Ang^6  
--------------------------------------------------------------------------------
Cl   s Ca   s Buckingham    Buckingham A     2302.0000    eV        0.000 12.000
                            Buckingham rho  0.34020000    Ang       
                            Buckingham C     0.0000000    eV*Ang^6  
--------------------------------------------------------------------------------
O    s Sr   s Buckingham    Buckingham A     959.10000    eV        0.000 12.000
                            Buckingham rho  0.37210000    Ang       
                            Buckingham C     0.0000000    eV*Ang^6  
--------------------------------------------------------------------------------
Cl   s Sr   s Buckingham    Buckingham A     2191.0900    eV        0.000 12.000
                            Buckingham rho  0.34570000    Ang       
                            Buckingham C     0.0000000    eV*Ang^6  
--------------------------------------------------------------------------------
O    s Ba   s Buckingham    Buckingham A     905.70000    eV        0.000 12.000
                            Buckingham rho  0.39760000    Ang       
                            Buckingham C     0.0000000    eV*Ang^6  
--------------------------------------------------------------------------------
Cl   s Ba   s Buckingham    Buckingham A     2704.5500    eV        0.000 12.000
                            Buckingham rho  0.35280000    Ang       
                            Buckingham C     0.0000000    eV*Ang^6  
--------------------------------------------------------------------------------

********************************************************************************
*  Output for configuration   1                                                *
********************************************************************************


  Components of energy : 

--------------------------------------------------------------------------------
  Interatomic potentials     =           4.94315381 eV    
  Monopole - monopole (real) =         -10.03624526 eV    
  Monopole - monopole (recip)=         -29.53581274 eV    
  Monopole - monopole (total)=         -39.57205800 eV    
--------------------------------------------------------------------------------
  Total lattice energy       =         -34.62890419 eV    
--------------------------------------------------------------------------------
  Total lattice energy       =           -3341.1599 kJ/(mole unit cells)
--------------------------------------------------------------------------------


  Number of variables =        1

  Maximum number of calculations  =          1000
  Maximum Hessian update interval =            10
  Maximum step size               =   1.000000000
  Maximum parameter tolerance     =   0.000010000
  Maximum function  tolerance     =   0.000010000
  Maximum gradient  tolerance     =   0.001000000
  Maximum gradient  component     =   0.010000000

  Symmetry constrained optimisation

  Symmetry used for second derivatives

  Cell parameters to be optimised using strains

  Newton-Raphson optimiser to be used

  BFGS hessian update to be used

  Lower half triangular hessian to be used

  Start of bulk optimisation :

  Cycle:      0 Energy:       -34.628904  Gnorm:      4.328237  CPU:    0.017
  ** Hessian calculated **
  Cycle:      1 Energy:       -34.677667  Gnorm:      0.044008  CPU:    0.022
  Cycle:      2 Energy:       -34.677671  Gnorm:      0.003653  CPU:    0.026


  **** Optimisation achieved ****


  Final energy =     -34.67767136 eV
  Final Gnorm  =       0.00000010

  Components of energy : 

--------------------------------------------------------------------------------
  Interatomic potentials     =           5.77546103 eV    
  Monopole - monopole (real) =         -10.25970290 eV    
  Monopole - monopole (recip)=         -30.19342950 eV    
  Monopole - monopole (total)=         -40.45313239 eV    
--------------------------------------------------------------------------------
  Total lattice energy       =         -34.67767136 eV    
--------------------------------------------------------------------------------
  Total lattice energy       =           -3345.8652 kJ/(mole unit cells)
--------------------------------------------------------------------------------

  Final asymmetric unit coordinates :

--------------------------------------------------------------------------------
   No.  Atomic        x           y           z         Radius
        Label       (Frac)      (Frac)      (Frac)       (Angs) 
--------------------------------------------------------------------------------
     1  Cl    c     0.000000    0.000000    0.000000    0.000000
     2  O     c     0.500000    0.500000    0.500000    0.000000
     3  Na    c     0.500000    0.500000    0.000000    0.000000
     4  Cl    s     0.000000    0.000000    0.000000    0.000000
     5  O     s     0.500000    0.500000    0.500000    0.000000
--------------------------------------------------------------------------------

  Final Cartesian lattice vectors (Angstroms) :

        4.405902    0.000000    0.000000
        0.000000    4.405902    0.000000
        0.000000    0.000000    4.405902


  Final cell parameters and derivatives :

--------------------------------------------------------------------------------
       a            4.405902 Angstrom     dE/de1(xx)     0.000000 eV/strain
       b            4.405902 Angstrom     dE/de2(yy)     0.000000 eV/strain
       c            4.405902 Angstrom     dE/de3(zz)     0.000000 eV/strain
       alpha       90.000000 Degrees      dE/de4(yz)     0.000000 eV/strain
       beta        90.000000 Degrees      dE/de5(xz)     0.000000 eV/strain
       gamma       90.000000 Degrees      dE/de6(xy)     0.000000 eV/strain
--------------------------------------------------------------------------------

  Primitive cell volume =            85.527266 Angs**3

  Density of cell =      2.338030 g/cm**3

  Non-primitive cell volume =            85.527266 Angs**3


  Final internal derivatives :

--------------------------------------------------------------------------------
   No.  Atomic          a             b             c           Radius
        Label          (eV)          (eV)          (eV)        (eV/Angs)
--------------------------------------------------------------------------------
      1 Cl    c       0.000000      0.000000      0.000000      0.000000
      2 O     c       0.000000      0.000000      0.000000      0.000000
      3 Na    c       0.000000      0.000000      0.000000      0.000000
      4 Cl    s       0.000000      0.000000      0.000000      0.000000
      5 O     s       0.000000      0.000000      0.000000      0.000000
--------------------------------------------------------------------------------
  Maximum abs         0.000000      0.000000      0.000000      0.000000
--------------------------------------------------------------------------------

  Comparison of initial and final structures : 

--------------------------------------------------------------------------------
  Parameter   Initial value   Final value   Difference    Units      Percent
--------------------------------------------------------------------------------
    Volume        91.368216     85.527266    -5.840950    Angs**3     -6.39
    a              4.504000      4.405902    -0.098098    Angstroms   -2.18
    b              4.504000      4.405902    -0.098098    Angstroms   -2.18
    c              4.504000      4.405902    -0.098098    Angstroms   -2.18
    alpha         90.000000     90.000000     0.000000    Degrees      0.00
    beta          90.000000     90.000000     0.000000    Degrees      0.00
    gamma         90.000000     90.000000     0.000000    Degrees      0.00
      1 x          0.000000      0.000000     0.000000    Fractional   0.00
      1 y          0.000000      0.000000     0.000000    Fractional   0.00
      1 z          0.000000      0.000000     0.000000    Fractional   0.00
      2 x          0.500000      0.500000     0.000000    Fractional   0.00
      2 y          0.500000      0.500000     0.000000    Fractional   0.00
      2 z          0.500000      0.500000     0.000000    Fractional   0.00
      3 x          0.500000      0.500000     0.000000    Fractional   0.00
      3 y          0.500000      0.500000     0.000000    Fractional   0.00
      3 z          0.000000      0.000000     0.000000    Fractional   0.00
      4 x          0.000000      0.000000     0.000000    Fractional   0.00
      4 y          0.000000      0.000000     0.000000    Fractional   0.00
      4 z          0.000000      0.000000     0.000000    Fractional   0.00
      5 x          0.500000      0.500000     0.000000    Fractional   0.00
      5 y          0.500000      0.500000     0.000000    Fractional   0.00
      5 z          0.500000      0.500000     0.000000    Fractional   0.00
--------------------------------------------------------------------------------


  Born effective charge tensors : 

-------------------------------------------------------------------------------
  Atom             x           y             z
-------------------------------------------------------------------------------
    1 Cl    x      -0.9918     -0.0000     -0.0000
            y      -0.0000     -0.9918     -0.0000
            z      -0.0000     -0.0000     -0.9918
-------------------------------------------------------------------------------
    2 O     x      -2.2939      0.0000      0.0000
            y       0.0000     -2.2939      0.0000
            z       0.0000      0.0000     -2.2939
-------------------------------------------------------------------------------
    3 Na    x       1.2243      0.0000      0.0000
            y       0.0000      1.2243     -0.0000
            z       0.0000      0.0000      0.8372
-------------------------------------------------------------------------------




  Elastic Constant Matrix: (Units=GPa)

-------------------------------------------------------------------------------
  Indices      1         2         3         4         5         6    
-------------------------------------------------------------------------------
       1     82.7680   24.3534   24.3534   -0.0000    0.0000   -0.0000
       2     24.3534   82.7680   24.3534    0.0000   -0.0000   -0.0000
       3     24.3534   24.3534   82.7680    0.0000   -0.0000    0.0000
       4     -0.0000    0.0000    0.0000   24.3534   -0.0000    0.0000
       5      0.0000   -0.0000   -0.0000   -0.0000   24.3534    0.0000
       6     -0.0000   -0.0000    0.0000    0.0000    0.0000   24.3534
-------------------------------------------------------------------------------


  Elastic Compliance Matrix: (Units=1/GPa)

-------------------------------------------------------------------------------
  Indices      1         2         3         4         5         6    
-------------------------------------------------------------------------------
       1    0.013948 -0.003171 -0.003171  0.000000 -0.000000  0.000000
       2   -0.003171  0.013948 -0.003171 -0.000000  0.000000 -0.000000
       3   -0.003171 -0.003171  0.013948 -0.000000  0.000000 -0.000000
       4    0.000000 -0.000000 -0.000000  0.041062  0.000000 -0.000000
       5   -0.000000  0.000000  0.000000  0.000000  0.041062 -0.000000
       6    0.000000 -0.000000 -0.000000 -0.000000 -0.000000  0.041062
-------------------------------------------------------------------------------

  Mechanical properties :

-------------------------------------------------------------------------------
  Convention :                    Reuss         Voigt         Hill
-------------------------------------------------------------------------------
  Bulk  Modulus (GPa)     =      43.82493      43.82493      43.82493
  Shear Modulus (GPa)     =      26.08758      26.29496      26.19127
-------------------------------------------------------------------------------
  Velocity S-wave (km/s)  =       3.34035       3.35360       3.34698
  Velocity P-wave (km/s)  =       5.79842       5.80861       5.80351
-------------------------------------------------------------------------------
  Compressibility (1/GPa) =    0.02281806
-------------------------------------------------------------------------------
  Stress axis :                     x             y             z
-------------------------------------------------------------------------------
  Youngs Moduli (GPa)     =      71.69479      71.69479      71.69479
-------------------------------------------------------------------------------
  Poissons Ratio (x)      =                     0.22734       0.22734
  Poissons Ratio (y)      =       0.22734                     0.22734
  Poissons Ratio (z)      =       0.22734       0.22734
-------------------------------------------------------------------------------


  Piezoelectric Strain Matrix: (Units=C/m**2)

-------------------------------------------------------------------------------
  Indices      1         2         3         4         5         6    
-------------------------------------------------------------------------------
       x    -0.00000  -0.00000  -0.00000  -0.00000   0.00000  -0.00000
       y     0.00000  -0.00000   0.00000   0.00000  -0.00000   0.00000
       z    -0.00000  -0.00000   0.00000  -0.00000   0.00000  -0.00000
-------------------------------------------------------------------------------


  Piezoelectric Stress Matrix: (Units=10**-11 C/N)

-------------------------------------------------------------------------------
  Indices      1         2         3         4         5         6    
-------------------------------------------------------------------------------
       x     0.00000  -0.00000  -0.00000  -0.00000   0.00000  -0.00000
       y     0.00000  -0.00000   0.00000   0.00000  -0.00000   0.00000
       z    -0.00000  -0.00000   0.00000  -0.00000   0.00000  -0.00000
-------------------------------------------------------------------------------


  Static dielectric constant tensor : 

-------------------------------------------------------------------------------
              x         y         z
-------------------------------------------------------------------------------
       x    11.08357   0.00000   0.00000
       y     0.00000  11.08357   0.00000
       z     0.00000   0.00000  11.08357
--------------------------------------------------------------------------------

  High frequency dielectric constant tensor : 

-------------------------------------------------------------------------------
              x         y         z
-------------------------------------------------------------------------------
       x     1.50771   0.00000   0.00000
       y     0.00000   1.50771   0.00000
       z     0.00000   0.00000   1.50771
-------------------------------------------------------------------------------

  Static refractive indices : 

-------------------------------------------------------------------------------
    1 =    3.32920      2 =    3.32920      3 =    3.32920
-------------------------------------------------------------------------------

  High frequency refractive indices : 

-------------------------------------------------------------------------------
    1 =    1.22789      2 =    1.22789      3 =    1.22789
-------------------------------------------------------------------------------


  Time to end of optimisation =       0.0364 seconds

********************************************************************************
*  Defect calculation for configuration   1 :                                  *
********************************************************************************

  Total number of defects =      3

  Total charge on defect  =  -1.00

  Defect centre is at   0.5000   0.2500   0.2500  Frac

  Region 1 radius =  12.0000      Number of ions =    593

  Number of symmetry inequivalent region 1 ions  =    340

  Region 2 radius =  16.0000      Number of ions =    832

  Number of symmetry inequivalent region 2a ions =    454

  Region 2a mode = 4 : screened electrostatics due to region 1 
                       neglect correction to region 1 forces from 2a
                       region 2a displacements based on defects only

  Region 2a ions will only interact with defects in region 1

  Vacancies:

--------------------------------------------------------------------------------
    Specification type     Symbol/Number         x          y          z
--------------------------------------------------------------------------------
    Fractional                               0.500000   0.500000   0.000000
    Fractional                               0.500000   0.000000   0.500000
--------------------------------------------------------------------------------

  Interstitials:

--------------------------------------------------------------------------------
    Specification type     Symbol/Number         x          y          z
--------------------------------------------------------------------------------
    Atom/Fractional         Na               0.500000   0.230000   0.270000
--------------------------------------------------------------------------------


  Symmetry reduced region 1 (Relative to defect centre) :

--------------------------------------------------------------------------------
   No.   Atomic       x            y             z       Radius  Multiplicity   
         Label      (Angs)       (Angs)        (Angs)    (Angs)     
--------------------------------------------------------------------------------
     1  Na    c      0.0000      -0.0881       0.0881    0.0000     1    Defect
     2  O     c      0.0000       1.1015 *     1.1015 *  0.0000     1          
     3  Cl    c      2.2030 *    -1.1015 *    -1.1015 *  0.0000     2          
     4  Na    c      2.2030 *     1.1015 *     1.1015 *  0.0000     2          
     5  O     c      0.0000       1.1015 *    -3.3044 *  0.0000     1          
     6  O     c      0.0000      -3.3044 *     1.1015 *  0.0000     1          
     7  Na    c      0.0000       1.1015 *     3.3044 *  0.0000     1          
     8  Na    c      0.0000      -3.3044 *    -1.1015 *  0.0000     1          
     9  Na    c      0.0000      -1.1015 *    -3.3044 *  0.0000     1          
    10  Na    c      0.0000       3.3044 *     1.1015 *  0.0000     1          
    11  Cl    c      2.2030 *    -1.1015 *     3.3044 *  0.0000     2          
    12  Na    c      2.2030 *     1.1015 *    -3.3044 *  0.0000     2          
    13  Cl    c      2.2030 *     3.3044 *    -1.1015 *  0.0000     2          
    14  Na    c      2.2030 *    -3.3044 *     1.1015 *  0.0000     2          
    15  O     c      0.0000      -3.3044 *    -3.3044 *  0.0000     1          
    16  Na    c      0.0000      -3.3044 *     3.3044 *  0.0000     1          
    17  Na    c      0.0000       3.3044 *    -3.3044 *  0.0000     1          
    18  O     c      4.4059 *     1.1015 *     1.1015 *  0.0000     2          
    19  Na    c      4.4059 *     1.1015 *    -1.1015 *  0.0000     2          
    20  Na    c      4.4059 *    -1.1015 *     1.1015 *  0.0000     2          
    21  Cl    c      2.2030 *     3.3044 *     3.3044 *  0.0000     2          
    22  Na    c      2.2030 *    -3.3044 *    -3.3044 *  0.0000     2          
    23  O     c      0.0000       1.1015 *     5.5074 *  0.0000     1          
    24  O     c      0.0000       5.5074 *     1.1015 *  0.0000     1          
    25  O     c      4.4059 *     1.1015 *    -3.3044 *  0.0000     2          
    26  Na    c      0.0000       1.1015 *    -5.5074 *  0.0000     1          
    27  Na    c      0.0000       5.5074 *    -1.1015 *  0.0000     1          
    28  Na    c      4.4059 *     1.1015 *     3.3044 *  0.0000     2          
    29  Na    c      0.0000      -1.1015 *     5.5074 *  0.0000     1          
    30  Na    c      0.0000      -5.5074 *     1.1015 *  0.0000     1          
    31  Na    c      4.4059 *    -1.1015 *    -3.3044 *  0.0000     2          
    32  O     c      4.4059 *    -3.3044 *     1.1015 *  0.0000     2          
    33  Na    c      4.4059 *    -3.3044 *    -1.1015 *  0.0000     2          
    34  Na    c      4.4059 *     3.3044 *     1.1015 *  0.0000     2          
    35  Cl    c      2.2030 *    -1.1015 *    -5.5074 *  0.0000     2          
    36  Cl    c      2.2030 *    -5.5074 *    -1.1015 *  0.0000     2          
    37  Na    c      2.2030 *     1.1015 *     5.5074 *  0.0000     2          
    38  Na    c      2.2030 *     5.5074 *     1.1015 *  0.0000     2          
    39  O     c      0.0000       5.5074 *    -3.3044 *  0.0000     1          
    40  O     c      0.0000      -3.3044 *     5.5074 *  0.0000     1          
    41  Na    c      0.0000       5.5074 *     3.3044 *  0.0000     1          
    42  Na    c      0.0000      -3.3044 *    -5.5074 *  0.0000     1          
    43  Na    c      0.0000       3.3044 *     5.5074 *  0.0000     1          
    44  Na    c      0.0000      -5.5074 *    -3.3044 *  0.0000     1          
    45  O     c      4.4059 *    -3.3044 *    -3.3044 *  0.0000     2          
    46  Na    c      4.4059 *    -3.3044 *     3.3044 *  0.0000     2          
    47  Na    c      4.4059 *     3.3044 *    -3.3044 *  0.0000     2          
    48  Cl    c      6.6089 *    -1.1015 *    -1.1015 *  0.0000     2          
    49  Na    c      6.6089 *     1.1015 *     1.1015 *  0.0000     2          
    50  Cl    c      2.2030 *     3.3044 *    -5.5074 *  0.0000     2          
    51  Cl    c      2.2030 *    -5.5074 *     3.3044 *  0.0000     2          
    52  Na    c      2.2030 *     5.5074 *    -3.3044 *  0.0000     2          
    53  Na    c      2.2030 *    -3.3044 *     5.5074 *  0.0000     2          
    54  O     c      4.4059 *     1.1015 *     5.5074 *  0.0000     2          
    55  O     c      4.4059 *     5.5074 *     1.1015 *  0.0000     2          
    56  Na    c      4.4059 *     1.1015 *    -5.5074 *  0.0000     2          
    57  Na    c      4.4059 *     5.5074 *    -1.1015 *  0.0000     2          
    58  Na    c      4.4059 *    -1.1015 *     5.5074 *  0.0000     2          
    59  Na    c      4.4059 *    -5.5074 *     1.1015 *  0.0000     2          
    60  Cl    c      6.6089 *    -1.1015 *     3.3044 *  0.0000     2          
    61  Cl    c      6.6089 *     3.3044 *    -1.1015 *  0.0000     2          
    62  Na    c      6.6089 *     1.1015 *    -3.3044 *  0.0000     2          
    63  Na    c      6.6089 *    -3.3044 *     1.1015 *  0.0000     2          
    64  O     c      0.0000       1.1015 *    -7.7103 *  0.0000     1          
    65  O     c      0.0000       5.5074 *     5.5074 *  0.0000     1          
    66  O     c      0.0000      -7.7103 *     1.1015 *  0.0000     1          
    67  Na    c      0.0000       1.1015 *     7.7103 *  0.0000     1          
    68  Na    c      0.0000       5.5074 *    -5.5074 *  0.0000     1          
    69  Na    c      0.0000      -7.7103 *    -1.1015 *  0.0000     1          
    70  Na    c      0.0000      -1.1015 *    -7.7103 *  0.0000     1          
    71  Na    c      0.0000       7.7103 *     1.1015 *  0.0000     1          
    72  Na    c      0.0000      -5.5074 *     5.5074 *  0.0000     1          
    73  O     c      4.4059 *     5.5074 *    -3.3044 *  0.0000     2          
    74  O     c      4.4059 *    -3.3044 *     5.5074 *  0.0000     2          
    75  Na    c      4.4059 *     5.5074 *     3.3044 *  0.0000     2          
    76  Na    c      4.4059 *    -3.3044 *    -5.5074 *  0.0000     2          
    77  Na    c      4.4059 *     3.3044 *     5.5074 *  0.0000     2          
    78  Na    c      4.4059 *    -5.5074 *    -3.3044 *  0.0000     2          
    79  Cl    c      2.2030 *    -1.1015 *     7.7103 *  0.0000     2          
    80  Cl    c      2.2030 *    -5.5074 *    -5.5074 *  0.0000     2          
    81  Cl    c      6.6089 *     3.3044 *     3.3044 *  0.0000     2          
    82  Na    c      2.2030 *     1.1015 *    -7.7103 *  0.0000     2          
    83  Na    c      2.2030 *     5.5074 *     5.5074 *  0.0000     2          
    84  Na    c      6.6089 *    -3.3044 *    -3.3044 *  0.0000     2          
    85  Cl    c      2.2030 *     7.7103 *    -1.1015 *  0.0000     2          
    86  Na    c      2.2030 *    -7.7103 *     1.1015 *  0.0000     2          
    87  O     c      0.0000      -3.3044 *    -7.7103 *  0.0000     1          
    88  O     c      0.0000      -7.7103 *    -3.3044 *  0.0000     1          
    89  Na    c      0.0000      -3.3044 *     7.7103 *  0.0000     1          
    90  Na    c      0.0000      -7.7103 *     3.3044 *  0.0000     1          
    91  Na    c      0.0000       3.3044 *    -7.7103 *  0.0000     1          
    92  Na    c      0.0000       7.7103 *    -3.3044 *  0.0000     1          
    93  Cl    c      2.2030 *     3.3044 *     7.7103 *  0.0000     2          
    94  Cl    c      6.6089 *    -1.1015 *    -5.5074 *  0.0000     2          
    95  Na    c      2.2030 *    -3.3044 *    -7.7103 *  0.0000     2          
    96  Na    c      6.6089 *     1.1015 *     5.5074 *  0.0000     2          
    97  Cl    c      2.2030 *     7.7103 *     3.3044 *  0.0000     2          
    98  Cl    c      6.6089 *    -5.5074 *    -1.1015 *  0.0000     2          
    99  Na    c      2.2030 *    -7.7103 *    -3.3044 *  0.0000     2          
   100  Na    c      6.6089 *     5.5074 *     1.1015 *  0.0000     2          
   101  O     c      4.4059 *     1.1015 *    -7.7103 *  0.0000     2          
   102  O     c      4.4059 *     5.5074 *     5.5074 *  0.0000     2          
   103  Na    c      4.4059 *     1.1015 *     7.7103 *  0.0000     2          
   104  Na    c      4.4059 *     5.5074 *    -5.5074 *  0.0000     2          
   105  Na    c      4.4059 *    -1.1015 *    -7.7103 *  0.0000     2          
   106  Na    c      4.4059 *    -5.5074 *     5.5074 *  0.0000     2          
   107  O     c      4.4059 *    -7.7103 *     1.1015 *  0.0000     2          
   108  O     c      8.8118 *     1.1015 *     1.1015 *  0.0000     2          
   109  Na    c      4.4059 *    -7.7103 *    -1.1015 *  0.0000     2          
   110  Na    c      8.8118 *     1.1015 *    -1.1015 *  0.0000     2          
   111  Na    c      4.4059 *     7.7103 *     1.1015 *  0.0000     2          
   112  Na    c      8.8118 *    -1.1015 *     1.1015 *  0.0000     2          
   113  Cl    c      6.6089 *     3.3044 *    -5.5074 *  0.0000     2          
   114  Cl    c      6.6089 *    -5.5074 *     3.3044 *  0.0000     2          
   115  Na    c      6.6089 *     5.5074 *    -3.3044 *  0.0000     2          
   116  Na    c      6.6089 *    -3.3044 *     5.5074 *  0.0000     2          
   117  O     c      0.0000       5.5074 *    -7.7103 *  0.0000     1          
   118  O     c      0.0000      -7.7103 *     5.5074 *  0.0000     1          
   119  O     c      4.4059 *    -3.3044 *    -7.7103 *  0.0000     2          
   120  Na    c      0.0000       5.5074 *     7.7103 *  0.0000     1          
   121  Na    c      0.0000      -7.7103 *    -5.5074 *  0.0000     1          
   122  Na    c      4.4059 *    -3.3044 *     7.7103 *  0.0000     2          
   123  Na    c      0.0000       7.7103 *     5.5074 *  0.0000     1          
   124  Na    c      0.0000      -5.5074 *    -7.7103 *  0.0000     1          
   125  Na    c      4.4059 *     3.3044 *    -7.7103 *  0.0000     2          
   126  O     c      4.4059 *    -7.7103 *    -3.3044 *  0.0000     2          
   127  O     c      8.8118 *     1.1015 *    -3.3044 *  0.0000     2          
   128  O     c      8.8118 *    -3.3044 *     1.1015 *  0.0000     2          
   129  Na    c      4.4059 *    -7.7103 *     3.3044 *  0.0000     2          
   130  Na    c      8.8118 *     1.1015 *     3.3044 *  0.0000     2          
   131  Na    c      8.8118 *    -3.3044 *    -1.1015 *  0.0000     2          
   132  Na    c      4.4059 *     7.7103 *    -3.3044 *  0.0000     2          
   133  Na    c      8.8118 *    -1.1015 *    -3.3044 *  0.0000     2          
   134  Na    c      8.8118 *     3.3044 *     1.1015 *  0.0000     2          
   135  Cl    c      2.2030 *     7.7103 *    -5.5074 *  0.0000     2          
   136  Cl    c      2.2030 *    -5.5074 *     7.7103 *  0.0000     2          
   137  Na    c      2.2030 *     5.5074 *    -7.7103 *  0.0000     2          
   138  Na    c      2.2030 *    -7.7103 *     5.5074 *  0.0000     2          
   139  O     c      0.0000       1.1015 *     9.9133 *  0.0000     1          
   140  O     c      0.0000       9.9133 *     1.1015 *  0.0000     1          
   141  O     c      8.8118 *    -3.3044 *    -3.3044 *  0.0000     2          
   142  Na    c      0.0000       1.1015 *    -9.9133 *  0.0000     1          
   143  Na    c      0.0000       9.9133 *    -1.1015 *  0.0000     1          
   144  Na    c      8.8118 *    -3.3044 *     3.3044 *  0.0000     2          
   145  Na    c      0.0000      -1.1015 *     9.9133 *  0.0000     1          
   146  Na    c      0.0000      -9.9133 *     1.1015 *  0.0000     1          
   147  Na    c      8.8118 *     3.3044 *    -3.3044 *  0.0000     2          
   148  Cl    c      2.2030 *    -1.1015 *    -9.9133 *  0.0000     2          
   149  Cl    c      6.6089 *    -1.1015 *     7.7103 *  0.0000     2          
   150  Cl    c      6.6089 *     7.7103 *    -1.1015 *  0.0000     2          
   151  Cl    c      6.6089 *    -5.5074 *    -5.5074 *  0.0000     2          
   152  Na    c      2.2030 *     1.1015 *     9.9133 *  0.0000     2          
   153  Na    c      6.6089 *     1.1015 *    -7.7103 *  0.0000     2          
   154  Na    c      6.6089 *     5.5074 *     5.5074 *  0.0000     2          
   155  Na    c      6.6089 *    -7.7103 *     1.1015 *  0.0000     2          
   156  Cl    c      2.2030 *    -9.9133 *    -1.1015 *  0.0000     2          
   157  Na    c      2.2030 *     9.9133 *     1.1015 *  0.0000     2          
   158  O     c      0.0000       9.9133 *    -3.3044 *  0.0000     1          
   159  O     c      0.0000      -3.3044 *     9.9133 *  0.0000     1          
   160  O     c      4.4059 *     5.5074 *    -7.7103 *  0.0000     2          
   161  O     c      4.4059 *    -7.7103 *     5.5074 *  0.0000     2          
   162  O     c      8.8118 *     1.1015 *     5.5074 *  0.0000     2          
   163  O     c      8.8118 *     5.5074 *     1.1015 *  0.0000     2          
   164  Na    c      0.0000       9.9133 *     3.3044 *  0.0000     1          
   165  Na    c      0.0000      -3.3044 *    -9.9133 *  0.0000     1          
   166  Na    c      4.4059 *     5.5074 *     7.7103 *  0.0000     2          
   167  Na    c      4.4059 *    -7.7103 *    -5.5074 *  0.0000     2          
   168  Na    c      8.8118 *     1.1015 *    -5.5074 *  0.0000     2          
   169  Na    c      8.8118 *     5.5074 *    -1.1015 *  0.0000     2          
   170  Na    c      0.0000       3.3044 *     9.9133 *  0.0000     1          
   171  Na    c      0.0000      -9.9133 *    -3.3044 *  0.0000     1          
   172  Na    c      4.4059 *     7.7103 *     5.5074 *  0.0000     2          
   173  Na    c      4.4059 *    -5.5074 *    -7.7103 *  0.0000     2          
   174  Na    c      8.8118 *    -1.1015 *     5.5074 *  0.0000     2          
   175  Na    c      8.8118 *    -5.5074 *     1.1015 *  0.0000     2          
   176  Cl    c      6.6089 *     7.7103 *     3.3044 *  0.0000     2          
   177  Na    c      6.6089 *    -7.7103 *    -3.3044 *  0.0000     2          
   178  Cl    c      2.2030 *     3.3044 *    -9.9133 *  0.0000     2          
   179  Cl    c      2.2030 *    -9.9133 *     3.3044 *  0.0000     2          
   180  Cl    c      6.6089 *     3.3044 *     7.7103 *  0.0000     2          
   181  Na    c      2.2030 *     9.9133 *    -3.3044 *  0.0000     2          
   182  Na    c      2.2030 *    -3.3044 *     9.9133 *  0.0000     2          
   183  Na    c      6.6089 *    -3.3044 *    -7.7103 *  0.0000     2          
   184  O     c      0.0000      -7.7103 *    -7.7103 *  0.0000     1          
   185  O     c      4.4059 *     1.1015 *     9.9133 *  0.0000     2          
   186  O     c      4.4059 *     9.9133 *     1.1015 *  0.0000     2          
   187  O     c      8.8118 *     5.5074 *    -3.3044 *  0.0000     2          
   188  O     c      8.8118 *    -3.3044 *     5.5074 *  0.0000     2          
   189  Na    c      0.0000      -7.7103 *     7.7103 *  0.0000     1          
   190  Na    c      4.4059 *     1.1015 *    -9.9133 *  0.0000     2          
   191  Na    c      4.4059 *     9.9133 *    -1.1015 *  0.0000     2          
   192  Na    c      8.8118 *     5.5074 *     3.3044 *  0.0000     2          
   193  Na    c      8.8118 *    -3.3044 *    -5.5074 *  0.0000     2          
   194  Na    c      0.0000       7.7103 *    -7.7103 *  0.0000     1          
   195  Na    c      4.4059 *    -1.1015 *     9.9133 *  0.0000     2          
   196  Na    c      4.4059 *    -9.9133 *     1.1015 *  0.0000     2          
   197  Na    c      8.8118 *     3.3044 *     5.5074 *  0.0000     2          
   198  Na    c      8.8118 *    -5.5074 *    -3.3044 *  0.0000     2          
   199  Cl    c      2.2030 *     7.7103 *     7.7103 *  0.0000     2          
   200  Cl    c     11.0148 *    -1.1015 *    -1.1015 *  0.0000     2          
   201  Na    c      2.2030 *    -7.7103 *    -7.7103 *  0.0000     2          
   202  Na    c     11.0148 *     1.1015 *     1.1015 *  0.0000     2          
   203  O     c      4.4059 *     9.9133 *    -3.3044 *  0.0000     2          
   204  Na    c      4.4059 *     9.9133 *     3.3044 *  0.0000     2          
   205  Na    c      4.4059 *    -9.9133 *    -3.3044 *  0.0000     2          
   206  O     c      0.0000       5.5074 *     9.9133 *  0.0000     1          
   207  O     c      0.0000       9.9133 *     5.5074 *  0.0000     1          
   208  O     c      4.4059 *    -3.3044 *     9.9133 *  0.0000     2          
   209  Na    c      0.0000       5.5074 *    -9.9133 *  0.0000     1          
   210  Na    c      0.0000       9.9133 *    -5.5074 *  0.0000     1          
   211  Na    c      4.4059 *    -3.3044 *    -9.9133 *  0.0000     2          
   212  Na    c      0.0000      -5.5074 *     9.9133 *  0.0000     1          
   213  Na    c      0.0000      -9.9133 *     5.5074 *  0.0000     1          
   214  Na    c      4.4059 *     3.3044 *     9.9133 *  0.0000     2          
   215  Cl    c      2.2030 *    -5.5074 *    -9.9133 *  0.0000     2          
   216  Cl    c      2.2030 *    -9.9133 *    -5.5074 *  0.0000     2          
   217  Cl    c      6.6089 *     7.7103 *    -5.5074 *  0.0000     2          
   218  Cl    c      6.6089 *    -5.5074 *     7.7103 *  0.0000     2          
   219  Cl    c     11.0148 *    -1.1015 *     3.3044 *  0.0000     2          
   220  Cl    c     11.0148 *     3.3044 *    -1.1015 *  0.0000     2          
   221  Na    c      2.2030 *     5.5074 *     9.9133 *  0.0000     2          
   222  Na    c      2.2030 *     9.9133 *     5.5074 *  0.0000     2          
   223  Na    c      6.6089 *     5.5074 *    -7.7103 *  0.0000     2          
   224  Na    c      6.6089 *    -7.7103 *     5.5074 *  0.0000     2          
   225  Na    c     11.0148 *     1.1015 *    -3.3044 *  0.0000     2          
   226  Na    c     11.0148 *    -3.3044 *     1.1015 *  0.0000     2          
   227  O     c      4.4059 *    -7.7103 *    -7.7103 *  0.0000     2          
   228  O     c      8.8118 *     1.1015 *    -7.7103 *  0.0000     2          
   229  O     c      8.8118 *     5.5074 *     5.5074 *  0.0000     2          
   230  Na    c      4.4059 *    -7.7103 *     7.7103 *  0.0000     2          
   231  Na    c      8.8118 *     1.1015 *     7.7103 *  0.0000     2          
   232  Na    c      8.8118 *     5.5074 *    -5.5074 *  0.0000     2          
   233  Na    c      4.4059 *     7.7103 *    -7.7103 *  0.0000     2          
   234  Na    c      8.8118 *    -1.1015 *    -7.7103 *  0.0000     2          
   235  Na    c      8.8118 *    -5.5074 *     5.5074 *  0.0000     2          
   236  O     c      8.8118 *    -7.7103 *     1.1015 *  0.0000     2          
   237  Na    c      8.8118 *    -7.7103 *    -1.1015 *  0.0000     2          
   238  Na    c      8.8118 *     7.7103 *     1.1015 *  0.0000     2          
   239  Cl    c     11.0148 *     3.3044 *     3.3044 *  0.0000     2          
   240  Na    c     11.0148 *    -3.3044 *    -3.3044 *  0.0000     2          
   241  Cl    c      6.6089 *    -1.1015 *    -9.9133 *  0.0000     2          
   242  Cl    c      6.6089 *    -9.9133 *    -1.1015 *  0.0000     2          
   243  Na    c      6.6089 *     1.1015 *     9.9133 *  0.0000     2          
   244  Na    c      6.6089 *     9.9133 *     1.1015 *  0.0000     2          
   245  O     s      0.0000       1.1015 *     1.1015 *  0.0000     1          
   246  Cl    s      2.2030 *    -1.1015 *    -1.1015 *  0.0000     2          
   247  O     s      0.0000       1.1015 *    -3.3044 *  0.0000     1          
   248  O     s      0.0000      -3.3044 *     1.1015 *  0.0000     1          
   249  Cl    s      2.2030 *    -1.1015 *     3.3044 *  0.0000     2          
   250  Cl    s      2.2030 *     3.3044 *    -1.1015 *  0.0000     2          
   251  O     s      0.0000      -3.3044 *    -3.3044 *  0.0000     1          
   252  O     s      4.4059 *     1.1015 *     1.1015 *  0.0000     2          
   253  Cl    s      2.2030 *     3.3044 *     3.3044 *  0.0000     2          
   254  O     s      0.0000       1.1015 *     5.5074 *  0.0000     1          
   255  O     s      0.0000       5.5074 *     1.1015 *  0.0000     1          
   256  O     s      4.4059 *     1.1015 *    -3.3044 *  0.0000     2          
   257  O     s      4.4059 *    -3.3044 *     1.1015 *  0.0000     2          
   258  Cl    s      2.2030 *    -1.1015 *    -5.5074 *  0.0000     2          
   259  Cl    s      2.2030 *    -5.5074 *    -1.1015 *  0.0000     2          
   260  O     s      0.0000       5.5074 *    -3.3044 *  0.0000     1          
   261  O     s      0.0000      -3.3044 *     5.5074 *  0.0000     1          
   262  O     s      4.4059 *    -3.3044 *    -3.3044 *  0.0000     2          
   263  Cl    s      6.6089 *    -1.1015 *    -1.1015 *  0.0000     2          
   264  Cl    s      2.2030 *     3.3044 *    -5.5074 *  0.0000     2          
   265  Cl    s      2.2030 *    -5.5074 *     3.3044 *  0.0000     2          
   266  O     s      4.4059 *     1.1015 *     5.5074 *  0.0000     2          
   267  O     s      4.4059 *     5.5074 *     1.1015 *  0.0000     2          
   268  Cl    s      6.6089 *    -1.1015 *     3.3044 *  0.0000     2          
   269  Cl    s      6.6089 *     3.3044 *    -1.1015 *  0.0000     2          
   270  O     s      0.0000       1.1015 *    -7.7103 *  0.0000     1          
   271  O     s      0.0000       5.5074 *     5.5074 *  0.0000     1          
   272  O     s      0.0000      -7.7103 *     1.1015 *  0.0000     1          
   273  O     s      4.4059 *     5.5074 *    -3.3044 *  0.0000     2          
   274  O     s      4.4059 *    -3.3044 *     5.5074 *  0.0000     2          
   275  Cl    s      2.2030 *    -1.1015 *     7.7103 *  0.0000     2          
   276  Cl    s      2.2030 *    -5.5074 *    -5.5074 *  0.0000     2          
   277  Cl    s      6.6089 *     3.3044 *     3.3044 *  0.0000     2          
   278  Cl    s      2.2030 *     7.7103 *    -1.1015 *  0.0000     2          
   279  O     s      0.0000      -3.3044 *    -7.7103 *  0.0000     1          
   280  O     s      0.0000      -7.7103 *    -3.3044 *  0.0000     1          
   281  Cl    s      2.2030 *     3.3044 *     7.7103 *  0.0000     2          
   282  Cl    s      6.6089 *    -1.1015 *    -5.5074 *  0.0000     2          
   283  Cl    s      2.2030 *     7.7103 *     3.3044 *  0.0000     2          
   284  Cl    s      6.6089 *    -5.5074 *    -1.1015 *  0.0000     2          
   285  O     s      4.4059 *     1.1015 *    -7.7103 *  0.0000     2          
   286  O     s      4.4059 *     5.5074 *     5.5074 *  0.0000     2          
   287  O     s      4.4059 *    -7.7103 *     1.1015 *  0.0000     2          
   288  O     s      8.8118 *     1.1015 *     1.1015 *  0.0000     2          
   289  Cl    s      6.6089 *     3.3044 *    -5.5074 *  0.0000     2          
   290  Cl    s      6.6089 *    -5.5074 *     3.3044 *  0.0000     2          
   291  O     s      0.0000       5.5074 *    -7.7103 *  0.0000     1          
   292  O     s      0.0000      -7.7103 *     5.5074 *  0.0000     1          
   293  O     s      4.4059 *    -3.3044 *    -7.7103 *  0.0000     2          
   294  O     s      4.4059 *    -7.7103 *    -3.3044 *  0.0000     2          
   295  O     s      8.8118 *     1.1015 *    -3.3044 *  0.0000     2          
   296  O     s      8.8118 *    -3.3044 *     1.1015 *  0.0000     2          
   297  Cl    s      2.2030 *     7.7103 *    -5.5074 *  0.0000     2          
   298  Cl    s      2.2030 *    -5.5074 *     7.7103 *  0.0000     2          
   299  O     s      0.0000       1.1015 *     9.9133 *  0.0000     1          
   300  O     s      0.0000       9.9133 *     1.1015 *  0.0000     1          
   301  O     s      8.8118 *    -3.3044 *    -3.3044 *  0.0000     2          
   302  Cl    s      2.2030 *    -1.1015 *    -9.9133 *  0.0000     2          
   303  Cl    s      6.6089 *    -1.1015 *     7.7103 *  0.0000     2          
   304  Cl    s      6.6089 *     7.7103 *    -1.1015 *  0.0000     2          
   305  Cl    s      6.6089 *    -5.5074 *    -5.5074 *  0.0000     2          
   306  Cl    s      2.2030 *    -9.9133 *    -1.1015 *  0.0000     2          
   307  O     s      0.0000       9.9133 *    -3.3044 *  0.0000     1          
   308  O     s      0.0000      -3.3044 *     9.9133 *  0.0000     1          
   309  O     s      4.4059 *     5.5074 *    -7.7103 *  0.0000     2          
   310  O     s      4.4059 *    -7.7103 *     5.5074 *  0.0000     2          
   311  O     s      8.8118 *     1.1015 *     5.5074 *  0.0000     2          
   312  O     s      8.8118 *     5.5074 *     1.1015 *  0.0000     2          
   313  Cl    s      6.6089 *     7.7103 *     3.3044 *  0.0000     2          
   314  Cl    s      2.2030 *     3.3044 *    -9.9133 *  0.0000     2          
   315  Cl    s      2.2030 *    -9.9133 *     3.3044 *  0.0000     2          
   316  Cl    s      6.6089 *     3.3044 *     7.7103 *  0.0000     2          
   317  O     s      0.0000      -7.7103 *    -7.7103 *  0.0000     1          
   318  O     s      4.4059 *     1.1015 *     9.9133 *  0.0000     2          
   319  O     s      4.4059 *     9.9133 *     1.1015 *  0.0000     2          
   320  O     s      8.8118 *     5.5074 *    -3.3044 *  0.0000     2          
   321  O     s      8.8118 *    -3.3044 *     5.5074 *  0.0000     2          
   322  Cl    s      2.2030 *     7.7103 *     7.7103 *  0.0000     2          
   323  Cl    s     11.0148 *    -1.1015 *    -1.1015 *  0.0000     2          
   324  O     s      4.4059 *     9.9133 *    -3.3044 *  0.0000     2          
   325  O     s      0.0000       5.5074 *     9.9133 *  0.0000     1          
   326  O     s      0.0000       9.9133 *     5.5074 *  0.0000     1          
   327  O     s      4.4059 *    -3.3044 *     9.9133 *  0.0000     2          
   328  Cl    s      2.2030 *    -5.5074 *    -9.9133 *  0.0000     2          
   329  Cl    s      2.2030 *    -9.9133 *    -5.5074 *  0.0000     2          
   330  Cl    s      6.6089 *     7.7103 *    -5.5074 *  0.0000     2          
   331  Cl    s      6.6089 *    -5.5074 *     7.7103 *  0.0000     2          
   332  Cl    s     11.0148 *    -1.1015 *     3.3044 *  0.0000     2          
   333  Cl    s     11.0148 *     3.3044 *    -1.1015 *  0.0000     2          
   334  O     s      4.4059 *    -7.7103 *    -7.7103 *  0.0000     2          
   335  O     s      8.8118 *     1.1015 *    -7.7103 *  0.0000     2          
   336  O     s      8.8118 *     5.5074 *     5.5074 *  0.0000     2          
   337  O     s      8.8118 *    -7.7103 *     1.1015 *  0.0000     2          
   338  Cl    s     11.0148 *     3.3044 *     3.3044 *  0.0000     2          
   339  Cl    s      6.6089 *    -1.1015 *    -9.9133 *  0.0000     2          
   340  Cl    s      6.6089 *    -9.9133 *    -1.1015 *  0.0000     2          
--------------------------------------------------------------------------------

  Components of defect energy : 

--------------------------------------------------------------------------------
  Region 1 - region 1                   =      9.62254184 eV
  Region 1 - region 2a (unrelaxed)      =     -0.02516339 eV
  Region 1 - 2a (relaxed - correction)  =     -0.27602169 eV
  Region 1 (Total)                      =      9.32135676 eV
  Region 2a                             =      0.13796175 eV
  Region 2b                             =     -0.40746322 eV
--------------------------------------------------------------------------------
  Total defect energy                   =      9.05185529 eV
--------------------------------------------------------------------------------

  Largest displacement in region 2 =   0.0162 Angstroms


  Number of variables =      931

  Maximum number of calculations  =        1000
  Maximum Hessian update interval =          10
  Maximum step size               =   1.0000000
  Maximum parameter tolerance     =   0.0000100
  Maximum function  tolerance     =   0.0000100
  Maximum gradient  tolerance     =   0.0010000

  Symmetry adapted optimisation

  Symmetry to be used for second derivatives

  Newton-Raphson optimiser to be used

  BFGS hessian update to be used

  Lower half triangular hessian to be used

  Start of defect optimisation :

  Cycle:      0 Defect Energy:   9.051855  Gnorm:     0.019548  CPU:    3.616
  ** Hessian calculated **
  Cycle:      1 Defect Energy:   7.026936  Gnorm:     0.012599  CPU:   10.471
  Cycle:      2 Defect Energy:   5.604224  Gnorm:     0.004258  CPU:   15.866
  Cycle:      3 Defect Energy:   5.482411  Gnorm:     0.003133  CPU:   17.055
  Cycle:      4 Defect Energy:   5.404154  Gnorm:     0.002276  CPU:   18.252
  Cycle:      5 Defect Energy:   5.373123  Gnorm:     0.001895  CPU:   19.458
  Cycle:      6 Defect Energy:   5.359504  Gnorm:     0.001483  CPU:   20.654
  ** Hessian calculated **
  Cycle:      7 Defect Energy:   5.309021  Gnorm:     0.001035  CPU:   23.732
  Cycle:      8 Defect Energy:   5.285688  Gnorm:     0.000725  CPU:   24.994
  Cycle:      9 Defect Energy:   5.274813  Gnorm:     0.000511  CPU:   26.223
  Cycle:     10 Defect Energy:   5.269482  Gnorm:     0.000360  CPU:   27.407
  Cycle:     11 Defect Energy:   5.266825  Gnorm:     0.000254  CPU:   28.590
  Cycle:     12 Defect Energy:   5.265502  Gnorm:     0.000179  CPU:   29.843
  Cycle:     13 Defect Energy:   5.264848  Gnorm:     0.000126  CPU:   31.054
  Cycle:     14 Defect Energy:   5.264528  Gnorm:     0.000088  CPU:   32.258
  Cycle:     15 Defect Energy:   5.264373  Gnorm:     0.000062  CPU:   33.426
  Cycle:     16 Defect Energy:   5.264299  Gnorm:     0.000043  CPU:   34.608
  ** Hessian calculated **
  Cycle:     17 Defect Energy:   5.264265  Gnorm:     0.000030  CPU:   37.750
  Cycle:     18 Defect Energy:   5.264250  Gnorm:     0.000021  CPU:   38.910


  **** Optimisation achieved ****


  Final defect energy  =        5.26424376
  Final defect Gnorm   =        0.00001490

  Components of defect energy : 

--------------------------------------------------------------------------------
  Region 1 - region 1                   =      6.75433146 eV
  Region 1 - region 2a (unrelaxed)      =     -0.97271051 eV
  Region 1 - 2a (relaxed - correction)  =     -0.21983344 eV
  Region 1 (Total)                      =      5.56178751 eV
  Region 2a                             =      0.10992633 eV
  Region 2b                             =     -0.40747007 eV
--------------------------------------------------------------------------------
  Total defect energy                   =      5.26424376 eV
--------------------------------------------------------------------------------

  Largest displacement in region 2 =   0.0162 Angstroms

  Final coordinates of region 1 :

--------------------------------------------------------------------------------
   No.  Atomic        x           y           z          Radius      Charge
        Label       (Angs)      (Angs)      (Angs)       (Angs)       (e) 
--------------------------------------------------------------------------------
     1  Na    c     2.202951    1.013358    1.189594    0.000000    1.000000
     2  O     c     2.202951    2.511450    2.485936    0.000000    0.183000
     3  Cl    c     4.470984   -0.019376   -0.016354    0.000000    1.485000
     4  Cl    c    -0.065082   -0.019376   -0.016354    0.000000    1.485000
     5  Na    c     4.385957    2.482693    2.423259    0.000000    1.000000
     6  Na    c     0.019945    2.482693    2.423259    0.000000    1.000000
     7  O     c     2.202951    2.210814   -2.300164    0.000000    0.183000
     8  O     c     2.202951   -2.260443    2.194800    0.000000    0.183000
     9  Na    c     2.202951    2.067607    4.511321    0.000000    1.000000
    10  Na    c     2.202951   -2.213015    0.041462    0.000000    1.000000
    11  Na    c     2.202951    0.060163   -2.193686    0.000000    1.000000
    12  Na    c     2.202951    4.509854    1.930862    0.000000    1.000000
    13  Cl    c     4.505091    0.040143    4.526284    0.000000    1.485000
    14  Cl    c    -0.099189    0.040143    4.526284    0.000000    1.485000
    15  Na    c     4.321986    2.208436   -1.986176    0.000000    1.000000
    16  Na    c     0.083916    2.208436   -1.986176    0.000000    1.000000
    17  Cl    c     4.514419    4.535995    0.031243    0.000000    1.485000
    18  Cl    c    -0.108517    4.535995    0.031243    0.000000    1.485000
    19  Na    c     4.332627   -2.007211    2.200052    0.000000    1.000000
    20  Na    c     0.073276   -2.007211    2.200052    0.000000    1.000000
    21  O     c     2.202951   -2.180657   -2.187936    0.000000    0.183000
    22  Na    c     2.202951   -1.821099    4.318707    0.000000    1.000000
    23  Na    c     2.202951    4.327339   -1.845586    0.000000    1.000000
    24  O     c     6.598845    2.254916    2.247322    0.000000    0.183000
    25  O     c    -2.192943    2.254916    2.247322    0.000000    0.183000
    26  Na    c     6.555460    2.226572    0.044213    0.000000    1.000000
    27  Na    c    -2.149558    2.226572    0.044213    0.000000    1.000000
    28  Na    c     6.532464    0.050941    2.230746    0.000000    1.000000
    29  Na    c    -2.126561    0.050941    2.230746    0.000000    1.000000
    30  Cl    c     4.541785    4.512911    4.519365    0.000000    1.485000
    31  Cl    c    -0.135883    4.512911    4.519365    0.000000    1.485000
    32  Na    c     4.397977   -2.179930   -2.187039    0.000000    1.000000
    33  Na    c     0.007926   -2.179930   -2.187039    0.000000    1.000000
    34  O     c     2.202951    2.206242    6.688739    0.000000    0.183000
    35  O     c     2.202951    6.682016    2.192318    0.000000    0.183000
    36  O     c     6.571708    2.215764   -2.164843    0.000000    0.183000
    37  O     c    -2.165806    2.215764   -2.164843    0.000000    0.183000
    38  Na    c     2.202951    2.334661   -4.412501    0.000000    1.000000
    39  Na    c     2.202951    6.850322   -0.000860    0.000000    1.000000
    40  Na    c     6.647748    2.219886    4.447184    0.000000    1.000000
    41  Na    c    -2.241845    2.219886    4.447184    0.000000    1.000000
    42  Na    c     2.202951    0.011036    6.795978    0.000000    1.000000
    43  Na    c     2.202951   -4.391255    2.336340    0.000000    1.000000
    44  Na    c     6.573669    0.016063   -2.192017    0.000000    1.000000
    45  Na    c    -2.167767    0.016063   -2.192017    0.000000    1.000000
    46  O     c     6.574990   -2.161896    2.214289    0.000000    0.183000
    47  O     c    -2.169087   -2.161896    2.214289    0.000000    0.183000
    48  Na    c     6.578268   -2.180954    0.013289    0.000000    1.000000
    49  Na    c    -2.172366   -2.180954    0.013289    0.000000    1.000000
    50  Na    c     6.679898    4.452488    2.211163    0.000000    1.000000
    51  Na    c    -2.273995    4.452488    2.211163    0.000000    1.000000
    52  Cl    c     4.445171   -0.054892   -4.457993    0.000000    1.485000
    53  Cl    c    -0.039269   -0.054892   -4.457993    0.000000    1.485000
    54  Cl    c     4.438763   -4.447855   -0.048621    0.000000    1.485000
    55  Cl    c    -0.032861   -4.447855   -0.048621    0.000000    1.485000
    56  Na    c     4.419776    2.210411    6.640383    0.000000    1.000000
    57  Na    c    -0.013873    2.210411    6.640383    0.000000    1.000000
    58  Na    c     4.419827    6.633677    2.210004    0.000000    1.000000
    59  Na    c    -0.013924    6.633677    2.210004    0.000000    1.000000
    60  O     c     2.202951    6.589870   -2.174702    0.000000    0.183000
    61  O     c     2.202951   -2.167239    6.580108    0.000000    0.183000
    62  Na    c     2.202951    6.488365    4.387767    0.000000    1.000000
    63  Na    c     2.202951   -2.173256   -4.392154    0.000000    1.000000
    64  Na    c     2.202951    4.400126    6.588859    0.000000    1.000000
    65  Na    c     2.202951   -4.387961   -2.201462    0.000000    1.000000
    66  O     c     6.605734   -2.194821   -2.197160    0.000000    0.183000
    67  O     c    -2.199832   -2.194821   -2.197160    0.000000    0.183000
    68  Na    c     6.586630   -2.178698    4.408988    0.000000    1.000000
    69  Na    c    -2.180728   -2.178698    4.408988    0.000000    1.000000
    70  Na    c     6.584347    4.411064   -2.180845    0.000000    1.000000
    71  Na    c    -2.178445    4.411064   -2.180845    0.000000    1.000000
    72  Cl    c     8.822250    0.019472    0.017325    0.000000    1.485000
    73  Cl    c    -4.416348    0.019472    0.017325    0.000000    1.485000
    74  Na    c     8.803414    2.190410    2.206349    0.000000    1.000000
    75  Na    c    -4.397512    2.190410    2.206349    0.000000    1.000000
    76  Cl    c     4.464102    4.458707   -4.469112    0.000000    1.485000
    77  Cl    c    -0.058200    4.458707   -4.469112    0.000000    1.485000
    78  Cl    c     4.459539   -4.459080    4.446407    0.000000    1.485000
    79  Cl    c    -0.053636   -4.459080    4.446407    0.000000    1.485000
    80  Na    c     4.401838    6.564155   -2.197985    0.000000    1.000000
    81  Na    c     0.004064    6.564155   -2.197985    0.000000    1.000000
    82  Na    c     4.401006   -2.192637    6.558536    0.000000    1.000000
    83  Na    c     0.004896   -2.192637    6.558536    0.000000    1.000000
    84  O     c     6.629845    2.216133    6.646426    0.000000    0.183000
    85  O     c    -2.223943    2.216133    6.646426    0.000000    0.183000
    86  O     c     6.631986    6.648475    2.215542    0.000000    0.183000
    87  O     c    -2.226083    6.648475    2.215542    0.000000    0.183000
    88  Na    c     6.486910    2.219153   -4.371609    0.000000    1.000000
    89  Na    c    -2.081008    2.219153   -4.371609    0.000000    1.000000
    90  Na    c     6.590668    6.620230    0.002603    0.000000    1.000000
    91  Na    c    -2.184766    6.620230    0.002603    0.000000    1.000000
    92  Na    c     6.591790    0.004641    6.613086    0.000000    1.000000
    93  Na    c    -2.185888    0.004641    6.613086    0.000000    1.000000
    94  Na    c     6.508867   -4.370087    2.214982    0.000000    1.000000
    95  Na    c    -2.102964   -4.370087    2.214982    0.000000    1.000000
    96  Cl    c     8.833754    0.017769    4.418639    0.000000    1.485000
    97  Cl    c    -4.427851    0.017769    4.418639    0.000000    1.485000
    98  Cl    c     8.835331    4.420588    0.016541    0.000000    1.485000
    99  Cl    c    -4.429429    4.420588    0.016541    0.000000    1.485000
   100  Na    c     8.780670    2.205598   -2.196160    0.000000    1.000000
   101  Na    c    -4.374767    2.205598   -2.196160    0.000000    1.000000
   102  Na    c     8.782385   -2.176556    2.204673    0.000000    1.000000
   103  Na    c    -4.376482   -2.176556    2.204673    0.000000    1.000000
   104  O     c     2.202951    2.211766   -6.628868    0.000000    0.183000
   105  O     c     2.202951    6.602828    6.601240    0.000000    0.183000
   106  O     c     2.202951   -6.614900    2.210625    0.000000    0.183000
   107  Na    c     2.202951    2.281271    8.854291    0.000000    1.000000
   108  Na    c     2.202951    6.401785   -4.376879    0.000000    1.000000
   109  Na    c     2.202951   -6.531671    0.007846    0.000000    1.000000
   110  Na    c     2.202951    0.009037   -6.548561    0.000000    1.000000
   111  Na    c     2.202951    8.846960    2.325705    0.000000    1.000000
   112  Na    c     2.202951   -4.370017    6.403026    0.000000    1.000000
   113  O     c     6.615204    6.620396   -2.207420    0.000000    0.183000
   114  O     c    -2.209302    6.620396   -2.207420    0.000000    0.183000
   115  O     c     6.614369   -2.205363    6.617756    0.000000    0.183000
   116  O     c    -2.208466   -2.205363    6.617756    0.000000    0.183000
   117  Na    c     6.607975    6.608023    4.420882    0.000000    1.000000
   118  Na    c    -2.202073    6.608023    4.420882    0.000000    1.000000
   119  Na    c     6.588856   -2.191980   -4.400061    0.000000    1.000000
   120  Na    c    -2.182954   -2.191980   -4.400061    0.000000    1.000000
   121  Na    c     6.604357    4.421971    6.611549    0.000000    1.000000
   122  Na    c    -2.198455    4.421971    6.611549    0.000000    1.000000
   123  Na    c     6.588963   -4.397463   -2.189747    0.000000    1.000000
   124  Na    c    -2.183061   -4.397463   -2.189747    0.000000    1.000000
   125  Cl    c     4.414544   -0.000746    8.852532    0.000000    1.485000
   126  Cl    c    -0.008641   -0.000746    8.852532    0.000000    1.485000
   127  Cl    c     4.407231   -4.417701   -4.416385    0.000000    1.485000
   128  Cl    c    -0.001328   -4.417701   -4.416385    0.000000    1.485000
   129  Cl    c     8.851750    4.422452    4.420431    0.000000    1.485000
   130  Cl    c    -4.445847    4.422452    4.420431    0.000000    1.485000
   131  Na    c     4.400437    2.194591   -6.617589    0.000000    1.000000
   132  Na    c     0.005465    2.194591   -6.617589    0.000000    1.000000
   133  Na    c     4.414478    6.604337    6.593841    0.000000    1.000000
   134  Na    c    -0.008575    6.604337    6.593841    0.000000    1.000000
   135  Na    c     8.798805   -2.193903   -2.197441    0.000000    1.000000
   136  Na    c    -4.392903   -2.193903   -2.197441    0.000000    1.000000
   137  Cl    c     4.418859    8.856059   -0.003594    0.000000    1.485000
   138  Cl    c    -0.012957    8.856059   -0.003594    0.000000    1.485000
   139  Na    c     4.400421   -6.602968    2.193528    0.000000    1.000000
   140  Na    c     0.005481   -6.602968    2.193528    0.000000    1.000000
   141  O     c     2.202951   -2.199778   -6.604454    0.000000    0.183000
   142  O     c     2.202951   -6.601288   -2.201385    0.000000    0.183000
   143  Na    c     2.202951   -2.310600    8.792216    0.000000    1.000000
   144  Na    c     2.202951   -6.693006    4.401928    0.000000    1.000000
   145  Na    c     2.202951    4.404328   -6.701721    0.000000    1.000000
   146  Na    c     2.202951    8.798245   -2.338705    0.000000    1.000000
   147  Cl    c     4.410435    4.419439    8.848822    0.000000    1.485000
   148  Cl    c    -0.004533    4.419439    8.848822    0.000000    1.485000
   149  Cl    c     8.824130    0.001987   -4.402601    0.000000    1.485000
   150  Cl    c    -4.418228    0.001987   -4.402601    0.000000    1.485000
   151  Na    c     4.406778   -2.186635   -6.590289    0.000000    1.000000
   152  Na    c    -0.000876   -2.186635   -6.590289    0.000000    1.000000
   153  Na    c     8.820303    2.203353    6.640436    0.000000    1.000000
   154  Na    c    -4.414400    2.203353    6.640436    0.000000    1.000000
   155  Cl    c     4.415274    8.849428    4.417939    0.000000    1.485000
   156  Cl    c    -0.009371    8.849428    4.417939    0.000000    1.485000
   157  Cl    c     8.822601   -4.402601    0.002368    0.000000    1.485000
   158  Cl    c    -4.416699   -4.402601    0.002368    0.000000    1.485000
   159  Na    c     4.406031   -6.588949   -2.187586    0.000000    1.000000
   160  Na    c    -0.000129   -6.588949   -2.187586    0.000000    1.000000
   161  Na    c     8.822530    6.657285    2.201064    0.000000    1.000000
   162  Na    c    -4.416628    6.657285    2.201064    0.000000    1.000000
   163  O     c     6.600278    2.202336   -6.596887    0.000000    0.183000
   164  O     c    -2.194376    2.202336   -6.596887    0.000000    0.183000
   165  O     c     6.628897    6.630601    6.629391    0.000000    0.183000
   166  O     c    -2.222995    6.630601    6.629391    0.000000    0.183000
   167  Na    c     6.613082    2.207887    8.828149    0.000000    1.000000
   168  Na    c    -2.207179    2.207887    8.828149    0.000000    1.000000
   169  Na    c     6.602901    6.589247   -4.405908    0.000000    1.000000
   170  Na    c    -2.196999    6.589247   -4.405908    0.000000    1.000000
   171  Na    c     6.607708    0.000970   -6.571420    0.000000    1.000000
   172  Na    c    -2.201805    0.000970   -6.571420    0.000000    1.000000
   173  Na    c     6.602170   -4.403810    6.589473    0.000000    1.000000
   174  Na    c    -2.196268   -4.403810    6.589473    0.000000    1.000000
   175  O     c     6.601496   -6.595775    2.201387    0.000000    0.183000
   176  O     c    -2.195594   -6.595775    2.201387    0.000000    0.183000
   177  O     c    11.012871    2.207187    2.207094    0.000000    0.183000
   178  O     c    -6.606969    2.207187    2.207094    0.000000    0.183000
   179  Na    c     6.608359   -6.574027    0.000895    0.000000    1.000000
   180  Na    c    -2.202457   -6.574027    0.000895    0.000000    1.000000
   181  Na    c    10.986891    2.207872    0.003253    0.000000    1.000000
   182  Na    c    -6.580989    2.207872    0.003253    0.000000    1.000000
   183  Na    c     6.606666    8.829612    2.211384    0.000000    1.000000
   184  Na    c    -2.200764    8.829612    2.211384    0.000000    1.000000
   185  Na    c    11.000283    0.004258    2.203526    0.000000    1.000000
   186  Na    c    -6.594381    0.004258    2.203526    0.000000    1.000000
   187  Cl    c     8.828694    4.414960   -4.400486    0.000000    1.485000
   188  Cl    c    -4.422791    4.414960   -4.400486    0.000000    1.485000
   189  Cl    c     8.827328   -4.400854    4.414659    0.000000    1.485000
   190  Cl    c    -4.421426   -4.400854    4.414659    0.000000    1.485000
   191  Na    c     8.808747    6.612218   -2.195662    0.000000    1.000000
   192  Na    c    -4.402845    6.612218   -2.195662    0.000000    1.000000
   193  Na    c     8.808502   -2.195072    6.612239    0.000000    1.000000
   194  Na    c    -4.402600   -2.195072    6.612239    0.000000    1.000000
   195  O     c     2.202951    6.595172   -6.601019    0.000000    0.183000
   196  O     c     2.202951   -6.597243    6.593354    0.000000    0.183000
   197  O     c     6.614832   -2.206899   -6.610593    0.000000    0.183000
   198  O     c    -2.208929   -2.206899   -6.610593    0.000000    0.183000
   199  Na    c     2.202951    6.607704    8.803591    0.000000    1.000000
   200  Na    c     2.202951   -6.604875   -4.401468    0.000000    1.000000
   201  Na    c     6.591946   -2.212719    8.811791    0.000000    1.000000
   202  Na    c    -2.186043   -2.212719    8.811791    0.000000    1.000000
   203  Na    c     2.202951    8.802541    6.562113    0.000000    1.000000
   204  Na    c     2.202951   -4.400154   -6.596435    0.000000    1.000000
   205  Na    c     6.587822    4.407251   -6.594822    0.000000    1.000000
   206  Na    c    -2.181920    4.407251   -6.594822    0.000000    1.000000
   207  O     c     6.613427   -6.608823   -2.205588    0.000000    0.183000
   208  O     c    -2.207525   -6.608823   -2.205588    0.000000    0.183000
   209  O     c    11.002817    2.206228   -2.197657    0.000000    0.183000
   210  O     c    -6.596915    2.206228   -2.197657    0.000000    0.183000
   211  O     c    11.003882   -2.196167    2.205568    0.000000    0.183000
   212  O     c    -6.597979   -2.196167    2.205568    0.000000    0.183000
   213  Na    c     6.587601   -6.593998    4.405880    0.000000    1.000000
   214  Na    c    -2.181698   -6.593998    4.405880    0.000000    1.000000
   215  Na    c    11.000613    2.206282    4.409509    0.000000    1.000000
   216  Na    c    -6.594711    2.206282    4.409509    0.000000    1.000000
   217  Na    c    10.989490   -2.202149    0.004420    0.000000    1.000000
   218  Na    c    -6.583588   -2.202149    0.004420    0.000000    1.000000
   219  Na    c     6.592801    8.813491   -2.215679    0.000000    1.000000
   220  Na    c    -2.186899    8.813491   -2.215679    0.000000    1.000000
   221  Na    c    10.989424    0.005131   -2.198744    0.000000    1.000000
   222  Na    c    -6.583522    0.005131   -2.198744    0.000000    1.000000
   223  Na    c    10.991973    4.410492    2.206022    0.000000    1.000000
   224  Na    c    -6.586071    4.410492    2.206022    0.000000    1.000000
   225  Cl    c     4.410902    8.836182   -4.404853    0.000000    1.485000
   226  Cl    c    -0.005000    8.836182   -4.404853    0.000000    1.485000
   227  Cl    c     4.410879   -4.403007    8.832868    0.000000    1.485000
   228  Cl    c    -0.004977   -4.403007    8.832868    0.000000    1.485000
   229  Na    c     4.406253    6.604305   -6.582042    0.000000    1.000000
   230  Na    c    -0.000351    6.604305   -6.582042    0.000000    1.000000
   231  Na    c     4.405234   -6.581041    6.603936    0.000000    1.000000
   232  Na    c     0.000668   -6.581041    6.603936    0.000000    1.000000
   233  O     c     2.202951    2.209169   11.034132    0.000000    0.183000
   234  O     c     2.202951   11.031475    2.212583    0.000000    0.183000
   235  O     c    11.007430   -2.198313   -2.198437    0.000000    0.183000
   236  O     c    -6.601528   -2.198313   -2.198437    0.000000    0.183000
   237  Na    c     2.202951    2.166865   -8.820677    0.000000    1.000000
   238  Na    c     2.202951   10.962138   -0.005219    0.000000    1.000000
   239  Na    c    10.997668   -2.202273    4.406103    0.000000    1.000000
   240  Na    c    -6.591766   -2.202273    4.406103    0.000000    1.000000
   241  Na    c     2.202951   -0.006898   10.976395    0.000000    1.000000
   242  Na    c     2.202951   -8.813796    2.164178    0.000000    1.000000
   243  Na    c    10.997224    4.406507   -2.204799    0.000000    1.000000
   244  Na    c    -6.591322    4.406507   -2.204799    0.000000    1.000000
   245  Cl    c     4.408903   -0.000153   -8.834647    0.000000    1.485000
   246  Cl    c    -0.003001   -0.000153   -8.834647    0.000000    1.485000
   247  Cl    c     8.827885    0.003011    8.830059    0.000000    1.485000
   248  Cl    c    -4.421983    0.003011    8.830059    0.000000    1.485000
   249  Cl    c     8.828960    8.830480    0.003749    0.000000    1.485000
   250  Cl    c    -4.423057    8.830480    0.003749    0.000000    1.485000
   251  Cl    c     8.823436   -4.413234   -4.412456    0.000000    1.485000
   252  Cl    c    -4.417534   -4.413234   -4.412456    0.000000    1.485000
   253  Na    c     4.406720    2.190222   11.025647    0.000000    1.000000
   254  Na    c    -0.000817    2.190222   11.025647    0.000000    1.000000
   255  Na    c     8.799370    2.217310   -6.562254    0.000000    1.000000
   256  Na    c    -4.393468    2.217310   -6.562254    0.000000    1.000000
   257  Na    c     8.819869    6.612707    6.614368    0.000000    1.000000
   258  Na    c    -4.413967    6.612707    6.614368    0.000000    1.000000
   259  Na    c     8.800332   -6.569700    2.216230    0.000000    1.000000
   260  Na    c    -4.394430   -6.569700    2.216230    0.000000    1.000000
   261  Cl    c     4.408220   -8.832620    0.000247    0.000000    1.485000
   262  Cl    c    -0.002318   -8.832620    0.000247    0.000000    1.485000
   263  Na    c     4.405905   11.023860    2.185074    0.000000    1.000000
   264  Na    c    -0.000002   11.023860    2.185074    0.000000    1.000000
   265  O     c     2.202951   11.011343   -2.216667    0.000000    0.183000
   266  O     c     2.202951   -2.214964   11.010529    0.000000    0.183000
[...]
    260 y          6.608853      6.589952    -0.018901    Cartesian   -0.29
    260 z         -2.202951     -2.174671     0.028280    Cartesian   -1.28
    261 x          2.202951      2.202951     0.000000    Cartesian    0.00
    261 y         -2.202951     -2.167202     0.035749    Cartesian   -1.62
    261 z          6.608853      6.580185    -0.028669    Cartesian   -0.43
    262 x          6.608853      6.605735    -0.003118    Cartesian   -0.05
    262 y         -2.202951     -2.194825     0.008126    Cartesian   -0.37
    262 z         -2.202951     -2.197165     0.005786    Cartesian   -0.26
    263 x          8.811805      8.827556     0.015752    Cartesian    0.18
    263 y          0.000000      0.020393     0.020393    Cartesian    0.00
    263 z          0.000000      0.018311     0.018311    Cartesian    0.00
    264 x          4.405902      4.472285     0.066382    Cartesian    1.51
    264 y          4.405902      4.467995     0.062092    Cartesian    1.41
    264 z         -4.405902     -4.480012    -0.074109    Cartesian    1.68
    265 x          4.405902      4.466717     0.060814    Cartesian    1.38
    265 y         -4.405902     -4.469324    -0.063421    Cartesian    1.44
    265 z          4.405902      4.454379     0.048477    Cartesian    1.10
    266 x          6.608853      6.629857     0.021004    Cartesian    0.32
    266 y          2.202951      2.216136     0.013185    Cartesian    0.60
    266 z          6.608853      6.646433     0.037579    Cartesian    0.57
    267 x          6.608853      6.632004     0.023150    Cartesian    0.35
    267 y          6.608853      6.648481     0.039627    Cartesian    0.60
    267 z          2.202951      2.215546     0.012595    Cartesian    0.57
    268 x          8.811805      8.837302     0.025497    Cartesian    0.29
    268 y          0.000000      0.019450     0.019450    Cartesian    0.00
    268 z          4.405902      4.419332     0.013429    Cartesian    0.30
    269 x          8.811805      8.838747     0.026942    Cartesian    0.31
    269 y          4.405902      4.421418     0.015516    Cartesian    0.35
    269 z          0.000000      0.018598     0.018598    Cartesian    0.00
    270 x          2.202951      2.202951     0.000000    Cartesian    0.00
    270 y          2.202951      2.211785     0.008834    Cartesian    0.40
    270 z         -6.608853     -6.628895    -0.020042    Cartesian    0.30
    271 x          2.202951      2.202951     0.000000    Cartesian    0.00
    271 y          6.608853      6.602812    -0.006041    Cartesian   -0.09
    271 z          6.608853      6.601244    -0.007609    Cartesian   -0.12
    272 x          2.202951      2.202951     0.000000    Cartesian    0.00
    272 y         -6.608853     -6.614927    -0.006073    Cartesian    0.09
    272 z          2.202951      2.210645     0.007694    Cartesian    0.35
    273 x          6.608853      6.615212     0.006359    Cartesian    0.10
    273 y          6.608853      6.620398     0.011545    Cartesian    0.17
    273 z         -2.202951     -2.207426    -0.004475    Cartesian    0.20
    274 x          6.608853      6.614377     0.005524    Cartesian    0.08
    274 y         -2.202951     -2.205369    -0.002418    Cartesian    0.11
    274 z          6.608853      6.617757     0.008903    Cartesian    0.13
    275 x          4.405902      4.414280     0.008378    Cartesian    0.19
    275 y          0.000000     -0.000045    -0.000045    Cartesian    0.00
    275 z          8.811805      8.855054     0.043250    Cartesian    0.49
    276 x          4.405902      4.407991     0.002089    Cartesian    0.05
    276 y         -4.405902     -4.419988    -0.014086    Cartesian    0.32
    276 z         -4.405902     -4.418206    -0.012303    Cartesian    0.28
    277 x          8.811805      8.855030     0.043225    Cartesian    0.49
    277 y          4.405902      4.423079     0.017177    Cartesian    0.39
    277 z          4.405902      4.420677     0.014775    Cartesian    0.34
    278 x          4.405902      4.418461     0.012559    Cartesian    0.29
    278 y          8.811805      8.858334     0.046529    Cartesian    0.53
    278 z          0.000000     -0.003350    -0.003350    Cartesian    0.00
    279 x          2.202951      2.202951     0.000000    Cartesian    0.00
    279 y         -2.202951     -2.199777     0.003174    Cartesian   -0.14
    279 z         -6.608853     -6.604453     0.004400    Cartesian   -0.07
    280 x          2.202951      2.202951     0.000000    Cartesian    0.00
    280 y         -6.608853     -6.601286     0.007567    Cartesian   -0.11
    280 z         -2.202951     -2.201388     0.001563    Cartesian   -0.07
    281 x          4.405902      4.410484     0.004582    Cartesian    0.10
    281 y          4.405902      4.419662     0.013760    Cartesian    0.31
    281 z          8.811805      8.852725     0.040920    Cartesian    0.46
    282 x          8.811805      8.828386     0.016581    Cartesian    0.19
    282 y          0.000000      0.000689     0.000689    Cartesian    0.00
    282 z         -4.405902     -4.403912     0.001990    Cartesian   -0.05
    283 x          4.405902      4.415823     0.009920    Cartesian    0.23
    283 y          8.811805      8.854144     0.042340    Cartesian    0.48
    283 z          4.405902      4.418252     0.012350    Cartesian    0.28
    284 x          8.811805      8.826626     0.014821    Cartesian    0.17
    284 y         -4.405902     -4.404205     0.001697    Cartesian   -0.04
    284 z          0.000000      0.001171     0.001171    Cartesian    0.00
    285 x          6.608853      6.600262    -0.008592    Cartesian   -0.13
    285 y          2.202951      2.202335    -0.000616    Cartesian   -0.03
    285 z         -6.608853     -6.596906     0.011947    Cartesian   -0.18
    286 x          6.608853      6.628912     0.020058    Cartesian    0.30
    286 y          6.608853      6.630614     0.021761    Cartesian    0.33
    286 z          6.608853      6.629403     0.020549    Cartesian    0.31
    287 x          6.608853      6.601483    -0.007370    Cartesian   -0.11
    287 y         -6.608853     -6.595792     0.013061    Cartesian   -0.20
    287 z          2.202951      2.201386    -0.001566    Cartesian   -0.07
    288 x         11.014756     11.012870    -0.001886    Cartesian   -0.02
    288 y          2.202951      2.207183     0.004232    Cartesian    0.19
    288 z          2.202951      2.207093     0.004142    Cartesian    0.19
    289 x          8.811805      8.833071     0.021267    Cartesian    0.24
    289 y          4.405902      4.417029     0.011127    Cartesian    0.25
    289 z         -4.405902     -4.401382     0.004520    Cartesian   -0.10
    290 x          8.811805      8.831464     0.019659    Cartesian    0.22
    290 y         -4.405902     -4.402029     0.003874    Cartesian   -0.09
    290 z          4.405902      4.416810     0.010908    Cartesian    0.25
    291 x          2.202951      2.202951     0.000000    Cartesian    0.00
    291 y          6.608853      6.595142    -0.013712    Cartesian   -0.21
    291 z         -6.608853     -6.601053     0.007800    Cartesian   -0.12
    292 x          2.202951      2.202951     0.000000    Cartesian    0.00
    292 y         -6.608853     -6.597278     0.011575    Cartesian   -0.18
    292 z          6.608853      6.593325    -0.015529    Cartesian   -0.23
    293 x          6.608853      6.614838     0.005985    Cartesian    0.09
    293 y         -2.202951     -2.206903    -0.003951    Cartesian    0.18
    293 z         -6.608853     -6.610596    -0.001743    Cartesian    0.03
    294 x          6.608853      6.613432     0.004579    Cartesian    0.07
    294 y         -6.608853     -6.608827     0.000026    Cartesian   -0.00
    294 z         -2.202951     -2.205589    -0.002638    Cartesian    0.12
    295 x         11.014756     11.002831    -0.011925    Cartesian   -0.11
    295 y          2.202951      2.206228     0.003277    Cartesian    0.15
    295 z         -2.202951     -2.197656     0.005295    Cartesian   -0.24
    296 x         11.014756     11.003896    -0.010860    Cartesian   -0.10
    296 y         -2.202951     -2.196163     0.006788    Cartesian   -0.31
    296 z          2.202951      2.205568     0.002616    Cartesian    0.12
    297 x          4.405902      4.410920     0.005018    Cartesian    0.11
    297 y          8.811805      8.841185     0.029380    Cartesian    0.33
    297 z         -4.405902     -4.404298     0.001604    Cartesian   -0.04
    298 x          4.405902      4.411383     0.005481    Cartesian    0.12
    298 y         -4.405902     -4.402884     0.003018    Cartesian   -0.07
    298 z          8.811805      8.837847     0.026042    Cartesian    0.30
    299 x          2.202951      2.202951     0.000000    Cartesian    0.00
    299 y          2.202951      2.209190     0.006238    Cartesian    0.28
    299 z         11.014756     11.034117     0.019361    Cartesian    0.18
    300 x          2.202951      2.202951     0.000000    Cartesian    0.00
    300 y         11.014756     11.031467     0.016711    Cartesian    0.15
    300 z          2.202951      2.212614     0.009663    Cartesian    0.44
    301 x         11.014756     11.007431    -0.007324    Cartesian   -0.07
    301 y         -2.202951     -2.198312     0.004639    Cartesian   -0.21
    301 z         -2.202951     -2.198436     0.004515    Cartesian   -0.20
    302 x          4.405902      4.408864     0.002961    Cartesian    0.07
    302 y          0.000000      0.000219     0.000219    Cartesian    0.00
    302 z         -8.811805     -8.838068    -0.026264    Cartesian    0.30
    303 x          8.811805      8.830063     0.018258    Cartesian    0.21
    303 y          0.000000      0.004353     0.004353    Cartesian    0.00
    303 z          8.811805      8.831928     0.020124    Cartesian    0.23
    304 x          8.811805      8.831202     0.019397    Cartesian    0.22
    304 y          8.811805      8.832114     0.020310    Cartesian    0.23
    304 z          0.000000      0.005321     0.005321    Cartesian    0.00
    305 x          8.811805      8.825782     0.013978    Cartesian    0.16
    305 y         -4.405902     -4.414590    -0.008688    Cartesian    0.20
    305 z         -4.405902     -4.413645    -0.007742    Cartesian    0.18
    306 x          4.405902      4.408292     0.002390    Cartesian    0.05
    306 y         -8.811805     -8.836221    -0.024416    Cartesian    0.28
    306 z          0.000000      0.000521     0.000521    Cartesian    0.00
    307 x          2.202951      2.202951     0.000000    Cartesian    0.00
    307 y         11.014756     11.011349    -0.003407    Cartesian   -0.03
    307 z         -2.202951     -2.216698    -0.013747    Cartesian    0.62
    308 x          2.202951      2.202951     0.000000    Cartesian    0.00
    308 y         -2.202951     -2.214988    -0.012037    Cartesian    0.55
    308 z         11.014756     11.010539    -0.004217    Cartesian   -0.04
    309 x          6.608853      6.615895     0.007041    Cartesian    0.11
    309 y          6.608853      6.616561     0.007708    Cartesian    0.12
    309 z         -6.608853     -6.612874    -0.004021    Cartesian    0.06
    310 x          6.608853      6.614120     0.005267    Cartesian    0.08
    310 y         -6.608853     -6.611123    -0.002270    Cartesian    0.03
    310 z          6.608853      6.614919     0.006066    Cartesian    0.09
    311 x         11.014756     11.021990     0.007234    Cartesian    0.07
    311 y          2.202951      2.205211     0.002260    Cartesian    0.10
    311 z          6.608853      6.614488     0.005635    Cartesian    0.09
    312 x         11.014756     11.022454     0.007698    Cartesian    0.07
    312 y          6.608853      6.616313     0.007460    Cartesian    0.11
    312 z          2.202951      2.204803     0.001852    Cartesian    0.08
    313 x          8.811805      8.837857     0.026052    Cartesian    0.30
    313 y          8.811805      8.834889     0.023084    Cartesian    0.26
    313 z          4.405902      4.412059     0.006157    Cartesian    0.14
    314 x          4.405902      4.408267     0.002365    Cartesian    0.05
    314 y          4.405902      4.409247     0.003345    Cartesian    0.08
    314 z         -8.811805     -8.835540    -0.023736    Cartesian    0.27
    315 x          4.405902      4.407468     0.001565    Cartesian    0.04
    315 y         -8.811805     -8.832826    -0.021021    Cartesian    0.24
    315 z          4.405902      4.408724     0.002822    Cartesian    0.06
    316 x          8.811805      8.836717     0.024913    Cartesian    0.28
    316 y          4.405902      4.412212     0.006309    Cartesian    0.14
    316 z          8.811805      8.834950     0.023145    Cartesian    0.26
    317 x          2.202951      2.202951     0.000000    Cartesian    0.00
    317 y         -6.608853     -6.610418    -0.001565    Cartesian    0.02
    317 z         -6.608853     -6.610026    -0.001172    Cartesian    0.02
    318 x          6.608853      6.611905     0.003052    Cartesian    0.05
    318 y          2.202951      2.202927    -0.000025    Cartesian   -0.00
    318 z         11.014756     11.025306     0.010550    Cartesian    0.10
    319 x          6.608853      6.611359     0.002505    Cartesian    0.04
    319 y         11.014756     11.025877     0.011122    Cartesian    0.10
    319 z          2.202951      2.202724    -0.000227    Cartesian   -0.01
    320 x         11.014756     11.017065     0.002309    Cartesian    0.02
    320 y          6.608853      6.611890     0.003037    Cartesian    0.05
    320 z         -2.202951     -2.201623     0.001328    Cartesian   -0.06
    321 x         11.014756     11.016606     0.001850    Cartesian    0.02
    321 y         -2.202951     -2.201349     0.001602    Cartesian   -0.07
    321 z          6.608853      6.611712     0.002858    Cartesian    0.04
    322 x          4.405902      4.411652     0.005750    Cartesian    0.13
    322 y          8.811805      8.827913     0.016109    Cartesian    0.18
    322 z          8.811805      8.828961     0.017156    Cartesian    0.19
    323 x         13.217707     13.238131     0.020424    Cartesian    0.15
    323 y          0.000000     -0.000481    -0.000481    Cartesian    0.00
    323 z          0.000000     -0.000411    -0.000411    Cartesian    0.00
    324 x          6.608853      6.613394     0.004540    Cartesian    0.07
    324 y         11.014756     11.022390     0.007635    Cartesian    0.07
    324 z         -2.202951     -2.205682    -0.002730    Cartesian    0.12
    325 x          2.202951      2.202951     0.000000    Cartesian    0.00
    325 y          6.608853      6.613955     0.005101    Cartesian    0.08
    325 z         11.014756     11.018705     0.003950    Cartesian    0.04
    326 x          2.202951      2.202951     0.000000    Cartesian    0.00
    326 y         11.014756     11.019812     0.005056    Cartesian    0.05
    326 z          6.608853      6.610351     0.001497    Cartesian    0.02
    327 x          6.608853      6.612661     0.003807    Cartesian    0.06
    327 y         -2.202951     -2.205571    -0.002620    Cartesian    0.12
    327 z         11.014756     11.021584     0.006828    Cartesian    0.06
    328 x          4.405902      4.411835     0.005933    Cartesian    0.13
    328 y         -4.405902     -4.419845    -0.013943    Cartesian    0.32
    328 z         -8.811805     -8.831249    -0.019445    Cartesian    0.22
    329 x          4.405902      4.411297     0.005394    Cartesian    0.12
    329 y         -8.811805     -8.830758    -0.018954    Cartesian    0.22
    329 z         -4.405902     -4.418809    -0.012907    Cartesian    0.29
    330 x          8.811805      8.830732     0.018927    Cartesian    0.21
    330 y          8.811805      8.832784     0.020979    Cartesian    0.24
    330 z         -4.405902     -4.414917    -0.009014    Cartesian    0.20
    331 x          8.811805      8.829760     0.017955    Cartesian    0.20
    331 y         -4.405902     -4.414955    -0.009053    Cartesian    0.21
    331 z          8.811805      8.831537     0.019733    Cartesian    0.22
    332 x         13.217707     13.239997     0.022290    Cartesian    0.17
    332 y          0.000000     -0.002386    -0.002386    Cartesian    0.00
    332 z          4.405902      4.411758     0.005855    Cartesian    0.13
    333 x         13.217707     13.241262     0.023555    Cartesian    0.18
    333 y          4.405902      4.411452     0.005550    Cartesian    0.13
    333 z          0.000000     -0.002356    -0.002356    Cartesian    0.00
    334 x          6.608853      6.612123     0.003269    Cartesian    0.05
    334 y         -6.608853     -6.613334    -0.004480    Cartesian    0.07
    334 z         -6.608853     -6.613466    -0.004613    Cartesian    0.07
    335 x         11.014756     11.016465     0.001709    Cartesian    0.02
    335 y          2.202951      2.206156     0.003205    Cartesian    0.15
    335 z         -6.608853     -6.608438     0.000415    Cartesian   -0.01
    336 x         11.014756     11.024112     0.009356    Cartesian    0.08
    336 y          6.608853      6.614433     0.005580    Cartesian    0.08
    336 z          6.608853      6.614710     0.005857    Cartesian    0.09
    337 x         11.014756     11.016059     0.001303    Cartesian    0.01
    337 y         -6.608853     -6.608737     0.000116    Cartesian   -0.00
    337 z          2.202951      2.206277     0.003326    Cartesian    0.15
    338 x         13.217707     13.242732     0.025025    Cartesian    0.19
    338 y          4.405902      4.414874     0.008972    Cartesian    0.20
    338 z          4.405902      4.415406     0.009504    Cartesian    0.22
    339 x          8.811805      8.826445     0.014640    Cartesian    0.17
    339 y          0.000000     -0.003045    -0.003045    Cartesian    0.00
    339 z         -8.811805     -8.835314    -0.023510    Cartesian    0.27
    340 x          8.811805      8.825631     0.013826    Cartesian    0.16
    340 y         -8.811805     -8.834389    -0.022584    Cartesian    0.26
    340 z          0.000000     -0.002640    -0.002640    Cartesian    0.00
--------------------------------------------------------------------------------


  Time to end of optimisation  =       40.0921 seconds


  Peak dynamic memory used =     107.81 MB 


  Timing analysis for GULP :

--------------------------------------------------------------------------------
  Task / Subroutine                                          Time (Seconds)
--------------------------------------------------------------------------------
  Calculation of reciprocal space energy and derivatives          0.0008
  Calculation of reciprocal space energy using symmetry           0.0015
  Calculation of real space energy and derivatives                0.0044
  Calculation of real space energy using symmetry                 0.0138
  Calculation for region 1 energy and derivatives (2-b)          21.6582
  Calculation for region 2a energy                               16.4770
  Calculation for region 2b energy                                0.0055
  Calculation and manipulation of Hessian matrix                  0.1077
  Calculation of matrix inversion                                 1.5824
  Symmetry generation of equivalent positions                     0.0052
--------------------------------------------------------------------------------
  Total CPU time                                                 40.0923
--------------------------------------------------------------------------------


  Dump file written as Na3OCl.grs


  Job Finished at 15:18.27  2nd January    2021                               

