********************************************************************************
*                       GENERAL UTILITY LATTICE PROGRAM                        *
*                                 Julian Gale                                  *
*                       Curtin Institute for Computation                       *
*                    School of Molecular and Life Sciences                     *
*                    Curtin University, Western Australia                      *
********************************************************************************
* Version = 5.2.0 * Last modified =  10th September 2020                       *
********************************************************************************
*  optimise     - perform optimisation run                                     *
*  conp         - constant pressure calculation                                *
*  property     - calculate properties for final geometry                      *
*  defect       - perform defect calculation after bulk run                    *
*  compare      - compare initial and final structures                         *
********************************************************************************

  Job Started  at 15:19.36  2nd January    2021                               

  Number of CPUs =     1


  Total number of configurations input =      1

********************************************************************************
*  Input for Configuration =   1                                               *
********************************************************************************

  Formula = ClONa3                                                      

  Number of irreducible atoms/shells =       5


  Total number atoms/shells =       7

  Dimensionality = 3               :  Bulk   


  Symmetry :

  Crystal family                   :  Cubic       
  Crystal class  (Groth - 1921)    :  Cubic Hexakisoctahedral              

  Space group (centrosymmetric)    :  P M 3 M         

  Patterson group                  :  P m -3 m 

  Cartesian lattice vectors (Angstroms) :

        4.504000    0.000000    0.000000
        0.000000    4.504000    0.000000
        0.000000    0.000000    4.504000

  Cell parameters (Angstroms/Degrees):

  a =       4.5040    alpha =  90.0000
  b =       4.5040    beta  =  90.0000
  c =       4.5040    gamma =  90.0000

  Initial cell volume =          91.368216 Angs**3

  Temperature of configuration =   0.00     K 

  Pressure of configuration =         0.000 GPa 

  Fractional coordinates of asymmetric unit :

--------------------------------------------------------------------------------
   No.  Atomic       x           y          z         Charge      Occupancy
        Label      (Frac)      (Frac)     (Frac)        (e)         (Frac)  
--------------------------------------------------------------------------------
      1 Cl    c    0.000000    0.000000    0.000000     1.48500    1.000000    
      2 O     c    0.500000    0.500000    0.500000     0.18300    1.000000    
      3 Na    c    0.500000    0.500000    0.000000     1.00000    1.000000    
      4 Cl    s    0.000000    0.000000    0.000000    -2.48500    1.000000    
      5 O     s    0.500000    0.500000    0.500000    -2.18300    1.000000    
--------------------------------------------------------------------------------


  Constraints : 

--------------------------------------------------------------------------------
  Constraint no.      Unconstrained     Constrained    Coefficient    Offset
                         Variable         Variable
--------------------------------------------------------------------------------
           1              Strain 1        Strain 2       1.00000      0.0000
           2              Strain 1        Strain 3       1.00000      0.0000
--------------------------------------------------------------------------------


********************************************************************************
*  General input information                                                   *
********************************************************************************

  Species output for all configurations : 

--------------------------------------------------------------------------------
  Species    Type    Atomic    Atomic    Charge       Radii (Angs)     Library
                     Number     Mass       (e)     Cova   Ionic  VDW   Symbol
--------------------------------------------------------------------------------
    Na       Core       11      22.99   1.000000   0.970  0.000  2.300          
    O        Core        8      16.00   0.183000   0.730  0.000  1.360          
    O        Shell       8       0.00  -2.183000   0.730  0.000  1.360          
    Cl       Core       17      35.45   1.485000   0.990  0.000  1.650          
    Cl       Shell      17       0.00  -2.485000   0.990  0.000  1.650          
    Mg       Core       12      24.31   0.415000   1.100  0.000  0.000          
    Mg       Shell      12       0.00   1.585000   1.100  0.000  0.000          
    Ca       Core       20      40.08  -1.135000   0.990  0.000  0.000          
    Ca       Shell      20       0.00   3.135000   0.990  0.000  0.000          
    Sr       Core       38      87.62  -1.251000   1.120  0.000  0.000          
    Sr       Shell      38       0.00   3.251000   1.120  0.000  0.000          
    Ba       Core       56     137.33  -7.203000   1.340  0.000  0.000          
    Ba       Shell      56       0.00   9.203000   1.340  0.000  0.000          
--------------------------------------------------------------------------------


  Lattice summation method               =    Ewald          (3-D)
                                         =    Parry          (2-D)
                                         =    Saunders et al (1-D)
  Accuracy factor for lattice sums       =   12.000


  Analytic derivatives to be used

  Time limit = Infinity

  Maximum range for interatomic potentials =    100000.000000 Angstroms

  General interatomic potentials :

--------------------------------------------------------------------------------
Atom  Types   Potential      Parameter       Value         Units   Cutoffs(Ang)
  1     2                                                            Min /  Max 
--------------------------------------------------------------------------------
O    c O    s Spring (c-s)  Spring k 2       593.71600    eV*Ang^-2 0.000  0.800
                            Spring k 4       0.0000000    eV*Ang^-4 
--------------------------------------------------------------------------------
Cl   c Cl   s Spring (c-s)  Spring k 2       29.380000    eV*Ang^-2 0.000  0.800
                            Spring k 4       0.0000000    eV*Ang^-4 
--------------------------------------------------------------------------------
Mg   c Mg   s Spring (c-s)  Spring k 2       361.60000    eV*Ang^-2 0.000  0.800
                            Spring k 4       0.0000000    eV*Ang^-4 
--------------------------------------------------------------------------------
Ca   c Ca   s Spring (c-s)  Spring k 2       110.20000    eV*Ang^-2 0.000  0.800
                            Spring k 4       0.0000000    eV*Ang^-4 
--------------------------------------------------------------------------------
Sr   c Sr   s Spring (c-s)  Spring k 2       71.700000    eV*Ang^-2 0.000  0.800
                            Spring k 4       0.0000000    eV*Ang^-4 
--------------------------------------------------------------------------------
Ba   c Ba   s Spring (c-s)  Spring k 2       495.20000    eV*Ang^-2 0.000  0.800
                            Spring k 4       0.0000000    eV*Ang^-4 
--------------------------------------------------------------------------------
Na   c Na   c Buckingham    Buckingham A     1788.1900    eV        0.000 12.000
                            Buckingham rho  0.15900000    Ang       
                            Buckingham C     0.0000000    eV*Ang^6  
--------------------------------------------------------------------------------
Na   c O    s Buckingham    Buckingham A     588.38000    eV        0.000 12.000
                            Buckingham rho  0.33800000    Ang       
                            Buckingham C     0.0000000    eV*Ang^6  
--------------------------------------------------------------------------------
Na   c Cl   s Buckingham    Buckingham A     1170.4100    eV        0.000 12.000
                            Buckingham rho  0.31500000    Ang       
                            Buckingham C     0.0000000    eV*Ang^6  
--------------------------------------------------------------------------------
O    s O    s Buckingham    Buckingham A     22764.300    eV        0.000 12.000
                            Buckingham rho  0.14900000    Ang       
                            Buckingham C     13.190000    eV*Ang^6  
--------------------------------------------------------------------------------
O    s Cl   s Buckingham    Buckingham A     8286.9100    eV        0.000 12.000
                            Buckingham rho  0.25900000    Ang       
                            Buckingham C     62.200000    eV*Ang^6  
--------------------------------------------------------------------------------
Cl   s Cl   s Buckingham    Buckingham A     1227.2000    eV        0.000 12.000
                            Buckingham rho  0.32100000    Ang       
                            Buckingham C     14.530000    eV*Ang^6  
--------------------------------------------------------------------------------
O    s Mg   s Buckingham    Buckingham A     1428.5000    eV        0.000 12.000
                            Buckingham rho  0.29450000    Ang       
                            Buckingham C     0.0000000    eV*Ang^6  
--------------------------------------------------------------------------------
Mg   s Cl   s Buckingham    Buckingham A     4914.5400    eV        0.000 12.000
                            Buckingham rho  0.25700000    Ang       
                            Buckingham C     0.0000000    eV*Ang^6  
--------------------------------------------------------------------------------
O    s Ca   s Buckingham    Buckingham A     1090.4000    eV        0.000 12.000
                            Buckingham rho  0.34370000    Ang       
                            Buckingham C     0.0000000    eV*Ang^6  
--------------------------------------------------------------------------------
Cl   s Ca   s Buckingham    Buckingham A     2302.0000    eV        0.000 12.000
                            Buckingham rho  0.34020000    Ang       
                            Buckingham C     0.0000000    eV*Ang^6  
--------------------------------------------------------------------------------
O    s Sr   s Buckingham    Buckingham A     959.10000    eV        0.000 12.000
                            Buckingham rho  0.37210000    Ang       
                            Buckingham C     0.0000000    eV*Ang^6  
--------------------------------------------------------------------------------
Cl   s Sr   s Buckingham    Buckingham A     2191.0900    eV        0.000 12.000
                            Buckingham rho  0.34570000    Ang       
                            Buckingham C     0.0000000    eV*Ang^6  
--------------------------------------------------------------------------------
O    s Ba   s Buckingham    Buckingham A     905.70000    eV        0.000 12.000
                            Buckingham rho  0.39760000    Ang       
                            Buckingham C     0.0000000    eV*Ang^6  
--------------------------------------------------------------------------------
Cl   s Ba   s Buckingham    Buckingham A     2704.5500    eV        0.000 12.000
                            Buckingham rho  0.35280000    Ang       
                            Buckingham C     0.0000000    eV*Ang^6  
--------------------------------------------------------------------------------

********************************************************************************
*  Output for configuration   1                                                *
********************************************************************************


  Components of energy : 

--------------------------------------------------------------------------------
  Interatomic potentials     =           4.94315381 eV    
  Monopole - monopole (real) =         -10.03624526 eV    
  Monopole - monopole (recip)=         -29.53581274 eV    
  Monopole - monopole (total)=         -39.57205800 eV    
--------------------------------------------------------------------------------
  Total lattice energy       =         -34.62890419 eV    
--------------------------------------------------------------------------------
  Total lattice energy       =           -3341.1599 kJ/(mole unit cells)
--------------------------------------------------------------------------------


  Number of variables =        1

  Maximum number of calculations  =          1000
  Maximum Hessian update interval =            10
  Maximum step size               =   1.000000000
  Maximum parameter tolerance     =   0.000010000
  Maximum function  tolerance     =   0.000010000
  Maximum gradient  tolerance     =   0.001000000
  Maximum gradient  component     =   0.010000000

  Symmetry constrained optimisation

  Symmetry used for second derivatives

  Cell parameters to be optimised using strains

  Newton-Raphson optimiser to be used

  BFGS hessian update to be used

  Lower half triangular hessian to be used

  Start of bulk optimisation :

  Cycle:      0 Energy:       -34.628904  Gnorm:      4.328237  CPU:    0.018
  ** Hessian calculated **
  Cycle:      1 Energy:       -34.677667  Gnorm:      0.044008  CPU:    0.022
  Cycle:      2 Energy:       -34.677671  Gnorm:      0.003653  CPU:    0.026


  **** Optimisation achieved ****


  Final energy =     -34.67767136 eV
  Final Gnorm  =       0.00000010

  Components of energy : 

--------------------------------------------------------------------------------
  Interatomic potentials     =           5.77546103 eV    
  Monopole - monopole (real) =         -10.25970290 eV    
  Monopole - monopole (recip)=         -30.19342950 eV    
  Monopole - monopole (total)=         -40.45313239 eV    
--------------------------------------------------------------------------------
  Total lattice energy       =         -34.67767136 eV    
--------------------------------------------------------------------------------
  Total lattice energy       =           -3345.8652 kJ/(mole unit cells)
--------------------------------------------------------------------------------

  Final asymmetric unit coordinates :

--------------------------------------------------------------------------------
   No.  Atomic        x           y           z         Radius
        Label       (Frac)      (Frac)      (Frac)       (Angs) 
--------------------------------------------------------------------------------
     1  Cl    c     0.000000    0.000000    0.000000    0.000000
     2  O     c     0.500000    0.500000    0.500000    0.000000
     3  Na    c     0.500000    0.500000    0.000000    0.000000
     4  Cl    s     0.000000    0.000000    0.000000    0.000000
     5  O     s     0.500000    0.500000    0.500000    0.000000
--------------------------------------------------------------------------------

  Final Cartesian lattice vectors (Angstroms) :

        4.405902    0.000000    0.000000
        0.000000    4.405902    0.000000
        0.000000    0.000000    4.405902


  Final cell parameters and derivatives :

--------------------------------------------------------------------------------
       a            4.405902 Angstrom     dE/de1(xx)     0.000000 eV/strain
       b            4.405902 Angstrom     dE/de2(yy)     0.000000 eV/strain
       c            4.405902 Angstrom     dE/de3(zz)     0.000000 eV/strain
       alpha       90.000000 Degrees      dE/de4(yz)     0.000000 eV/strain
       beta        90.000000 Degrees      dE/de5(xz)     0.000000 eV/strain
       gamma       90.000000 Degrees      dE/de6(xy)     0.000000 eV/strain
--------------------------------------------------------------------------------

  Primitive cell volume =            85.527266 Angs**3

  Density of cell =      2.338030 g/cm**3

  Non-primitive cell volume =            85.527266 Angs**3


  Final internal derivatives :

--------------------------------------------------------------------------------
   No.  Atomic          a             b             c           Radius
        Label          (eV)          (eV)          (eV)        (eV/Angs)
--------------------------------------------------------------------------------
      1 Cl    c       0.000000      0.000000      0.000000      0.000000
      2 O     c       0.000000      0.000000      0.000000      0.000000
      3 Na    c       0.000000      0.000000      0.000000      0.000000
      4 Cl    s       0.000000      0.000000      0.000000      0.000000
      5 O     s       0.000000      0.000000      0.000000      0.000000
--------------------------------------------------------------------------------
  Maximum abs         0.000000      0.000000      0.000000      0.000000
--------------------------------------------------------------------------------

  Comparison of initial and final structures : 

--------------------------------------------------------------------------------
  Parameter   Initial value   Final value   Difference    Units      Percent
--------------------------------------------------------------------------------
    Volume        91.368216     85.527266    -5.840950    Angs**3     -6.39
    a              4.504000      4.405902    -0.098098    Angstroms   -2.18
    b              4.504000      4.405902    -0.098098    Angstroms   -2.18
    c              4.504000      4.405902    -0.098098    Angstroms   -2.18
    alpha         90.000000     90.000000     0.000000    Degrees      0.00
    beta          90.000000     90.000000     0.000000    Degrees      0.00
    gamma         90.000000     90.000000     0.000000    Degrees      0.00
      1 x          0.000000      0.000000     0.000000    Fractional   0.00
      1 y          0.000000      0.000000     0.000000    Fractional   0.00
      1 z          0.000000      0.000000     0.000000    Fractional   0.00
      2 x          0.500000      0.500000     0.000000    Fractional   0.00
      2 y          0.500000      0.500000     0.000000    Fractional   0.00
      2 z          0.500000      0.500000     0.000000    Fractional   0.00
      3 x          0.500000      0.500000     0.000000    Fractional   0.00
      3 y          0.500000      0.500000     0.000000    Fractional   0.00
      3 z          0.000000      0.000000     0.000000    Fractional   0.00
      4 x          0.000000      0.000000     0.000000    Fractional   0.00
      4 y          0.000000      0.000000     0.000000    Fractional   0.00
      4 z          0.000000      0.000000     0.000000    Fractional   0.00
      5 x          0.500000      0.500000     0.000000    Fractional   0.00
      5 y          0.500000      0.500000     0.000000    Fractional   0.00
      5 z          0.500000      0.500000     0.000000    Fractional   0.00
--------------------------------------------------------------------------------


  Born effective charge tensors : 

-------------------------------------------------------------------------------
  Atom             x           y             z
-------------------------------------------------------------------------------
    1 Cl    x      -0.9918     -0.0000     -0.0000
            y      -0.0000     -0.9918     -0.0000
            z      -0.0000     -0.0000     -0.9918
-------------------------------------------------------------------------------
    2 O     x      -2.2939      0.0000      0.0000
            y       0.0000     -2.2939      0.0000
            z       0.0000      0.0000     -2.2939
-------------------------------------------------------------------------------
    3 Na    x       1.2243      0.0000      0.0000
            y       0.0000      1.2243     -0.0000
            z       0.0000      0.0000      0.8372
-------------------------------------------------------------------------------




  Elastic Constant Matrix: (Units=GPa)

-------------------------------------------------------------------------------
  Indices      1         2         3         4         5         6    
-------------------------------------------------------------------------------
       1     82.7680   24.3534   24.3534   -0.0000    0.0000   -0.0000
       2     24.3534   82.7680   24.3534    0.0000   -0.0000   -0.0000
       3     24.3534   24.3534   82.7680    0.0000   -0.0000    0.0000
       4     -0.0000    0.0000    0.0000   24.3534   -0.0000    0.0000
       5      0.0000   -0.0000   -0.0000   -0.0000   24.3534    0.0000
       6     -0.0000   -0.0000    0.0000    0.0000    0.0000   24.3534
-------------------------------------------------------------------------------


  Elastic Compliance Matrix: (Units=1/GPa)

-------------------------------------------------------------------------------
  Indices      1         2         3         4         5         6    
-------------------------------------------------------------------------------
       1    0.013948 -0.003171 -0.003171  0.000000 -0.000000  0.000000
       2   -0.003171  0.013948 -0.003171 -0.000000  0.000000 -0.000000
       3   -0.003171 -0.003171  0.013948 -0.000000  0.000000 -0.000000
       4    0.000000 -0.000000 -0.000000  0.041062  0.000000 -0.000000
       5   -0.000000  0.000000  0.000000  0.000000  0.041062 -0.000000
       6    0.000000 -0.000000 -0.000000 -0.000000 -0.000000  0.041062
-------------------------------------------------------------------------------

  Mechanical properties :

-------------------------------------------------------------------------------
  Convention :                    Reuss         Voigt         Hill
-------------------------------------------------------------------------------
  Bulk  Modulus (GPa)     =      43.82493      43.82493      43.82493
  Shear Modulus (GPa)     =      26.08758      26.29496      26.19127
-------------------------------------------------------------------------------
  Velocity S-wave (km/s)  =       3.34035       3.35360       3.34698
  Velocity P-wave (km/s)  =       5.79842       5.80861       5.80351
-------------------------------------------------------------------------------
  Compressibility (1/GPa) =    0.02281806
-------------------------------------------------------------------------------
  Stress axis :                     x             y             z
-------------------------------------------------------------------------------
  Youngs Moduli (GPa)     =      71.69479      71.69479      71.69479
-------------------------------------------------------------------------------
  Poissons Ratio (x)      =                     0.22734       0.22734
  Poissons Ratio (y)      =       0.22734                     0.22734
  Poissons Ratio (z)      =       0.22734       0.22734
-------------------------------------------------------------------------------


  Piezoelectric Strain Matrix: (Units=C/m**2)

-------------------------------------------------------------------------------
  Indices      1         2         3         4         5         6    
-------------------------------------------------------------------------------
       x    -0.00000  -0.00000  -0.00000  -0.00000   0.00000  -0.00000
       y     0.00000  -0.00000   0.00000   0.00000  -0.00000   0.00000
       z    -0.00000  -0.00000   0.00000  -0.00000   0.00000  -0.00000
-------------------------------------------------------------------------------


  Piezoelectric Stress Matrix: (Units=10**-11 C/N)

-------------------------------------------------------------------------------
  Indices      1         2         3         4         5         6    
-------------------------------------------------------------------------------
       x     0.00000  -0.00000  -0.00000  -0.00000   0.00000  -0.00000
       y     0.00000  -0.00000   0.00000   0.00000  -0.00000   0.00000
       z    -0.00000  -0.00000   0.00000  -0.00000   0.00000  -0.00000
-------------------------------------------------------------------------------


  Static dielectric constant tensor : 

-------------------------------------------------------------------------------
              x         y         z
-------------------------------------------------------------------------------
       x    11.08357   0.00000   0.00000
       y     0.00000  11.08357   0.00000
       z     0.00000   0.00000  11.08357
--------------------------------------------------------------------------------

  High frequency dielectric constant tensor : 

-------------------------------------------------------------------------------
              x         y         z
-------------------------------------------------------------------------------
       x     1.50771   0.00000   0.00000
       y     0.00000   1.50771   0.00000
       z     0.00000   0.00000   1.50771
-------------------------------------------------------------------------------

  Static refractive indices : 

-------------------------------------------------------------------------------
    1 =    3.32920      2 =    3.32920      3 =    3.32920
-------------------------------------------------------------------------------

  High frequency refractive indices : 

-------------------------------------------------------------------------------
    1 =    1.22789      2 =    1.22789      3 =    1.22789
-------------------------------------------------------------------------------


  Time to end of optimisation =       0.0363 seconds

********************************************************************************
*  Defect calculation for configuration   1 :                                  *
********************************************************************************

  Total number of defects =      3

  Total charge on defect  =  -1.00

  Defect centre is at   0.5000   0.2500   0.2500  Frac

  Region 1 radius =  12.0000      Number of ions =    593

  Number of symmetry inequivalent region 1 ions  =    340

  Region 2 radius =  16.0000      Number of ions =    832

  Number of symmetry inequivalent region 2a ions =    454

  Region 2a mode = 4 : screened electrostatics due to region 1 
                       neglect correction to region 1 forces from 2a
                       region 2a displacements based on defects only

  Region 2a ions will only interact with defects in region 1

  Vacancies:

--------------------------------------------------------------------------------
    Specification type     Symbol/Number         x          y          z
--------------------------------------------------------------------------------
    Fractional                               0.500000   0.500000   0.000000
    Fractional                               0.500000   0.000000   0.500000
--------------------------------------------------------------------------------

  Interstitials:

--------------------------------------------------------------------------------
    Specification type     Symbol/Number         x          y          z
--------------------------------------------------------------------------------
    Atom/Fractional         Na               0.500000   0.430000   0.070000
--------------------------------------------------------------------------------


  Symmetry reduced region 1 (Relative to defect centre) :

--------------------------------------------------------------------------------
   No.   Atomic       x            y             z       Radius  Multiplicity   
         Label      (Angs)       (Angs)        (Angs)    (Angs)     
--------------------------------------------------------------------------------
     1  Na    c      0.0000       0.7931      -0.7931    0.0000     1    Defect
     2  O     c      0.0000       1.1015 *     1.1015 *  0.0000     1          
     3  Cl    c      2.2030 *    -1.1015 *    -1.1015 *  0.0000     2          
     4  Na    c      2.2030 *     1.1015 *     1.1015 *  0.0000     2          
     5  O     c      0.0000       1.1015 *    -3.3044 *  0.0000     1          
     6  O     c      0.0000      -3.3044 *     1.1015 *  0.0000     1          
     7  Na    c      0.0000       1.1015 *     3.3044 *  0.0000     1          
     8  Na    c      0.0000      -3.3044 *    -1.1015 *  0.0000     1          
     9  Na    c      0.0000      -1.1015 *    -3.3044 *  0.0000     1          
    10  Na    c      0.0000       3.3044 *     1.1015 *  0.0000     1          
    11  Cl    c      2.2030 *    -1.1015 *     3.3044 *  0.0000     2          
    12  Na    c      2.2030 *     1.1015 *    -3.3044 *  0.0000     2          
    13  Cl    c      2.2030 *     3.3044 *    -1.1015 *  0.0000     2          
    14  Na    c      2.2030 *    -3.3044 *     1.1015 *  0.0000     2          
    15  O     c      0.0000      -3.3044 *    -3.3044 *  0.0000     1          
    16  Na    c      0.0000      -3.3044 *     3.3044 *  0.0000     1          
    17  Na    c      0.0000       3.3044 *    -3.3044 *  0.0000     1          
    18  O     c      4.4059 *     1.1015 *     1.1015 *  0.0000     2          
    19  Na    c      4.4059 *     1.1015 *    -1.1015 *  0.0000     2          
    20  Na    c      4.4059 *    -1.1015 *     1.1015 *  0.0000     2          
    21  Cl    c      2.2030 *     3.3044 *     3.3044 *  0.0000     2          
    22  Na    c      2.2030 *    -3.3044 *    -3.3044 *  0.0000     2          
    23  O     c      0.0000       1.1015 *     5.5074 *  0.0000     1          
    24  O     c      0.0000       5.5074 *     1.1015 *  0.0000     1          
    25  O     c      4.4059 *     1.1015 *    -3.3044 *  0.0000     2          
    26  Na    c      0.0000       1.1015 *    -5.5074 *  0.0000     1          
    27  Na    c      0.0000       5.5074 *    -1.1015 *  0.0000     1          
    28  Na    c      4.4059 *     1.1015 *     3.3044 *  0.0000     2          
    29  Na    c      0.0000      -1.1015 *     5.5074 *  0.0000     1          
    30  Na    c      0.0000      -5.5074 *     1.1015 *  0.0000     1          
    31  Na    c      4.4059 *    -1.1015 *    -3.3044 *  0.0000     2          
    32  O     c      4.4059 *    -3.3044 *     1.1015 *  0.0000     2          
    33  Na    c      4.4059 *    -3.3044 *    -1.1015 *  0.0000     2          
    34  Na    c      4.4059 *     3.3044 *     1.1015 *  0.0000     2          
    35  Cl    c      2.2030 *    -1.1015 *    -5.5074 *  0.0000     2          
    36  Cl    c      2.2030 *    -5.5074 *    -1.1015 *  0.0000     2          
    37  Na    c      2.2030 *     1.1015 *     5.5074 *  0.0000     2          
    38  Na    c      2.2030 *     5.5074 *     1.1015 *  0.0000     2          
    39  O     c      0.0000       5.5074 *    -3.3044 *  0.0000     1          
    40  O     c      0.0000      -3.3044 *     5.5074 *  0.0000     1          
    41  Na    c      0.0000       5.5074 *     3.3044 *  0.0000     1          
    42  Na    c      0.0000      -3.3044 *    -5.5074 *  0.0000     1          
    43  Na    c      0.0000       3.3044 *     5.5074 *  0.0000     1          
    44  Na    c      0.0000      -5.5074 *    -3.3044 *  0.0000     1          
    45  O     c      4.4059 *    -3.3044 *    -3.3044 *  0.0000     2          
    46  Na    c      4.4059 *    -3.3044 *     3.3044 *  0.0000     2          
    47  Na    c      4.4059 *     3.3044 *    -3.3044 *  0.0000     2          
    48  Cl    c      6.6089 *    -1.1015 *    -1.1015 *  0.0000     2          
    49  Na    c      6.6089 *     1.1015 *     1.1015 *  0.0000     2          
    50  Cl    c      2.2030 *     3.3044 *    -5.5074 *  0.0000     2          
    51  Cl    c      2.2030 *    -5.5074 *     3.3044 *  0.0000     2          
    52  Na    c      2.2030 *     5.5074 *    -3.3044 *  0.0000     2          
    53  Na    c      2.2030 *    -3.3044 *     5.5074 *  0.0000     2          
    54  O     c      4.4059 *     1.1015 *     5.5074 *  0.0000     2          
    55  O     c      4.4059 *     5.5074 *     1.1015 *  0.0000     2          
    56  Na    c      4.4059 *     1.1015 *    -5.5074 *  0.0000     2          
    57  Na    c      4.4059 *     5.5074 *    -1.1015 *  0.0000     2          
    58  Na    c      4.4059 *    -1.1015 *     5.5074 *  0.0000     2          
    59  Na    c      4.4059 *    -5.5074 *     1.1015 *  0.0000     2          
    60  Cl    c      6.6089 *    -1.1015 *     3.3044 *  0.0000     2          
    61  Cl    c      6.6089 *     3.3044 *    -1.1015 *  0.0000     2          
    62  Na    c      6.6089 *     1.1015 *    -3.3044 *  0.0000     2          
    63  Na    c      6.6089 *    -3.3044 *     1.1015 *  0.0000     2          
    64  O     c      0.0000       1.1015 *    -7.7103 *  0.0000     1          
    65  O     c      0.0000       5.5074 *     5.5074 *  0.0000     1          
    66  O     c      0.0000      -7.7103 *     1.1015 *  0.0000     1          
    67  Na    c      0.0000       1.1015 *     7.7103 *  0.0000     1          
    68  Na    c      0.0000       5.5074 *    -5.5074 *  0.0000     1          
    69  Na    c      0.0000      -7.7103 *    -1.1015 *  0.0000     1          
    70  Na    c      0.0000      -1.1015 *    -7.7103 *  0.0000     1          
    71  Na    c      0.0000       7.7103 *     1.1015 *  0.0000     1          
    72  Na    c      0.0000      -5.5074 *     5.5074 *  0.0000     1          
    73  O     c      4.4059 *     5.5074 *    -3.3044 *  0.0000     2          
    74  O     c      4.4059 *    -3.3044 *     5.5074 *  0.0000     2          
    75  Na    c      4.4059 *     5.5074 *     3.3044 *  0.0000     2          
    76  Na    c      4.4059 *    -3.3044 *    -5.5074 *  0.0000     2          
    77  Na    c      4.4059 *     3.3044 *     5.5074 *  0.0000     2          
    78  Na    c      4.4059 *    -5.5074 *    -3.3044 *  0.0000     2          
    79  Cl    c      2.2030 *    -1.1015 *     7.7103 *  0.0000     2          
    80  Cl    c      2.2030 *    -5.5074 *    -5.5074 *  0.0000     2          
    81  Cl    c      6.6089 *     3.3044 *     3.3044 *  0.0000     2          
    82  Na    c      2.2030 *     1.1015 *    -7.7103 *  0.0000     2          
    83  Na    c      2.2030 *     5.5074 *     5.5074 *  0.0000     2          
    84  Na    c      6.6089 *    -3.3044 *    -3.3044 *  0.0000     2          
    85  Cl    c      2.2030 *     7.7103 *    -1.1015 *  0.0000     2          
    86  Na    c      2.2030 *    -7.7103 *     1.1015 *  0.0000     2          
    87  O     c      0.0000      -3.3044 *    -7.7103 *  0.0000     1          
    88  O     c      0.0000      -7.7103 *    -3.3044 *  0.0000     1          
    89  Na    c      0.0000      -3.3044 *     7.7103 *  0.0000     1          
    90  Na    c      0.0000      -7.7103 *     3.3044 *  0.0000     1          
    91  Na    c      0.0000       3.3044 *    -7.7103 *  0.0000     1          
    92  Na    c      0.0000       7.7103 *    -3.3044 *  0.0000     1          
    93  Cl    c      2.2030 *     3.3044 *     7.7103 *  0.0000     2          
    94  Cl    c      6.6089 *    -1.1015 *    -5.5074 *  0.0000     2          
    95  Na    c      2.2030 *    -3.3044 *    -7.7103 *  0.0000     2          
    96  Na    c      6.6089 *     1.1015 *     5.5074 *  0.0000     2          
    97  Cl    c      2.2030 *     7.7103 *     3.3044 *  0.0000     2          
    98  Cl    c      6.6089 *    -5.5074 *    -1.1015 *  0.0000     2          
    99  Na    c      2.2030 *    -7.7103 *    -3.3044 *  0.0000     2          
   100  Na    c      6.6089 *     5.5074 *     1.1015 *  0.0000     2          
   101  O     c      4.4059 *     1.1015 *    -7.7103 *  0.0000     2          
   102  O     c      4.4059 *     5.5074 *     5.5074 *  0.0000     2          
   103  Na    c      4.4059 *     1.1015 *     7.7103 *  0.0000     2          
   104  Na    c      4.4059 *     5.5074 *    -5.5074 *  0.0000     2          
   105  Na    c      4.4059 *    -1.1015 *    -7.7103 *  0.0000     2          
   106  Na    c      4.4059 *    -5.5074 *     5.5074 *  0.0000     2          
   107  O     c      4.4059 *    -7.7103 *     1.1015 *  0.0000     2          
   108  O     c      8.8118 *     1.1015 *     1.1015 *  0.0000     2          
   109  Na    c      4.4059 *    -7.7103 *    -1.1015 *  0.0000     2          
   110  Na    c      8.8118 *     1.1015 *    -1.1015 *  0.0000     2          
   111  Na    c      4.4059 *     7.7103 *     1.1015 *  0.0000     2          
   112  Na    c      8.8118 *    -1.1015 *     1.1015 *  0.0000     2          
   113  Cl    c      6.6089 *     3.3044 *    -5.5074 *  0.0000     2          
   114  Cl    c      6.6089 *    -5.5074 *     3.3044 *  0.0000     2          
   115  Na    c      6.6089 *     5.5074 *    -3.3044 *  0.0000     2          
   116  Na    c      6.6089 *    -3.3044 *     5.5074 *  0.0000     2          
   117  O     c      0.0000       5.5074 *    -7.7103 *  0.0000     1          
   118  O     c      0.0000      -7.7103 *     5.5074 *  0.0000     1          
   119  O     c      4.4059 *    -3.3044 *    -7.7103 *  0.0000     2          
   120  Na    c      0.0000       5.5074 *     7.7103 *  0.0000     1          
   121  Na    c      0.0000      -7.7103 *    -5.5074 *  0.0000     1          
   122  Na    c      4.4059 *    -3.3044 *     7.7103 *  0.0000     2          
   123  Na    c      0.0000       7.7103 *     5.5074 *  0.0000     1          
   124  Na    c      0.0000      -5.5074 *    -7.7103 *  0.0000     1          
   125  Na    c      4.4059 *     3.3044 *    -7.7103 *  0.0000     2          
   126  O     c      4.4059 *    -7.7103 *    -3.3044 *  0.0000     2          
   127  O     c      8.8118 *     1.1015 *    -3.3044 *  0.0000     2          
   128  O     c      8.8118 *    -3.3044 *     1.1015 *  0.0000     2          
   129  Na    c      4.4059 *    -7.7103 *     3.3044 *  0.0000     2          
   130  Na    c      8.8118 *     1.1015 *     3.3044 *  0.0000     2          
   131  Na    c      8.8118 *    -3.3044 *    -1.1015 *  0.0000     2          
   132  Na    c      4.4059 *     7.7103 *    -3.3044 *  0.0000     2          
   133  Na    c      8.8118 *    -1.1015 *    -3.3044 *  0.0000     2          
   134  Na    c      8.8118 *     3.3044 *     1.1015 *  0.0000     2          
   135  Cl    c      2.2030 *     7.7103 *    -5.5074 *  0.0000     2          
   136  Cl    c      2.2030 *    -5.5074 *     7.7103 *  0.0000     2          
   137  Na    c      2.2030 *     5.5074 *    -7.7103 *  0.0000     2          
   138  Na    c      2.2030 *    -7.7103 *     5.5074 *  0.0000     2          
   139  O     c      0.0000       1.1015 *     9.9133 *  0.0000     1          
   140  O     c      0.0000       9.9133 *     1.1015 *  0.0000     1          
   141  O     c      8.8118 *    -3.3044 *    -3.3044 *  0.0000     2          
   142  Na    c      0.0000       1.1015 *    -9.9133 *  0.0000     1          
   143  Na    c      0.0000       9.9133 *    -1.1015 *  0.0000     1          
   144  Na    c      8.8118 *    -3.3044 *     3.3044 *  0.0000     2          
   145  Na    c      0.0000      -1.1015 *     9.9133 *  0.0000     1          
   146  Na    c      0.0000      -9.9133 *     1.1015 *  0.0000     1          
   147  Na    c      8.8118 *     3.3044 *    -3.3044 *  0.0000     2          
   148  Cl    c      2.2030 *    -1.1015 *    -9.9133 *  0.0000     2          
   149  Cl    c      6.6089 *    -1.1015 *     7.7103 *  0.0000     2          
   150  Cl    c      6.6089 *     7.7103 *    -1.1015 *  0.0000     2          
   151  Cl    c      6.6089 *    -5.5074 *    -5.5074 *  0.0000     2          
   152  Na    c      2.2030 *     1.1015 *     9.9133 *  0.0000     2          
   153  Na    c      6.6089 *     1.1015 *    -7.7103 *  0.0000     2          
   154  Na    c      6.6089 *     5.5074 *     5.5074 *  0.0000     2          
   155  Na    c      6.6089 *    -7.7103 *     1.1015 *  0.0000     2          
   156  Cl    c      2.2030 *    -9.9133 *    -1.1015 *  0.0000     2          
   157  Na    c      2.2030 *     9.9133 *     1.1015 *  0.0000     2          
   158  O     c      0.0000       9.9133 *    -3.3044 *  0.0000     1          
   159  O     c      0.0000      -3.3044 *     9.9133 *  0.0000     1          
   160  O     c      4.4059 *     5.5074 *    -7.7103 *  0.0000     2          
   161  O     c      4.4059 *    -7.7103 *     5.5074 *  0.0000     2          
   162  O     c      8.8118 *     1.1015 *     5.5074 *  0.0000     2          
   163  O     c      8.8118 *     5.5074 *     1.1015 *  0.0000     2          
   164  Na    c      0.0000       9.9133 *     3.3044 *  0.0000     1          
   165  Na    c      0.0000      -3.3044 *    -9.9133 *  0.0000     1          
   166  Na    c      4.4059 *     5.5074 *     7.7103 *  0.0000     2          
   167  Na    c      4.4059 *    -7.7103 *    -5.5074 *  0.0000     2          
   168  Na    c      8.8118 *     1.1015 *    -5.5074 *  0.0000     2          
   169  Na    c      8.8118 *     5.5074 *    -1.1015 *  0.0000     2          
   170  Na    c      0.0000       3.3044 *     9.9133 *  0.0000     1          
   171  Na    c      0.0000      -9.9133 *    -3.3044 *  0.0000     1          
   172  Na    c      4.4059 *     7.7103 *     5.5074 *  0.0000     2          
   173  Na    c      4.4059 *    -5.5074 *    -7.7103 *  0.0000     2          
   174  Na    c      8.8118 *    -1.1015 *     5.5074 *  0.0000     2          
   175  Na    c      8.8118 *    -5.5074 *     1.1015 *  0.0000     2          
   176  Cl    c      6.6089 *     7.7103 *     3.3044 *  0.0000     2          
   177  Na    c      6.6089 *    -7.7103 *    -3.3044 *  0.0000     2          
   178  Cl    c      2.2030 *     3.3044 *    -9.9133 *  0.0000     2          
   179  Cl    c      2.2030 *    -9.9133 *     3.3044 *  0.0000     2          
   180  Cl    c      6.6089 *     3.3044 *     7.7103 *  0.0000     2          
   181  Na    c      2.2030 *     9.9133 *    -3.3044 *  0.0000     2          
   182  Na    c      2.2030 *    -3.3044 *     9.9133 *  0.0000     2          
   183  Na    c      6.6089 *    -3.3044 *    -7.7103 *  0.0000     2          
   184  O     c      0.0000      -7.7103 *    -7.7103 *  0.0000     1          
   185  O     c      4.4059 *     1.1015 *     9.9133 *  0.0000     2          
   186  O     c      4.4059 *     9.9133 *     1.1015 *  0.0000     2          
   187  O     c      8.8118 *     5.5074 *    -3.3044 *  0.0000     2          
   188  O     c      8.8118 *    -3.3044 *     5.5074 *  0.0000     2          
   189  Na    c      0.0000      -7.7103 *     7.7103 *  0.0000     1          
   190  Na    c      4.4059 *     1.1015 *    -9.9133 *  0.0000     2          
   191  Na    c      4.4059 *     9.9133 *    -1.1015 *  0.0000     2          
   192  Na    c      8.8118 *     5.5074 *     3.3044 *  0.0000     2          
   193  Na    c      8.8118 *    -3.3044 *    -5.5074 *  0.0000     2          
   194  Na    c      0.0000       7.7103 *    -7.7103 *  0.0000     1          
   195  Na    c      4.4059 *    -1.1015 *     9.9133 *  0.0000     2          
   196  Na    c      4.4059 *    -9.9133 *     1.1015 *  0.0000     2          
   197  Na    c      8.8118 *     3.3044 *     5.5074 *  0.0000     2          
   198  Na    c      8.8118 *    -5.5074 *    -3.3044 *  0.0000     2          
   199  Cl    c      2.2030 *     7.7103 *     7.7103 *  0.0000     2          
   200  Cl    c     11.0148 *    -1.1015 *    -1.1015 *  0.0000     2          
   201  Na    c      2.2030 *    -7.7103 *    -7.7103 *  0.0000     2          
   202  Na    c     11.0148 *     1.1015 *     1.1015 *  0.0000     2          
   203  O     c      4.4059 *     9.9133 *    -3.3044 *  0.0000     2          
   204  Na    c      4.4059 *     9.9133 *     3.3044 *  0.0000     2          
   205  Na    c      4.4059 *    -9.9133 *    -3.3044 *  0.0000     2          
   206  O     c      0.0000       5.5074 *     9.9133 *  0.0000     1          
   207  O     c      0.0000       9.9133 *     5.5074 *  0.0000     1          
   208  O     c      4.4059 *    -3.3044 *     9.9133 *  0.0000     2          
   209  Na    c      0.0000       5.5074 *    -9.9133 *  0.0000     1          
   210  Na    c      0.0000       9.9133 *    -5.5074 *  0.0000     1          
   211  Na    c      4.4059 *    -3.3044 *    -9.9133 *  0.0000     2          
   212  Na    c      0.0000      -5.5074 *     9.9133 *  0.0000     1          
   213  Na    c      0.0000      -9.9133 *     5.5074 *  0.0000     1          
   214  Na    c      4.4059 *     3.3044 *     9.9133 *  0.0000     2          
   215  Cl    c      2.2030 *    -5.5074 *    -9.9133 *  0.0000     2          
   216  Cl    c      2.2030 *    -9.9133 *    -5.5074 *  0.0000     2          
   217  Cl    c      6.6089 *     7.7103 *    -5.5074 *  0.0000     2          
   218  Cl    c      6.6089 *    -5.5074 *     7.7103 *  0.0000     2          
   219  Cl    c     11.0148 *    -1.1015 *     3.3044 *  0.0000     2          
   220  Cl    c     11.0148 *     3.3044 *    -1.1015 *  0.0000     2          
   221  Na    c      2.2030 *     5.5074 *     9.9133 *  0.0000     2          
   222  Na    c      2.2030 *     9.9133 *     5.5074 *  0.0000     2          
   223  Na    c      6.6089 *     5.5074 *    -7.7103 *  0.0000     2          
   224  Na    c      6.6089 *    -7.7103 *     5.5074 *  0.0000     2          
   225  Na    c     11.0148 *     1.1015 *    -3.3044 *  0.0000     2          
   226  Na    c     11.0148 *    -3.3044 *     1.1015 *  0.0000     2          
   227  O     c      4.4059 *    -7.7103 *    -7.7103 *  0.0000     2          
   228  O     c      8.8118 *     1.1015 *    -7.7103 *  0.0000     2          
   229  O     c      8.8118 *     5.5074 *     5.5074 *  0.0000     2          
   230  Na    c      4.4059 *    -7.7103 *     7.7103 *  0.0000     2          
   231  Na    c      8.8118 *     1.1015 *     7.7103 *  0.0000     2          
   232  Na    c      8.8118 *     5.5074 *    -5.5074 *  0.0000     2          
   233  Na    c      4.4059 *     7.7103 *    -7.7103 *  0.0000     2          
   234  Na    c      8.8118 *    -1.1015 *    -7.7103 *  0.0000     2          
   235  Na    c      8.8118 *    -5.5074 *     5.5074 *  0.0000     2          
   236  O     c      8.8118 *    -7.7103 *     1.1015 *  0.0000     2          
   237  Na    c      8.8118 *    -7.7103 *    -1.1015 *  0.0000     2          
   238  Na    c      8.8118 *     7.7103 *     1.1015 *  0.0000     2          
   239  Cl    c     11.0148 *     3.3044 *     3.3044 *  0.0000     2          
   240  Na    c     11.0148 *    -3.3044 *    -3.3044 *  0.0000     2          
   241  Cl    c      6.6089 *    -1.1015 *    -9.9133 *  0.0000     2          
   242  Cl    c      6.6089 *    -9.9133 *    -1.1015 *  0.0000     2          
   243  Na    c      6.6089 *     1.1015 *     9.9133 *  0.0000     2          
   244  Na    c      6.6089 *     9.9133 *     1.1015 *  0.0000     2          
   245  O     s      0.0000       1.1015 *     1.1015 *  0.0000     1          
   246  Cl    s      2.2030 *    -1.1015 *    -1.1015 *  0.0000     2          
   247  O     s      0.0000       1.1015 *    -3.3044 *  0.0000     1          
   248  O     s      0.0000      -3.3044 *     1.1015 *  0.0000     1          
   249  Cl    s      2.2030 *    -1.1015 *     3.3044 *  0.0000     2          
   250  Cl    s      2.2030 *     3.3044 *    -1.1015 *  0.0000     2          
   251  O     s      0.0000      -3.3044 *    -3.3044 *  0.0000     1          
   252  O     s      4.4059 *     1.1015 *     1.1015 *  0.0000     2          
   253  Cl    s      2.2030 *     3.3044 *     3.3044 *  0.0000     2          
   254  O     s      0.0000       1.1015 *     5.5074 *  0.0000     1          
   255  O     s      0.0000       5.5074 *     1.1015 *  0.0000     1          
   256  O     s      4.4059 *     1.1015 *    -3.3044 *  0.0000     2          
   257  O     s      4.4059 *    -3.3044 *     1.1015 *  0.0000     2          
   258  Cl    s      2.2030 *    -1.1015 *    -5.5074 *  0.0000     2          
   259  Cl    s      2.2030 *    -5.5074 *    -1.1015 *  0.0000     2          
   260  O     s      0.0000       5.5074 *    -3.3044 *  0.0000     1          
   261  O     s      0.0000      -3.3044 *     5.5074 *  0.0000     1          
   262  O     s      4.4059 *    -3.3044 *    -3.3044 *  0.0000     2          
   263  Cl    s      6.6089 *    -1.1015 *    -1.1015 *  0.0000     2          
   264  Cl    s      2.2030 *     3.3044 *    -5.5074 *  0.0000     2          
   265  Cl    s      2.2030 *    -5.5074 *     3.3044 *  0.0000     2          
   266  O     s      4.4059 *     1.1015 *     5.5074 *  0.0000     2          
   267  O     s      4.4059 *     5.5074 *     1.1015 *  0.0000     2          
   268  Cl    s      6.6089 *    -1.1015 *     3.3044 *  0.0000     2          
   269  Cl    s      6.6089 *     3.3044 *    -1.1015 *  0.0000     2          
   270  O     s      0.0000       1.1015 *    -7.7103 *  0.0000     1          
   271  O     s      0.0000       5.5074 *     5.5074 *  0.0000     1          
   272  O     s      0.0000      -7.7103 *     1.1015 *  0.0000     1          
   273  O     s      4.4059 *     5.5074 *    -3.3044 *  0.0000     2          
   274  O     s      4.4059 *    -3.3044 *     5.5074 *  0.0000     2          
   275  Cl    s      2.2030 *    -1.1015 *     7.7103 *  0.0000     2          
   276  Cl    s      2.2030 *    -5.5074 *    -5.5074 *  0.0000     2          
   277  Cl    s      6.6089 *     3.3044 *     3.3044 *  0.0000     2          
   278  Cl    s      2.2030 *     7.7103 *    -1.1015 *  0.0000     2          
   279  O     s      0.0000      -3.3044 *    -7.7103 *  0.0000     1          
   280  O     s      0.0000      -7.7103 *    -3.3044 *  0.0000     1          
   281  Cl    s      2.2030 *     3.3044 *     7.7103 *  0.0000     2          
   282  Cl    s      6.6089 *    -1.1015 *    -5.5074 *  0.0000     2          
   283  Cl    s      2.2030 *     7.7103 *     3.3044 *  0.0000     2          
   284  Cl    s      6.6089 *    -5.5074 *    -1.1015 *  0.0000     2          
   285  O     s      4.4059 *     1.1015 *    -7.7103 *  0.0000     2          
   286  O     s      4.4059 *     5.5074 *     5.5074 *  0.0000     2          
   287  O     s      4.4059 *    -7.7103 *     1.1015 *  0.0000     2          
   288  O     s      8.8118 *     1.1015 *     1.1015 *  0.0000     2          
   289  Cl    s      6.6089 *     3.3044 *    -5.5074 *  0.0000     2          
   290  Cl    s      6.6089 *    -5.5074 *     3.3044 *  0.0000     2          
   291  O     s      0.0000       5.5074 *    -7.7103 *  0.0000     1          
   292  O     s      0.0000      -7.7103 *     5.5074 *  0.0000     1          
   293  O     s      4.4059 *    -3.3044 *    -7.7103 *  0.0000     2          
   294  O     s      4.4059 *    -7.7103 *    -3.3044 *  0.0000     2          
   295  O     s      8.8118 *     1.1015 *    -3.3044 *  0.0000     2          
   296  O     s      8.8118 *    -3.3044 *     1.1015 *  0.0000     2          
   297  Cl    s      2.2030 *     7.7103 *    -5.5074 *  0.0000     2          
   298  Cl    s      2.2030 *    -5.5074 *     7.7103 *  0.0000     2          
   299  O     s      0.0000       1.1015 *     9.9133 *  0.0000     1          
   300  O     s      0.0000       9.9133 *     1.1015 *  0.0000     1          
   301  O     s      8.8118 *    -3.3044 *    -3.3044 *  0.0000     2          
   302  Cl    s      2.2030 *    -1.1015 *    -9.9133 *  0.0000     2          
   303  Cl    s      6.6089 *    -1.1015 *     7.7103 *  0.0000     2          
   304  Cl    s      6.6089 *     7.7103 *    -1.1015 *  0.0000     2          
   305  Cl    s      6.6089 *    -5.5074 *    -5.5074 *  0.0000     2          
   306  Cl    s      2.2030 *    -9.9133 *    -1.1015 *  0.0000     2          
   307  O     s      0.0000       9.9133 *    -3.3044 *  0.0000     1          
   308  O     s      0.0000      -3.3044 *     9.9133 *  0.0000     1          
   309  O     s      4.4059 *     5.5074 *    -7.7103 *  0.0000     2          
   310  O     s      4.4059 *    -7.7103 *     5.5074 *  0.0000     2          
   311  O     s      8.8118 *     1.1015 *     5.5074 *  0.0000     2          
   312  O     s      8.8118 *     5.5074 *     1.1015 *  0.0000     2          
   313  Cl    s      6.6089 *     7.7103 *     3.3044 *  0.0000     2          
   314  Cl    s      2.2030 *     3.3044 *    -9.9133 *  0.0000     2          
   315  Cl    s      2.2030 *    -9.9133 *     3.3044 *  0.0000     2          
   316  Cl    s      6.6089 *     3.3044 *     7.7103 *  0.0000     2          
   317  O     s      0.0000      -7.7103 *    -7.7103 *  0.0000     1          
   318  O     s      4.4059 *     1.1015 *     9.9133 *  0.0000     2          
   319  O     s      4.4059 *     9.9133 *     1.1015 *  0.0000     2          
   320  O     s      8.8118 *     5.5074 *    -3.3044 *  0.0000     2          
   321  O     s      8.8118 *    -3.3044 *     5.5074 *  0.0000     2          
   322  Cl    s      2.2030 *     7.7103 *     7.7103 *  0.0000     2          
   323  Cl    s     11.0148 *    -1.1015 *    -1.1015 *  0.0000     2          
   324  O     s      4.4059 *     9.9133 *    -3.3044 *  0.0000     2          
   325  O     s      0.0000       5.5074 *     9.9133 *  0.0000     1          
   326  O     s      0.0000       9.9133 *     5.5074 *  0.0000     1          
   327  O     s      4.4059 *    -3.3044 *     9.9133 *  0.0000     2          
   328  Cl    s      2.2030 *    -5.5074 *    -9.9133 *  0.0000     2          
   329  Cl    s      2.2030 *    -9.9133 *    -5.5074 *  0.0000     2          
   330  Cl    s      6.6089 *     7.7103 *    -5.5074 *  0.0000     2          
   331  Cl    s      6.6089 *    -5.5074 *     7.7103 *  0.0000     2          
   332  Cl    s     11.0148 *    -1.1015 *     3.3044 *  0.0000     2          
   333  Cl    s     11.0148 *     3.3044 *    -1.1015 *  0.0000     2          
   334  O     s      4.4059 *    -7.7103 *    -7.7103 *  0.0000     2          
   335  O     s      8.8118 *     1.1015 *    -7.7103 *  0.0000     2          
   336  O     s      8.8118 *     5.5074 *     5.5074 *  0.0000     2          
   337  O     s      8.8118 *    -7.7103 *     1.1015 *  0.0000     2          
   338  Cl    s     11.0148 *     3.3044 *     3.3044 *  0.0000     2          
   339  Cl    s      6.6089 *    -1.1015 *    -9.9133 *  0.0000     2          
   340  Cl    s      6.6089 *    -9.9133 *    -1.1015 *  0.0000     2          
--------------------------------------------------------------------------------

  Components of defect energy : 

--------------------------------------------------------------------------------
  Region 1 - region 1                   =      8.32768649 eV
  Region 1 - region 2a (unrelaxed)      =     -0.01844281 eV
  Region 1 - 2a (relaxed - correction)  =     -0.27919375 eV
  Region 1 (Total)                      =      8.03004993 eV
  Region 2a                             =      0.13954563 eV
  Region 2b                             =     -0.40880508 eV
--------------------------------------------------------------------------------
  Total defect energy                   =      7.76079048 eV
--------------------------------------------------------------------------------

  Largest displacement in region 2 =   0.0180 Angstroms


  Number of variables =      931

  Maximum number of calculations  =        1000
  Maximum Hessian update interval =          10
  Maximum step size               =   1.0000000
  Maximum parameter tolerance     =   0.0000100
  Maximum function  tolerance     =   0.0000100
  Maximum gradient  tolerance     =   0.0010000

  Symmetry adapted optimisation

  Symmetry to be used for second derivatives

  Newton-Raphson optimiser to be used

  BFGS hessian update to be used

  Lower half triangular hessian to be used

  Start of defect optimisation :

  Cycle:      0 Defect Energy:   7.760790  Gnorm:     0.018342  CPU:    3.604
  ** Hessian calculated **
  Cycle:      1 Defect Energy:   6.238235  Gnorm:     0.012706  CPU:   10.599
  Cycle:      2 Defect Energy:   4.986716  Gnorm:     0.003841  CPU:   16.031
  Cycle:      3 Defect Energy:   4.922788  Gnorm:     0.002684  CPU:   17.238
  Cycle:      4 Defect Energy:   4.890284  Gnorm:     0.001760  CPU:   18.479
  Cycle:      5 Defect Energy:   4.871295  Gnorm:     0.000992  CPU:   19.680
  Cycle:      6 Defect Energy:   4.865557  Gnorm:     0.000569  CPU:   20.847
  Cycle:      7 Defect Energy:   4.863626  Gnorm:     0.000328  CPU:   22.025
  Cycle:      8 Defect Energy:   4.863204  Gnorm:     0.000225  CPU:   23.214
  Cycle:      9 Defect Energy:   4.863031  Gnorm:     0.000155  CPU:   24.378
  Cycle:     10 Defect Energy:   4.862968  Gnorm:     0.000105  CPU:   25.546
  ** Hessian calculated **
  Cycle:     11 Defect Energy:   4.862953  Gnorm:     0.000074  CPU:   28.640
  Cycle:     12 Defect Energy:   4.862955  Gnorm:     0.000052  CPU:   29.734


  **** Optimisation achieved ****


  Final defect energy  =        4.86296391
  Final defect Gnorm   =        0.00003606

  Components of defect energy : 

--------------------------------------------------------------------------------
  Region 1 - region 1                   =      6.23464637 eV
  Region 1 - region 2a (unrelaxed)      =     -0.85503283 eV
  Region 1 - 2a (relaxed - correction)  =     -0.21824962 eV
  Region 1 (Total)                      =      5.16136392 eV
  Region 2a                             =      0.10913962 eV
  Region 2b                             =     -0.40753964 eV
--------------------------------------------------------------------------------
  Total defect energy                   =      4.86296391 eV
--------------------------------------------------------------------------------

  Largest displacement in region 2 =   0.0180 Angstroms

  Final coordinates of region 1 :

--------------------------------------------------------------------------------
   No.  Atomic        x           y           z          Radius      Charge
        Label       (Angs)      (Angs)      (Angs)       (Angs)       (e) 
--------------------------------------------------------------------------------
     1  Na    c     2.202951    1.894538    0.308413    0.000000    1.000000
     2  O     c     2.202951    2.377679    2.329145    0.000000    0.183000
     3  Cl    c     4.505443    0.003783   -0.058121    0.000000    1.485000
     4  Cl    c    -0.099541    0.003783   -0.058121    0.000000    1.485000
     5  Na    c     4.331014    2.003853    2.317833    0.000000    1.000000
     6  Na    c     0.074889    2.003853    2.317833    0.000000    1.000000
     7  O     c     2.202951    2.181899   -2.097167    0.000000    0.183000
     8  O     c     2.202951   -2.354081    2.223499    0.000000    0.183000
     9  Na    c     2.202951    1.897802    4.390598    0.000000    1.000000
    10  Na    c     2.202951   -2.005533    0.108220    0.000000    1.000000
    11  Na    c     2.202951    0.006936   -2.220875    0.000000    1.000000
    12  Na    c     2.202951    4.462911    2.307928    0.000000    1.000000
    13  Cl    c     4.517588    0.003775    4.534208    0.000000    1.485000
    14  Cl    c    -0.111686    0.003775    4.534208    0.000000    1.485000
    15  Na    c     4.387750    2.200882   -2.081385    0.000000    1.000000
    16  Na    c     0.018152    2.200882   -2.081385    0.000000    1.000000
    17  Cl    c     4.479284    4.494799   -0.023744    0.000000    1.485000
    18  Cl    c    -0.073381    4.494799   -0.023744    0.000000    1.485000
    19  Na    c     4.308099   -1.932243    2.218550    0.000000    1.000000
    20  Na    c     0.097803   -1.932243    2.218550    0.000000    1.000000
    21  O     c     2.202951   -2.188225   -2.156471    0.000000    0.183000
    22  Na    c     2.202951   -1.930532    4.329098    0.000000    1.000000
    23  Na    c     2.202951    4.365441   -1.936158    0.000000    1.000000
    24  O     c     6.585454    2.196776    2.229485    0.000000    0.183000
    25  O     c    -2.179551    2.196776    2.229485    0.000000    0.183000
    26  Na    c     6.565047    2.208245    0.029828    0.000000    1.000000
    27  Na    c    -2.159144    2.208245    0.029828    0.000000    1.000000
    28  Na    c     6.706992    0.004586    2.205969    0.000000    1.000000
    29  Na    c    -2.301090    0.004586    2.205969    0.000000    1.000000
    30  Cl    c     4.486237    4.496540    4.488002    0.000000    1.485000
    31  Cl    c    -0.080335    4.496540    4.488002    0.000000    1.485000
    32  Na    c     4.399390   -2.202605   -2.157388    0.000000    1.000000
    33  Na    c     0.006512   -2.202605   -2.157388    0.000000    1.000000
    34  O     c     2.202951    2.185459    6.616446    0.000000    0.183000
    35  O     c     2.202951    6.669907    2.225544    0.000000    0.183000
    36  O     c     6.604432    2.211425   -2.184355    0.000000    0.183000
    37  O     c    -2.198529    2.211425   -2.184355    0.000000    0.183000
    38  Na    c     2.202951    2.286775   -4.333017    0.000000    1.000000
    39  Na    c     2.202951    6.646761    0.029336    0.000000    1.000000
    40  Na    c     6.607565    2.198968    4.425681    0.000000    1.000000
    41  Na    c    -2.201662    2.198968    4.425681    0.000000    1.000000
    42  Na    c     2.202951   -0.004464    6.781433    0.000000    1.000000
    43  Na    c     2.202951   -4.440232    2.245448    0.000000    1.000000
    44  Na    c     6.584975    0.003045   -2.170026    0.000000    1.000000
    45  Na    c    -2.179072    0.003045   -2.170026    0.000000    1.000000
    46  O     c     6.575933   -2.184297    2.212461    0.000000    0.183000
    47  O     c    -2.170030   -2.184297    2.212461    0.000000    0.183000
    48  Na    c     6.560308   -2.208770    0.014580    0.000000    1.000000
    49  Na    c    -2.154405   -2.208770    0.014580    0.000000    1.000000
    50  Na    c     6.448044    4.393954    2.220214    0.000000    1.000000
    51  Na    c    -2.042142    4.393954    2.220214    0.000000    1.000000
    52  Cl    c     4.403093   -0.002067   -4.411920    0.000000    1.485000
    53  Cl    c     0.002810   -0.002067   -4.411920    0.000000    1.485000
    54  Cl    c     4.466949   -4.483027   -0.065034    0.000000    1.485000
    55  Cl    c    -0.061047   -4.483027   -0.065034    0.000000    1.485000
    56  Na    c     4.406951    2.207729    6.594335    0.000000    1.000000
    57  Na    c    -0.001048    2.207729    6.594335    0.000000    1.000000
    58  Na    c     4.403902    6.654524    2.211400    0.000000    1.000000
    59  Na    c     0.002001    6.654524    2.211400    0.000000    1.000000
    60  O     c     2.202951    6.592069   -2.169876    0.000000    0.183000
    61  O     c     2.202951   -2.186091    6.592012    0.000000    0.183000
    62  Na    c     2.202951    6.699872    4.418979    0.000000    1.000000
    63  Na    c     2.202951   -2.262201   -4.369676    0.000000    1.000000
    64  Na    c     2.202951    4.385423    6.432539    0.000000    1.000000
    65  Na    c     2.202951   -4.387094   -2.049312    0.000000    1.000000
    66  O     c     6.608932   -2.206873   -2.198847    0.000000    0.183000
    67  O     c    -2.203029   -2.206873   -2.198847    0.000000    0.183000
    68  Na    c     6.570752   -2.196571    4.409899    0.000000    1.000000
    69  Na    c    -2.164850   -2.196571    4.409899    0.000000    1.000000
    70  Na    c     6.594271    4.408247   -2.181376    0.000000    1.000000
    71  Na    c    -2.188369    4.408247   -2.181376    0.000000    1.000000
    72  Cl    c     8.831186    0.006104    0.008810    0.000000    1.485000
    73  Cl    c    -4.425284    0.006104    0.008810    0.000000    1.485000
    74  Na    c     8.792588    2.298068    2.210975    0.000000    1.000000
    75  Na    c    -4.386685    2.298068    2.210975    0.000000    1.000000
    76  Cl    c     4.414850    4.406401   -4.414971    0.000000    1.485000
    77  Cl    c    -0.008947    4.406401   -4.414971    0.000000    1.485000
    78  Cl    c     4.471759   -4.486722    4.476953    0.000000    1.485000
    79  Cl    c    -0.065857   -4.486722    4.476953    0.000000    1.485000
    80  Na    c     4.405994    6.576741   -2.179775    0.000000    1.000000
    81  Na    c    -0.000092    6.576741   -2.179775    0.000000    1.000000
    82  Na    c     4.402394   -2.207548    6.577890    0.000000    1.000000
    83  Na    c     0.003508   -2.207548    6.577890    0.000000    1.000000
    84  O     c     6.619731    2.212113    6.629356    0.000000    0.183000
    85  O     c    -2.213828    2.212113    6.629356    0.000000    0.183000
    86  O     c     6.604543    6.611059    2.211038    0.000000    0.183000
    87  O     c    -2.198641    6.611059    2.211038    0.000000    0.183000
    88  Na    c     6.569292    2.204007   -4.382401    0.000000    1.000000
    89  Na    c    -2.163389    2.204007   -4.382401    0.000000    1.000000
    90  Na    c     6.598893    6.585514    0.004954    0.000000    1.000000
    91  Na    c    -2.192991    6.585514    0.004954    0.000000    1.000000
    92  Na    c     6.589278   -0.001132    6.611832    0.000000    1.000000
    93  Na    c    -2.183376   -0.001132    6.611832    0.000000    1.000000
    94  Na    c     6.425578   -4.381896    2.216880    0.000000    1.000000
    95  Na    c    -2.019676   -4.381896    2.216880    0.000000    1.000000
    96  Cl    c     8.837544    0.006342    4.415265    0.000000    1.485000
    97  Cl    c    -4.431642    0.006342    4.415265    0.000000    1.485000
    98  Cl    c     8.834985    4.410354    0.002713    0.000000    1.485000
    99  Cl    c    -4.429083    4.410354    0.002713    0.000000    1.485000
   100  Na    c     8.799562    2.204046   -2.183400    0.000000    1.000000
   101  Na    c    -4.393659    2.204046   -2.183400    0.000000    1.000000
   102  Na    c     8.784178   -2.297464    2.208832    0.000000    1.000000
   103  Na    c    -4.378276   -2.297464    2.208832    0.000000    1.000000
   104  O     c     2.202951    2.205344   -6.576424    0.000000    0.183000
   105  O     c     2.202951    6.608933    6.609420    0.000000    0.183000
   106  O     c     2.202951   -6.652456    2.206457    0.000000    0.183000
   107  Na    c     2.202951    2.309135    8.810838    0.000000    1.000000
   108  Na    c     2.202951    6.492988   -4.371507    0.000000    1.000000
   109  Na    c     2.202951   -6.627869    0.008307    0.000000    1.000000
   110  Na    c     2.202951    0.002386   -6.507719    0.000000    1.000000
   111  Na    c     2.202951    8.847512    2.201294    0.000000    1.000000
   112  Na    c     2.202951   -4.385191    6.432541    0.000000    1.000000
   113  O     c     6.618204    6.617189   -2.207439    0.000000    0.183000
   114  O     c    -2.212302    6.617189   -2.207439    0.000000    0.183000
   115  O     c     6.615541   -2.211249    6.620903    0.000000    0.183000
   116  O     c    -2.209638   -2.211249    6.620903    0.000000    0.183000
   117  Na    c     6.598914    6.590582    4.415406    0.000000    1.000000
   118  Na    c    -2.193012    6.590582    4.415406    0.000000    1.000000
   119  Na    c     6.595606   -2.198839   -4.394289    0.000000    1.000000
   120  Na    c    -2.189703   -2.198839   -4.394289    0.000000    1.000000
   121  Na    c     6.606313    4.411932    6.604418    0.000000    1.000000
   122  Na    c    -2.200410    4.411932    6.604418    0.000000    1.000000
   123  Na    c     6.595122   -4.407966   -2.193725    0.000000    1.000000
   124  Na    c    -2.189219   -4.407966   -2.193725    0.000000    1.000000
   125  Cl    c     4.411923   -0.001130    8.845416    0.000000    1.485000
   126  Cl    c    -0.006021   -0.001130    8.845416    0.000000    1.485000
   127  Cl    c     4.411699   -4.408062   -4.426343    0.000000    1.485000
   128  Cl    c    -0.005797   -4.408062   -4.426343    0.000000    1.485000
   129  Cl    c     8.840530    4.410622    4.419388    0.000000    1.485000
   130  Cl    c    -4.434628    4.410622    4.419388    0.000000    1.485000
   131  Na    c     4.399598    2.191462   -6.572373    0.000000    1.000000
   132  Na    c     0.006304    2.191462   -6.572373    0.000000    1.000000
   133  Na    c     4.410751    6.578283    6.607106    0.000000    1.000000
   134  Na    c    -0.004848    6.578283    6.607106    0.000000    1.000000
   135  Na    c     8.801570   -2.202028   -2.183727    0.000000    1.000000
   136  Na    c    -4.395667   -2.202028   -2.183727    0.000000    1.000000
   137  Cl    c     4.409127    8.841616    0.002070    0.000000    1.485000
   138  Cl    c    -0.003225    8.841616    0.002070    0.000000    1.485000
   139  Na    c     4.399691   -6.651185    2.200060    0.000000    1.000000
   140  Na    c     0.006211   -6.651185    2.200060    0.000000    1.000000
   141  O     c     2.202951   -2.204363   -6.591578    0.000000    0.183000
   142  O     c     2.202951   -6.605247   -2.194046    0.000000    0.183000
   143  Na    c     2.202951   -2.310716    8.799147    0.000000    1.000000
   144  Na    c     2.202951   -6.662457    4.403373    0.000000    1.000000
   145  Na    c     2.202951    4.397416   -6.624282    0.000000    1.000000
   146  Na    c     2.202951    8.796555   -2.223344    0.000000    1.000000
   147  Cl    c     4.413414    4.414060    8.840007    0.000000    1.485000
   148  Cl    c    -0.007512    4.414060    8.840007    0.000000    1.485000
   149  Cl    c     8.822313    0.003292   -4.415129    0.000000    1.485000
   150  Cl    c    -4.416411    0.003292   -4.415129    0.000000    1.485000
   151  Na    c     4.402807   -2.194865   -6.584488    0.000000    1.000000
   152  Na    c     0.003095   -2.194865   -6.584488    0.000000    1.000000
   153  Na    c     8.812462    2.199286    6.619665    0.000000    1.000000
   154  Na    c    -4.406559    2.199286    6.619665    0.000000    1.000000
   155  Cl    c     4.407733    8.844739    4.414738    0.000000    1.485000
   156  Cl    c    -0.001830    8.844739    4.414738    0.000000    1.485000
   157  Cl    c     8.833571   -4.407382   -0.002850    0.000000    1.485000
   158  Cl    c    -4.427669   -4.407382   -0.002850    0.000000    1.485000
   159  Na    c     4.408089   -6.585062   -2.186930    0.000000    1.000000
   160  Na    c    -0.002187   -6.585062   -2.186930    0.000000    1.000000
   161  Na    c     8.800904    6.532361    2.208224    0.000000    1.000000
   162  Na    c    -4.395002    6.532361    2.208224    0.000000    1.000000
   163  O     c     6.604515    2.201063   -6.599125    0.000000    0.183000
   164  O     c    -2.198612    2.201063   -6.599125    0.000000    0.183000
   165  O     c     6.622848    6.619717    6.623821    0.000000    0.183000
   166  O     c    -2.216945    6.619717    6.623821    0.000000    0.183000
   167  Na    c     6.598240    2.204454    8.816784    0.000000    1.000000
   168  Na    c    -2.192337    2.204454    8.816784    0.000000    1.000000
   169  Na    c     6.603065    6.598637   -4.401419    0.000000    1.000000
   170  Na    c    -2.197163    6.598637   -4.401419    0.000000    1.000000
   171  Na    c     6.612361    0.001028   -6.587848    0.000000    1.000000
   172  Na    c    -2.206458    0.001028   -6.587848    0.000000    1.000000
   173  Na    c     6.599592   -4.409986    6.593017    0.000000    1.000000
   174  Na    c    -2.193690   -4.409986    6.593017    0.000000    1.000000
   175  O     c     6.597989   -6.602118    2.203709    0.000000    0.183000
   176  O     c    -2.192087   -6.602118    2.203709    0.000000    0.183000
   177  O     c    11.007084    2.207255    2.206775    0.000000    0.183000
   178  O     c    -6.601181    2.207255    2.206775    0.000000    0.183000
   179  Na    c     6.603526   -6.574000    0.000411    0.000000    1.000000
   180  Na    c    -2.197623   -6.574000    0.000411    0.000000    1.000000
   181  Na    c    10.993014    2.188098    0.005606    0.000000    1.000000
   182  Na    c    -6.587111    2.188098    0.005606    0.000000    1.000000
   183  Na    c     6.639110    8.807151    2.203254    0.000000    1.000000
   184  Na    c    -2.233208    8.807151    2.203254    0.000000    1.000000
   185  Na    c    10.921113   -0.000142    2.211054    0.000000    1.000000
   186  Na    c    -6.515211   -0.000142    2.211054    0.000000    1.000000
   187  Cl    c     8.825294    4.415839   -4.414053    0.000000    1.485000
   188  Cl    c    -4.419392    4.415839   -4.414053    0.000000    1.485000
   189  Cl    c     8.835764   -4.403893    4.414499    0.000000    1.485000
   190  Cl    c    -4.429862   -4.403893    4.414499    0.000000    1.485000
   191  Na    c     8.811637    6.608846   -2.196887    0.000000    1.000000
   192  Na    c    -4.405734    6.608846   -2.196887    0.000000    1.000000
   193  Na    c     8.808062   -2.198436    6.606240    0.000000    1.000000
   194  Na    c    -4.402160   -2.198436    6.606240    0.000000    1.000000
   195  O     c     2.202951    6.596784   -6.595138    0.000000    0.183000
   196  O     c     2.202951   -6.604373    6.598054    0.000000    0.183000
   197  O     c     6.607559   -2.200747   -6.604921    0.000000    0.183000
   198  O     c    -2.201657   -2.200747   -6.604921    0.000000    0.183000
   199  Na    c     2.202951    6.535443    8.804246    0.000000    1.000000
   200  Na    c     2.202951   -6.554333   -4.392997    0.000000    1.000000
   201  Na    c     6.598495   -2.215180    8.813448    0.000000    1.000000
   202  Na    c    -2.192593   -2.215180    8.813448    0.000000    1.000000
   203  Na    c     2.202951    8.808190    6.659470    0.000000    1.000000
   204  Na    c     2.202951   -4.403201   -6.621818    0.000000    1.000000
   205  Na    c     6.594731    4.402734   -6.599916    0.000000    1.000000
   206  Na    c    -2.188828    4.402734   -6.599916    0.000000    1.000000
   207  O     c     6.618331   -6.615323   -2.211501    0.000000    0.183000
   208  O     c    -2.212429   -6.615323   -2.211501    0.000000    0.183000
   209  O     c    11.011066    2.203172   -2.198580    0.000000    0.183000
   210  O     c    -6.605164    2.203172   -2.198580    0.000000    0.183000
   211  O     c    11.001435   -2.205113    2.205862    0.000000    0.183000
   212  O     c    -6.595532   -2.205113    2.205862    0.000000    0.183000
   213  Na    c     6.592139   -6.593064    4.409430    0.000000    1.000000
   214  Na    c    -2.186236   -6.593064    4.409430    0.000000    1.000000
   215  Na    c    10.998090    2.197435    4.408377    0.000000    1.000000
   216  Na    c    -6.592187    2.197435    4.408377    0.000000    1.000000
   217  Na    c    10.992527   -2.193307    0.005447    0.000000    1.000000
   218  Na    c    -6.586625   -2.193307    0.005447    0.000000    1.000000
   219  Na    c     6.603330    8.811143   -2.200506    0.000000    1.000000
   220  Na    c    -2.197428    8.811143   -2.200506    0.000000    1.000000
   221  Na    c    10.997713    0.001362   -2.210722    0.000000    1.000000
   222  Na    c    -6.591811    0.001362   -2.210722    0.000000    1.000000
   223  Na    c    11.050733    4.403563    2.201670    0.000000    1.000000
   224  Na    c    -6.644831    4.403563    2.201670    0.000000    1.000000
   225  Cl    c     4.410402    8.823896   -4.408121    0.000000    1.485000
   226  Cl    c    -0.004499    8.823896   -4.408121    0.000000    1.485000
   227  Cl    c     4.411908   -4.404564    8.838002    0.000000    1.485000
   228  Cl    c    -0.006006   -4.404564    8.838002    0.000000    1.485000
   229  Na    c     4.402737    6.605590   -6.591342    0.000000    1.000000
   230  Na    c     0.003166    6.605590   -6.591342    0.000000    1.000000
   231  Na    c     4.407715   -6.586172    6.601882    0.000000    1.000000
   232  Na    c    -0.001812   -6.586172    6.601882    0.000000    1.000000
   233  O     c     2.202951    2.212028   11.017163    0.000000    0.183000
   234  O     c     2.202951   11.029891    2.203348    0.000000    0.183000
   235  O     c    11.009854   -2.199625   -2.199788    0.000000    0.183000
   236  O     c    -6.603951   -2.199625   -2.199788    0.000000    0.183000
   237  Na    c     2.202951    2.172269   -8.794620    0.000000    1.000000
   238  Na    c     2.202951   11.011473   -0.003975    0.000000    1.000000
   239  Na    c    10.998053   -2.201034    4.406924    0.000000    1.000000
   240  Na    c    -6.592150   -2.201034    4.406924    0.000000    1.000000
   241  Na    c     2.202951   -0.002370   10.958906    0.000000    1.000000
   242  Na    c     2.202951   -8.833352    2.197562    0.000000    1.000000
   243  Na    c    11.006382    4.405179   -2.187754    0.000000    1.000000
   244  Na    c    -6.600480    4.405179   -2.187754    0.000000    1.000000
   245  Cl    c     4.405851    0.001810   -8.825482    0.000000    1.485000
   246  Cl    c     0.000051    0.001810   -8.825482    0.000000    1.485000
   247  Cl    c     8.826598    0.004635    8.826592    0.000000    1.485000
   248  Cl    c    -4.420696    0.004635    8.826592    0.000000    1.485000
   249  Cl    c     8.821173    8.825260   -0.001787    0.000000    1.485000
   250  Cl    c    -4.415270    8.825260   -0.001787    0.000000    1.485000
   251  Cl    c     8.823462   -4.410803   -4.420403    0.000000    1.485000
   252  Cl    c    -4.417559   -4.410803   -4.420403    0.000000    1.485000
   253  Na    c     4.403849    2.185970   11.011025    0.000000    1.000000
   254  Na    c     0.002053    2.185970   11.011025    0.000000    1.000000
   255  Na    c     8.806368    2.212073   -6.588554    0.000000    1.000000
   256  Na    c    -4.400466    2.212073   -6.588554    0.000000    1.000000
   257  Na    c     8.816047    6.612803    6.612128    0.000000    1.000000
   258  Na    c    -4.410145    6.612803    6.612128    0.000000    1.000000
   259  Na    c     8.798520   -6.542521    2.218819    0.000000    1.000000
   260  Na    c    -4.392617   -6.542521    2.218819    0.000000    1.000000
   261  Cl    c     4.409502   -8.837405   -0.003551    0.000000    1.485000
   262  Cl    c    -0.003600   -8.837405   -0.003551    0.000000    1.485000
   263  Na    c     4.409856   11.012026    2.202645    0.000000    1.000000
   264  Na    c    -0.003954   11.012026    2.202645    0.000000    1.000000
   265  O     c     2.202951   11.013703   -2.207501    0.000000    0.183000
   266  O     c     2.202951   -2.213576   11.011529    0.000000    0.183000
   267  O     c     6.607745    6.608871   -6.607630    0.000000    0.183000
   268  O     c    -2.201843    6.608871   -6.607630    0.000000    0.183000
   269  O     c     6.618881   -6.616319    6.619123    0.000000    0.183000
   270  O     c    -2.212979   -6.616319    6.619123    0.000000    0.183000
   271  O     c    11.019289    2.203589    6.611668    0.000000    0.183000
   272  O     c    -6.613387    2.203589    6.611668    0.000000    0.183000
[...]
    260 y          6.608853      6.592094    -0.016759    Cartesian   -0.25
    260 z         -2.202951     -2.169847     0.033104    Cartesian   -1.50
    261 x          2.202951      2.202951     0.000000    Cartesian    0.00
    261 y         -2.202951     -2.186067     0.016884    Cartesian   -0.77
    261 z          6.608853      6.592084    -0.016769    Cartesian   -0.25
    262 x          6.608853      6.608935     0.000081    Cartesian    0.00
    262 y         -2.202951     -2.206881    -0.003930    Cartesian    0.18
    262 z         -2.202951     -2.198852     0.004099    Cartesian   -0.19
    263 x          8.811805      8.835486     0.023681    Cartesian    0.27
    263 y          0.000000      0.006854     0.006854    Cartesian    0.00
    263 z          0.000000      0.009549     0.009549    Cartesian    0.00
    264 x          4.405902      4.416659     0.010757    Cartesian    0.24
    264 y          4.405902      4.408233     0.002331    Cartesian    0.05
    264 z         -4.405902     -4.420816    -0.014914    Cartesian    0.34
    265 x          4.405902      4.483470     0.077567    Cartesian    1.76
    265 y         -4.405902     -4.499095    -0.093193    Cartesian    2.12
    265 z          4.405902      4.488352     0.082449    Cartesian    1.87
    266 x          6.608853      6.619740     0.010887    Cartesian    0.16
    266 y          2.202951      2.212122     0.009170    Cartesian    0.42
    266 z          6.608853      6.629360     0.020506    Cartesian    0.31
    267 x          6.608853      6.604525    -0.004328    Cartesian   -0.07
    267 y          6.608853      6.611075     0.002222    Cartesian    0.03
    267 z          2.202951      2.211040     0.008088    Cartesian    0.37
    268 x          8.811805      8.841788     0.029983    Cartesian    0.34
    268 y          0.000000      0.007412     0.007412    Cartesian    0.00
    268 z          4.405902      4.414923     0.009021    Cartesian    0.20
    269 x          8.811805      8.839650     0.027845    Cartesian    0.32
    269 y          4.405902      4.411092     0.005190    Cartesian    0.12
    269 z          0.000000      0.002351     0.002351    Cartesian    0.00
    270 x          2.202951      2.202951     0.000000    Cartesian    0.00
    270 y          2.202951      2.205359     0.002408    Cartesian    0.11
    270 z         -6.608853     -6.576448     0.032406    Cartesian   -0.49
    271 x          2.202951      2.202951     0.000000    Cartesian    0.00
    271 y          6.608853      6.608961     0.000108    Cartesian    0.00
    271 z          6.608853      6.609395     0.000542    Cartesian    0.01
    272 x          2.202951      2.202951     0.000000    Cartesian    0.00
    272 y         -6.608853     -6.652491    -0.043637    Cartesian    0.66
    272 z          2.202951      2.206461     0.003510    Cartesian    0.16
    273 x          6.608853      6.618214     0.009360    Cartesian    0.14
    273 y          6.608853      6.617190     0.008336    Cartesian    0.13
    273 z         -2.202951     -2.207449    -0.004498    Cartesian    0.20
    274 x          6.608853      6.615547     0.006693    Cartesian    0.10
    274 y         -2.202951     -2.211257    -0.008306    Cartesian    0.38
    274 z          6.608853      6.620908     0.012055    Cartesian    0.18
    275 x          4.405902      4.411849     0.005947    Cartesian    0.13
    275 y          0.000000     -0.000834    -0.000834    Cartesian    0.00
    275 z          8.811805      8.848414     0.036609    Cartesian    0.42
    276 x          4.405902      4.412999     0.007097    Cartesian    0.16
    276 y         -4.405902     -4.408620    -0.002718    Cartesian    0.06
    276 z         -4.405902     -4.431107    -0.025205    Cartesian    0.57
    277 x          8.811805      8.845014     0.033210    Cartesian    0.38
    277 y          4.405902      4.411002     0.005100    Cartesian    0.12
    277 z          4.405902      4.419976     0.014073    Cartesian    0.32
    278 x          4.405902      4.408781     0.002879    Cartesian    0.07
    278 y          8.811805      8.844644     0.032839    Cartesian    0.37
    278 z          0.000000      0.002693     0.002693    Cartesian    0.00
    279 x          2.202951      2.202951     0.000000    Cartesian    0.00
    279 y         -2.202951     -2.204374    -0.001423    Cartesian    0.06
    279 z         -6.608853     -6.591583     0.017271    Cartesian   -0.26
    280 x          2.202951      2.202951     0.000000    Cartesian    0.00
    280 y         -6.608853     -6.605262     0.003592    Cartesian   -0.05
    280 z         -2.202951     -2.194026     0.008925    Cartesian   -0.41
    281 x          4.405902      4.414173     0.008270    Cartesian    0.19
    281 y          4.405902      4.415302     0.009399    Cartesian    0.21
    281 z          8.811805      8.844769     0.032965    Cartesian    0.37
    282 x          8.811805      8.825520     0.013716    Cartesian    0.16
    282 y          0.000000      0.003138     0.003138    Cartesian    0.00
    282 z         -4.405902     -4.418037    -0.012135    Cartesian    0.28
    283 x          4.405902      4.406804     0.000902    Cartesian    0.02
    283 y          8.811805      8.847546     0.035741    Cartesian    0.41
    283 z          4.405902      4.414576     0.008674    Cartesian    0.20
    284 x          8.811805      8.838785     0.026981    Cartesian    0.31
    284 y         -4.405902     -4.407722    -0.001820    Cartesian    0.04
    284 z          0.000000     -0.004018    -0.004018    Cartesian    0.00
    285 x          6.608853      6.604511    -0.004343    Cartesian   -0.07
    285 y          2.202951      2.201061    -0.001890    Cartesian   -0.09
    285 z         -6.608853     -6.599131     0.009723    Cartesian   -0.15
    286 x          6.608853      6.622859     0.014005    Cartesian    0.21
    286 y          6.608853      6.619722     0.010868    Cartesian    0.16
    286 z          6.608853      6.623832     0.014979    Cartesian    0.23
    287 x          6.608853      6.597963    -0.010891    Cartesian   -0.16
    287 y         -6.608853     -6.602138     0.006715    Cartesian   -0.10
    287 z          2.202951      2.203710     0.000759    Cartesian    0.03
    288 x         11.014756     11.007087    -0.007668    Cartesian   -0.07
    288 y          2.202951      2.207273     0.004322    Cartesian    0.20
    288 z          2.202951      2.206775     0.003824    Cartesian    0.17
    289 x          8.811805      8.828279     0.016475    Cartesian    0.19
    289 y          4.405902      4.417773     0.011871    Cartesian    0.27
    289 z         -4.405902     -4.416509    -0.010606    Cartesian    0.24
    290 x          8.811805      8.840870     0.029065    Cartesian    0.33
    290 y         -4.405902     -4.403831     0.002071    Cartesian   -0.05
    290 z          4.405902      4.415420     0.009518    Cartesian    0.22
    291 x          2.202951      2.202951     0.000000    Cartesian    0.00
    291 y          6.608853      6.596768    -0.012085    Cartesian   -0.18
    291 z         -6.608853     -6.595158     0.013695    Cartesian   -0.21
    292 x          2.202951      2.202951     0.000000    Cartesian    0.00
    292 y         -6.608853     -6.604397     0.004456    Cartesian   -0.07
    292 z          6.608853      6.598028    -0.010826    Cartesian   -0.16
    293 x          6.608853      6.607560    -0.001293    Cartesian   -0.02
    293 y         -2.202951     -2.200743     0.002208    Cartesian   -0.10
    293 z         -6.608853     -6.604923     0.003930    Cartesian   -0.06
    294 x          6.608853      6.618341     0.009488    Cartesian    0.14
    294 y         -6.608853     -6.615326    -0.006472    Cartesian    0.10
    294 z         -2.202951     -2.211510    -0.008559    Cartesian    0.39
    295 x         11.014756     11.011072    -0.003684    Cartesian   -0.03
    295 y          2.202951      2.203170     0.000219    Cartesian    0.01
    295 z         -2.202951     -2.198578     0.004373    Cartesian   -0.20
    296 x         11.014756     11.001442    -0.013313    Cartesian   -0.12
    296 y         -2.202951     -2.205128    -0.002177    Cartesian    0.10
    296 z          2.202951      2.205862     0.002911    Cartesian    0.13
    297 x          4.405902      4.411560     0.005657    Cartesian    0.13
    297 y          8.811805      8.827456     0.015651    Cartesian    0.18
    297 z         -4.405902     -4.409777    -0.003875    Cartesian    0.09
    298 x          4.405902      4.412443     0.006541    Cartesian    0.15
    298 y         -4.405902     -4.403930     0.001972    Cartesian   -0.04
    298 z          8.811805      8.842731     0.030926    Cartesian    0.35
    299 x          2.202951      2.202951     0.000000    Cartesian    0.00
    299 y          2.202951      2.212056     0.009105    Cartesian    0.41
    299 z         11.014756     11.017166     0.002410    Cartesian    0.02
    300 x          2.202951      2.202951     0.000000    Cartesian    0.00
    300 y         11.014756     11.029871     0.015115    Cartesian    0.14
    300 z          2.202951      2.203346     0.000395    Cartesian    0.02
    301 x         11.014756     11.009856    -0.004900    Cartesian   -0.04
    301 y         -2.202951     -2.199622     0.003329    Cartesian   -0.15
    301 z         -2.202951     -2.199788     0.003163    Cartesian   -0.14
    302 x          4.405902      4.406310     0.000407    Cartesian    0.01
    302 y          0.000000      0.001897     0.001897    Cartesian    0.00
    302 z         -8.811805     -8.829054    -0.017249    Cartesian    0.20
    303 x          8.811805      8.829005     0.017200    Cartesian    0.20
    303 y          0.000000      0.005927     0.005927    Cartesian    0.00
    303 z          8.811805      8.828458     0.016653    Cartesian    0.19
    304 x          8.811805      8.822785     0.010980    Cartesian    0.12
    304 y          8.811805      8.828092     0.016287    Cartesian    0.18
    304 z          0.000000     -0.002070    -0.002070    Cartesian    0.00
    305 x          8.811805      8.825493     0.013689    Cartesian    0.16
    305 y         -4.405902     -4.411345    -0.005443    Cartesian    0.12
    305 z         -4.405902     -4.422819    -0.016916    Cartesian    0.38
    306 x          4.405902      4.409205     0.003303    Cartesian    0.07
    306 y         -8.811805     -8.839658    -0.027854    Cartesian    0.32
    306 z          0.000000     -0.003340    -0.003340    Cartesian    0.00
    307 x          2.202951      2.202951     0.000000    Cartesian    0.00
    307 y         11.014756     11.013712    -0.001043    Cartesian   -0.01
    307 z         -2.202951     -2.207509    -0.004558    Cartesian    0.21
    308 x          2.202951      2.202951     0.000000    Cartesian    0.00
    308 y         -2.202951     -2.213604    -0.010652    Cartesian    0.48
    308 z         11.014756     11.011530    -0.003225    Cartesian   -0.03
    309 x          6.608853      6.607747    -0.001106    Cartesian   -0.02
    309 y          6.608853      6.608875     0.000022    Cartesian    0.00
    309 z         -6.608853     -6.607624     0.001230    Cartesian   -0.02
    310 x          6.608853      6.618892     0.010038    Cartesian    0.15
    310 y         -6.608853     -6.616318    -0.007465    Cartesian    0.11
    310 z          6.608853      6.619132     0.010279    Cartesian    0.16
    311 x         11.014756     11.019289     0.004533    Cartesian    0.04
    311 y          2.202951      2.203587     0.000636    Cartesian    0.03
    311 z          6.608853      6.611672     0.002819    Cartesian    0.04
    312 x         11.014756     11.015819     0.001063    Cartesian    0.01
    312 y          6.608853      6.602224    -0.006629    Cartesian   -0.10
    312 z          2.202951      2.204794     0.001843    Cartesian    0.08
    313 x          8.811805      8.827654     0.015849    Cartesian    0.18
    313 y          8.811805      8.830080     0.018276    Cartesian    0.21
    313 z          4.405902      4.410345     0.004443    Cartesian    0.10
    314 x          4.405902      4.406163     0.000261    Cartesian    0.01
    314 y          4.405902      4.409339     0.003437    Cartesian    0.08
    314 z         -8.811805     -8.825596    -0.013791    Cartesian    0.16
    315 x          4.405902      4.408109     0.002207    Cartesian    0.05
    315 y         -8.811805     -8.842205    -0.030400    Cartesian    0.34
    315 z          4.405902      4.407112     0.001209    Cartesian    0.03
    316 x          8.811805      8.833504     0.021700    Cartesian    0.25
    316 y          4.405902      4.414418     0.008516    Cartesian    0.19
    316 z          8.811805      8.829929     0.018124    Cartesian    0.21
    317 x          2.202951      2.202951     0.000000    Cartesian    0.00
    317 y         -6.608853     -6.606835     0.002019    Cartesian   -0.03
    317 z         -6.608853     -6.610331    -0.001478    Cartesian    0.02
    318 x          6.608853      6.609793     0.000939    Cartesian    0.01
    318 y          2.202951      2.202013    -0.000938    Cartesian   -0.04
    318 z         11.014756     11.020237     0.005481    Cartesian    0.05
    319 x          6.608853      6.614696     0.005843    Cartesian    0.09
    319 y         11.014756     11.017251     0.002496    Cartesian    0.02
    319 z          2.202951      2.202919    -0.000032    Cartesian   -0.00
    320 x         11.014756     11.017063     0.002307    Cartesian    0.02
    320 y          6.608853      6.611775     0.002921    Cartesian    0.04
    320 z         -2.202951     -2.201763     0.001188    Cartesian   -0.05
    321 x         11.014756     11.017745     0.002989    Cartesian    0.03
    321 y         -2.202951     -2.200958     0.001994    Cartesian   -0.09
    321 z          6.608853      6.612009     0.003156    Cartesian    0.05
    322 x          4.405902      4.411235     0.005333    Cartesian    0.12
    322 y          8.811805      8.831469     0.019665    Cartesian    0.22
    322 z          8.811805      8.826894     0.015089    Cartesian    0.17
    323 x         13.217707     13.242366     0.024659    Cartesian    0.19
    323 y          0.000000      0.000308     0.000308    Cartesian    0.00
    323 z          0.000000     -0.001195    -0.001195    Cartesian    0.00
    324 x          6.608853      6.611556     0.002702    Cartesian    0.04
    324 y         11.014756     11.020404     0.005648    Cartesian    0.05
    324 z         -2.202951     -2.205587    -0.002635    Cartesian    0.12
    325 x          2.202951      2.202951     0.000000    Cartesian    0.00
    325 y          6.608853      6.607550    -0.001304    Cartesian   -0.02
    325 z         11.014756     11.019818     0.005062    Cartesian    0.05
    326 x          2.202951      2.202951     0.000000    Cartesian    0.00
    326 y         11.014756     11.017454     0.002699    Cartesian    0.02
    326 z          6.608853      6.616648     0.007795    Cartesian    0.12
    327 x          6.608853      6.613396     0.004543    Cartesian    0.07
    327 y         -2.202951     -2.204878    -0.001927    Cartesian    0.09
    327 z         11.014756     11.022107     0.007352    Cartesian    0.07
    328 x          4.405902      4.409548     0.003645    Cartesian    0.08
    328 y         -4.405902     -4.412723    -0.006821    Cartesian    0.15
    328 z         -8.811805     -8.830723    -0.018919    Cartesian    0.21
    329 x          4.405902      4.412717     0.006815    Cartesian    0.15
    329 y         -8.811805     -8.832696    -0.020891    Cartesian    0.24
    329 z         -4.405902     -4.422083    -0.016181    Cartesian    0.37
    330 x          8.811805      8.826013     0.014208    Cartesian    0.16
    330 y          8.811805      8.829622     0.017818    Cartesian    0.20
    330 z         -4.405902     -4.419187    -0.013285    Cartesian    0.30
    331 x          8.811805      8.832368     0.020564    Cartesian    0.23
    331 y         -4.405902     -4.414690    -0.008788    Cartesian    0.20
    331 z          8.811805      8.834412     0.022608    Cartesian    0.26
    332 x         13.217707     13.245322     0.027615    Cartesian    0.21
    332 y          0.000000     -0.000286    -0.000286    Cartesian    0.00
    332 z          4.405902      4.408366     0.002464    Cartesian    0.06
    333 x         13.217707     13.238011     0.020304    Cartesian    0.15
    333 y          4.405902      4.412724     0.006822    Cartesian    0.15
    333 z          0.000000     -0.001517    -0.001517    Cartesian    0.00
    334 x          6.608853      6.611742     0.002889    Cartesian    0.04
    334 y         -6.608853     -6.613893    -0.005040    Cartesian    0.08
    334 z         -6.608853     -6.613882    -0.005029    Cartesian    0.08
    335 x         11.014756     11.017889     0.003133    Cartesian    0.03
    335 y          2.202951      2.206548     0.003597    Cartesian    0.16
    335 z         -6.608853     -6.610937    -0.002084    Cartesian    0.03
    336 x         11.014756     11.021672     0.006916    Cartesian    0.06
    336 y          6.608853      6.614385     0.005532    Cartesian    0.08
    336 z          6.608853      6.612999     0.004145    Cartesian    0.06
    337 x         11.014756     11.019781     0.005025    Cartesian    0.05
    337 y         -6.608853     -6.608099     0.000754    Cartesian   -0.01
    337 z          2.202951      2.205810     0.002859    Cartesian    0.13
    338 x         13.217707     13.240485     0.022778    Cartesian    0.17
    338 y          4.405902      4.415188     0.009285    Cartesian    0.21
    338 z          4.405902      4.410481     0.004579    Cartesian    0.10
    339 x          8.811805      8.821625     0.009820    Cartesian    0.11
    339 y          0.000000     -0.001032    -0.001032    Cartesian    0.00
    339 z         -8.811805     -8.832563    -0.020758    Cartesian    0.24
    340 x          8.811805      8.829087     0.017282    Cartesian    0.20
    340 y         -8.811805     -8.837266    -0.025461    Cartesian    0.29
    340 z          0.000000     -0.005518    -0.005518    Cartesian    0.00
--------------------------------------------------------------------------------


  Time to end of optimisation  =       30.6194 seconds


  Peak dynamic memory used =     107.81 MB 


  Timing analysis for GULP :

--------------------------------------------------------------------------------
  Task / Subroutine                                          Time (Seconds)
--------------------------------------------------------------------------------
  Calculation of reciprocal space energy and derivatives          0.0007
  Calculation of reciprocal space energy using symmetry           0.0014
  Calculation of real space energy and derivatives                0.0044
  Calculation of real space energy using symmetry                 0.0134
  Calculation for region 1 energy and derivatives (2-b)          16.4834
  Calculation for region 2a energy                               12.7859
  Calculation for region 2b energy                                0.0043
  Calculation and manipulation of Hessian matrix                  0.0956
  Calculation of matrix inversion                                 1.0393
  Symmetry generation of equivalent positions                     0.0051
--------------------------------------------------------------------------------
  Total CPU time                                                 30.6196
--------------------------------------------------------------------------------


  Dump file written as Na3OCl.grs


  Job Finished at 15:20.07  2nd January    2021                               

