********************************************************************************
*                       GENERAL UTILITY LATTICE PROGRAM                        *
*                                 Julian Gale                                  *
*                       Curtin Institute for Computation                       *
*                    School of Molecular and Life Sciences                     *
*                    Curtin University, Western Australia                      *
********************************************************************************
* Version = 5.2.0 * Last modified =  10th September 2020                       *
********************************************************************************
*  optimise     - perform optimisation run                                     *
*  conp         - constant pressure calculation                                *
*  property     - calculate properties for final geometry                      *
*  defect       - perform defect calculation after bulk run                    *
*  compare      - compare initial and final structures                         *
********************************************************************************

  Job Started  at 15:19.44  2nd January    2021                               

  Number of CPUs =     1


  Total number of configurations input =      1

********************************************************************************
*  Input for Configuration =   1                                               *
********************************************************************************

  Formula = ClONa3                                                      

  Number of irreducible atoms/shells =       5


  Total number atoms/shells =       7

  Dimensionality = 3               :  Bulk   


  Symmetry :

  Crystal family                   :  Cubic       
  Crystal class  (Groth - 1921)    :  Cubic Hexakisoctahedral              

  Space group (centrosymmetric)    :  P M 3 M         

  Patterson group                  :  P m -3 m 

  Cartesian lattice vectors (Angstroms) :

        4.504000    0.000000    0.000000
        0.000000    4.504000    0.000000
        0.000000    0.000000    4.504000

  Cell parameters (Angstroms/Degrees):

  a =       4.5040    alpha =  90.0000
  b =       4.5040    beta  =  90.0000
  c =       4.5040    gamma =  90.0000

  Initial cell volume =          91.368216 Angs**3

  Temperature of configuration =   0.00     K 

  Pressure of configuration =         0.000 GPa 

  Fractional coordinates of asymmetric unit :

--------------------------------------------------------------------------------
   No.  Atomic       x           y          z         Charge      Occupancy
        Label      (Frac)      (Frac)     (Frac)        (e)         (Frac)  
--------------------------------------------------------------------------------
      1 Cl    c    0.000000    0.000000    0.000000     1.48500    1.000000    
      2 O     c    0.500000    0.500000    0.500000     0.18300    1.000000    
      3 Na    c    0.500000    0.500000    0.000000     1.00000    1.000000    
      4 Cl    s    0.000000    0.000000    0.000000    -2.48500    1.000000    
      5 O     s    0.500000    0.500000    0.500000    -2.18300    1.000000    
--------------------------------------------------------------------------------


  Constraints : 

--------------------------------------------------------------------------------
  Constraint no.      Unconstrained     Constrained    Coefficient    Offset
                         Variable         Variable
--------------------------------------------------------------------------------
           1              Strain 1        Strain 2       1.00000      0.0000
           2              Strain 1        Strain 3       1.00000      0.0000
--------------------------------------------------------------------------------


********************************************************************************
*  General input information                                                   *
********************************************************************************

  Species output for all configurations : 

--------------------------------------------------------------------------------
  Species    Type    Atomic    Atomic    Charge       Radii (Angs)     Library
                     Number     Mass       (e)     Cova   Ionic  VDW   Symbol
--------------------------------------------------------------------------------
    Na       Core       11      22.99   1.000000   0.970  0.000  2.300          
    O        Core        8      16.00   0.183000   0.730  0.000  1.360          
    O        Shell       8       0.00  -2.183000   0.730  0.000  1.360          
    Cl       Core       17      35.45   1.485000   0.990  0.000  1.650          
    Cl       Shell      17       0.00  -2.485000   0.990  0.000  1.650          
    Mg       Core       12      24.31   0.415000   1.100  0.000  0.000          
    Mg       Shell      12       0.00   1.585000   1.100  0.000  0.000          
    Ca       Core       20      40.08  -1.135000   0.990  0.000  0.000          
    Ca       Shell      20       0.00   3.135000   0.990  0.000  0.000          
    Sr       Core       38      87.62  -1.251000   1.120  0.000  0.000          
    Sr       Shell      38       0.00   3.251000   1.120  0.000  0.000          
    Ba       Core       56     137.33  -7.203000   1.340  0.000  0.000          
    Ba       Shell      56       0.00   9.203000   1.340  0.000  0.000          
--------------------------------------------------------------------------------


  Lattice summation method               =    Ewald          (3-D)
                                         =    Parry          (2-D)
                                         =    Saunders et al (1-D)
  Accuracy factor for lattice sums       =   12.000


  Analytic derivatives to be used

  Time limit = Infinity

  Maximum range for interatomic potentials =    100000.000000 Angstroms

  General interatomic potentials :

--------------------------------------------------------------------------------
Atom  Types   Potential      Parameter       Value         Units   Cutoffs(Ang)
  1     2                                                            Min /  Max 
--------------------------------------------------------------------------------
O    c O    s Spring (c-s)  Spring k 2       593.71600    eV*Ang^-2 0.000  0.800
                            Spring k 4       0.0000000    eV*Ang^-4 
--------------------------------------------------------------------------------
Cl   c Cl   s Spring (c-s)  Spring k 2       29.380000    eV*Ang^-2 0.000  0.800
                            Spring k 4       0.0000000    eV*Ang^-4 
--------------------------------------------------------------------------------
Mg   c Mg   s Spring (c-s)  Spring k 2       361.60000    eV*Ang^-2 0.000  0.800
                            Spring k 4       0.0000000    eV*Ang^-4 
--------------------------------------------------------------------------------
Ca   c Ca   s Spring (c-s)  Spring k 2       110.20000    eV*Ang^-2 0.000  0.800
                            Spring k 4       0.0000000    eV*Ang^-4 
--------------------------------------------------------------------------------
Sr   c Sr   s Spring (c-s)  Spring k 2       71.700000    eV*Ang^-2 0.000  0.800
                            Spring k 4       0.0000000    eV*Ang^-4 
--------------------------------------------------------------------------------
Ba   c Ba   s Spring (c-s)  Spring k 2       495.20000    eV*Ang^-2 0.000  0.800
                            Spring k 4       0.0000000    eV*Ang^-4 
--------------------------------------------------------------------------------
Na   c Na   c Buckingham    Buckingham A     1788.1900    eV        0.000 12.000
                            Buckingham rho  0.15900000    Ang       
                            Buckingham C     0.0000000    eV*Ang^6  
--------------------------------------------------------------------------------
Na   c O    s Buckingham    Buckingham A     588.38000    eV        0.000 12.000
                            Buckingham rho  0.33800000    Ang       
                            Buckingham C     0.0000000    eV*Ang^6  
--------------------------------------------------------------------------------
Na   c Cl   s Buckingham    Buckingham A     1170.4100    eV        0.000 12.000
                            Buckingham rho  0.31500000    Ang       
                            Buckingham C     0.0000000    eV*Ang^6  
--------------------------------------------------------------------------------
O    s O    s Buckingham    Buckingham A     22764.300    eV        0.000 12.000
                            Buckingham rho  0.14900000    Ang       
                            Buckingham C     13.190000    eV*Ang^6  
--------------------------------------------------------------------------------
O    s Cl   s Buckingham    Buckingham A     8286.9100    eV        0.000 12.000
                            Buckingham rho  0.25900000    Ang       
                            Buckingham C     62.200000    eV*Ang^6  
--------------------------------------------------------------------------------
Cl   s Cl   s Buckingham    Buckingham A     1227.2000    eV        0.000 12.000
                            Buckingham rho  0.32100000    Ang       
                            Buckingham C     14.530000    eV*Ang^6  
--------------------------------------------------------------------------------
O    s Mg   s Buckingham    Buckingham A     1428.5000    eV        0.000 12.000
                            Buckingham rho  0.29450000    Ang       
                            Buckingham C     0.0000000    eV*Ang^6  
--------------------------------------------------------------------------------
Mg   s Cl   s Buckingham    Buckingham A     4914.5400    eV        0.000 12.000
                            Buckingham rho  0.25700000    Ang       
                            Buckingham C     0.0000000    eV*Ang^6  
--------------------------------------------------------------------------------
O    s Ca   s Buckingham    Buckingham A     1090.4000    eV        0.000 12.000
                            Buckingham rho  0.34370000    Ang       
                            Buckingham C     0.0000000    eV*Ang^6  
--------------------------------------------------------------------------------
Cl   s Ca   s Buckingham    Buckingham A     2302.0000    eV        0.000 12.000
                            Buckingham rho  0.34020000    Ang       
                            Buckingham C     0.0000000    eV*Ang^6  
--------------------------------------------------------------------------------
O    s Sr   s Buckingham    Buckingham A     959.10000    eV        0.000 12.000
                            Buckingham rho  0.37210000    Ang       
                            Buckingham C     0.0000000    eV*Ang^6  
--------------------------------------------------------------------------------
Cl   s Sr   s Buckingham    Buckingham A     2191.0900    eV        0.000 12.000
                            Buckingham rho  0.34570000    Ang       
                            Buckingham C     0.0000000    eV*Ang^6  
--------------------------------------------------------------------------------
O    s Ba   s Buckingham    Buckingham A     905.70000    eV        0.000 12.000
                            Buckingham rho  0.39760000    Ang       
                            Buckingham C     0.0000000    eV*Ang^6  
--------------------------------------------------------------------------------
Cl   s Ba   s Buckingham    Buckingham A     2704.5500    eV        0.000 12.000
                            Buckingham rho  0.35280000    Ang       
                            Buckingham C     0.0000000    eV*Ang^6  
--------------------------------------------------------------------------------

********************************************************************************
*  Output for configuration   1                                                *
********************************************************************************


  Components of energy : 

--------------------------------------------------------------------------------
  Interatomic potentials     =           4.94315381 eV    
  Monopole - monopole (real) =         -10.03624526 eV    
  Monopole - monopole (recip)=         -29.53581274 eV    
  Monopole - monopole (total)=         -39.57205800 eV    
--------------------------------------------------------------------------------
  Total lattice energy       =         -34.62890419 eV    
--------------------------------------------------------------------------------
  Total lattice energy       =           -3341.1599 kJ/(mole unit cells)
--------------------------------------------------------------------------------


  Number of variables =        1

  Maximum number of calculations  =          1000
  Maximum Hessian update interval =            10
  Maximum step size               =   1.000000000
  Maximum parameter tolerance     =   0.000010000
  Maximum function  tolerance     =   0.000010000
  Maximum gradient  tolerance     =   0.001000000
  Maximum gradient  component     =   0.010000000

  Symmetry constrained optimisation

  Symmetry used for second derivatives

  Cell parameters to be optimised using strains

  Newton-Raphson optimiser to be used

  BFGS hessian update to be used

  Lower half triangular hessian to be used

  Start of bulk optimisation :

  Cycle:      0 Energy:       -34.628904  Gnorm:      4.328237  CPU:    0.017
  ** Hessian calculated **
  Cycle:      1 Energy:       -34.677667  Gnorm:      0.044008  CPU:    0.021
  Cycle:      2 Energy:       -34.677671  Gnorm:      0.003653  CPU:    0.025


  **** Optimisation achieved ****


  Final energy =     -34.67767136 eV
  Final Gnorm  =       0.00000010

  Components of energy : 

--------------------------------------------------------------------------------
  Interatomic potentials     =           5.77546103 eV    
  Monopole - monopole (real) =         -10.25970290 eV    
  Monopole - monopole (recip)=         -30.19342950 eV    
  Monopole - monopole (total)=         -40.45313239 eV    
--------------------------------------------------------------------------------
  Total lattice energy       =         -34.67767136 eV    
--------------------------------------------------------------------------------
  Total lattice energy       =           -3345.8652 kJ/(mole unit cells)
--------------------------------------------------------------------------------

  Final asymmetric unit coordinates :

--------------------------------------------------------------------------------
   No.  Atomic        x           y           z         Radius
        Label       (Frac)      (Frac)      (Frac)       (Angs) 
--------------------------------------------------------------------------------
     1  Cl    c     0.000000    0.000000    0.000000    0.000000
     2  O     c     0.500000    0.500000    0.500000    0.000000
     3  Na    c     0.500000    0.500000    0.000000    0.000000
     4  Cl    s     0.000000    0.000000    0.000000    0.000000
     5  O     s     0.500000    0.500000    0.500000    0.000000
--------------------------------------------------------------------------------

  Final Cartesian lattice vectors (Angstroms) :

        4.405902    0.000000    0.000000
        0.000000    4.405902    0.000000
        0.000000    0.000000    4.405902


  Final cell parameters and derivatives :

--------------------------------------------------------------------------------
       a            4.405902 Angstrom     dE/de1(xx)     0.000000 eV/strain
       b            4.405902 Angstrom     dE/de2(yy)     0.000000 eV/strain
       c            4.405902 Angstrom     dE/de3(zz)     0.000000 eV/strain
       alpha       90.000000 Degrees      dE/de4(yz)     0.000000 eV/strain
       beta        90.000000 Degrees      dE/de5(xz)     0.000000 eV/strain
       gamma       90.000000 Degrees      dE/de6(xy)     0.000000 eV/strain
--------------------------------------------------------------------------------

  Primitive cell volume =            85.527266 Angs**3

  Density of cell =      2.338030 g/cm**3

  Non-primitive cell volume =            85.527266 Angs**3


  Final internal derivatives :

--------------------------------------------------------------------------------
   No.  Atomic          a             b             c           Radius
        Label          (eV)          (eV)          (eV)        (eV/Angs)
--------------------------------------------------------------------------------
      1 Cl    c       0.000000      0.000000      0.000000      0.000000
      2 O     c       0.000000      0.000000      0.000000      0.000000
      3 Na    c       0.000000      0.000000      0.000000      0.000000
      4 Cl    s       0.000000      0.000000      0.000000      0.000000
      5 O     s       0.000000      0.000000      0.000000      0.000000
--------------------------------------------------------------------------------
  Maximum abs         0.000000      0.000000      0.000000      0.000000
--------------------------------------------------------------------------------

  Comparison of initial and final structures : 

--------------------------------------------------------------------------------
  Parameter   Initial value   Final value   Difference    Units      Percent
--------------------------------------------------------------------------------
    Volume        91.368216     85.527266    -5.840950    Angs**3     -6.39
    a              4.504000      4.405902    -0.098098    Angstroms   -2.18
    b              4.504000      4.405902    -0.098098    Angstroms   -2.18
    c              4.504000      4.405902    -0.098098    Angstroms   -2.18
    alpha         90.000000     90.000000     0.000000    Degrees      0.00
    beta          90.000000     90.000000     0.000000    Degrees      0.00
    gamma         90.000000     90.000000     0.000000    Degrees      0.00
      1 x          0.000000      0.000000     0.000000    Fractional   0.00
      1 y          0.000000      0.000000     0.000000    Fractional   0.00
      1 z          0.000000      0.000000     0.000000    Fractional   0.00
      2 x          0.500000      0.500000     0.000000    Fractional   0.00
      2 y          0.500000      0.500000     0.000000    Fractional   0.00
      2 z          0.500000      0.500000     0.000000    Fractional   0.00
      3 x          0.500000      0.500000     0.000000    Fractional   0.00
      3 y          0.500000      0.500000     0.000000    Fractional   0.00
      3 z          0.000000      0.000000     0.000000    Fractional   0.00
      4 x          0.000000      0.000000     0.000000    Fractional   0.00
      4 y          0.000000      0.000000     0.000000    Fractional   0.00
      4 z          0.000000      0.000000     0.000000    Fractional   0.00
      5 x          0.500000      0.500000     0.000000    Fractional   0.00
      5 y          0.500000      0.500000     0.000000    Fractional   0.00
      5 z          0.500000      0.500000     0.000000    Fractional   0.00
--------------------------------------------------------------------------------


  Born effective charge tensors : 

-------------------------------------------------------------------------------
  Atom             x           y             z
-------------------------------------------------------------------------------
    1 Cl    x      -0.9918     -0.0000     -0.0000
            y      -0.0000     -0.9918     -0.0000
            z      -0.0000     -0.0000     -0.9918
-------------------------------------------------------------------------------
    2 O     x      -2.2939      0.0000      0.0000
            y       0.0000     -2.2939      0.0000
            z       0.0000      0.0000     -2.2939
-------------------------------------------------------------------------------
    3 Na    x       1.2243      0.0000      0.0000
            y       0.0000      1.2243     -0.0000
            z       0.0000      0.0000      0.8372
-------------------------------------------------------------------------------




  Elastic Constant Matrix: (Units=GPa)

-------------------------------------------------------------------------------
  Indices      1         2         3         4         5         6    
-------------------------------------------------------------------------------
       1     82.7680   24.3534   24.3534   -0.0000    0.0000   -0.0000
       2     24.3534   82.7680   24.3534    0.0000   -0.0000   -0.0000
       3     24.3534   24.3534   82.7680    0.0000   -0.0000    0.0000
       4     -0.0000    0.0000    0.0000   24.3534   -0.0000    0.0000
       5      0.0000   -0.0000   -0.0000   -0.0000   24.3534    0.0000
       6     -0.0000   -0.0000    0.0000    0.0000    0.0000   24.3534
-------------------------------------------------------------------------------


  Elastic Compliance Matrix: (Units=1/GPa)

-------------------------------------------------------------------------------
  Indices      1         2         3         4         5         6    
-------------------------------------------------------------------------------
       1    0.013948 -0.003171 -0.003171  0.000000 -0.000000  0.000000
       2   -0.003171  0.013948 -0.003171 -0.000000  0.000000 -0.000000
       3   -0.003171 -0.003171  0.013948 -0.000000  0.000000 -0.000000
       4    0.000000 -0.000000 -0.000000  0.041062  0.000000 -0.000000
       5   -0.000000  0.000000  0.000000  0.000000  0.041062 -0.000000
       6    0.000000 -0.000000 -0.000000 -0.000000 -0.000000  0.041062
-------------------------------------------------------------------------------

  Mechanical properties :

-------------------------------------------------------------------------------
  Convention :                    Reuss         Voigt         Hill
-------------------------------------------------------------------------------
  Bulk  Modulus (GPa)     =      43.82493      43.82493      43.82493
  Shear Modulus (GPa)     =      26.08758      26.29496      26.19127
-------------------------------------------------------------------------------
  Velocity S-wave (km/s)  =       3.34035       3.35360       3.34698
  Velocity P-wave (km/s)  =       5.79842       5.80861       5.80351
-------------------------------------------------------------------------------
  Compressibility (1/GPa) =    0.02281806
-------------------------------------------------------------------------------
  Stress axis :                     x             y             z
-------------------------------------------------------------------------------
  Youngs Moduli (GPa)     =      71.69479      71.69479      71.69479
-------------------------------------------------------------------------------
  Poissons Ratio (x)      =                     0.22734       0.22734
  Poissons Ratio (y)      =       0.22734                     0.22734
  Poissons Ratio (z)      =       0.22734       0.22734
-------------------------------------------------------------------------------


  Piezoelectric Strain Matrix: (Units=C/m**2)

-------------------------------------------------------------------------------
  Indices      1         2         3         4         5         6    
-------------------------------------------------------------------------------
       x    -0.00000  -0.00000  -0.00000  -0.00000   0.00000  -0.00000
       y     0.00000  -0.00000   0.00000   0.00000  -0.00000   0.00000
       z    -0.00000  -0.00000   0.00000  -0.00000   0.00000  -0.00000
-------------------------------------------------------------------------------


  Piezoelectric Stress Matrix: (Units=10**-11 C/N)

-------------------------------------------------------------------------------
  Indices      1         2         3         4         5         6    
-------------------------------------------------------------------------------
       x     0.00000  -0.00000  -0.00000  -0.00000   0.00000  -0.00000
       y     0.00000  -0.00000   0.00000   0.00000  -0.00000   0.00000
       z    -0.00000  -0.00000   0.00000  -0.00000   0.00000  -0.00000
-------------------------------------------------------------------------------


  Static dielectric constant tensor : 

-------------------------------------------------------------------------------
              x         y         z
-------------------------------------------------------------------------------
       x    11.08357   0.00000   0.00000
       y     0.00000  11.08357   0.00000
       z     0.00000   0.00000  11.08357
--------------------------------------------------------------------------------

  High frequency dielectric constant tensor : 

-------------------------------------------------------------------------------
              x         y         z
-------------------------------------------------------------------------------
       x     1.50771   0.00000   0.00000
       y     0.00000   1.50771   0.00000
       z     0.00000   0.00000   1.50771
-------------------------------------------------------------------------------

  Static refractive indices : 

-------------------------------------------------------------------------------
    1 =    3.32920      2 =    3.32920      3 =    3.32920
-------------------------------------------------------------------------------

  High frequency refractive indices : 

-------------------------------------------------------------------------------
    1 =    1.22789      2 =    1.22789      3 =    1.22789
-------------------------------------------------------------------------------


  Time to end of optimisation =       0.0348 seconds

********************************************************************************
*  Defect calculation for configuration   1 :                                  *
********************************************************************************

  Total number of defects =      3

  Total charge on defect  =  -1.00

  Defect centre is at   0.5000   0.2500   0.2500  Frac

  Region 1 radius =  12.0000      Number of ions =    593

  Number of symmetry inequivalent region 1 ions  =    340

  Region 2 radius =  16.0000      Number of ions =    832

  Number of symmetry inequivalent region 2a ions =    454

  Region 2a mode = 4 : screened electrostatics due to region 1 
                       neglect correction to region 1 forces from 2a
                       region 2a displacements based on defects only

  Region 2a ions will only interact with defects in region 1

  Vacancies:

--------------------------------------------------------------------------------
    Specification type     Symbol/Number         x          y          z
--------------------------------------------------------------------------------
    Fractional                               0.500000   0.500000   0.000000
    Fractional                               0.500000   0.000000   0.500000
--------------------------------------------------------------------------------

  Interstitials:

--------------------------------------------------------------------------------
    Specification type     Symbol/Number         x          y          z
--------------------------------------------------------------------------------
    Atom/Fractional         Na               0.500000   0.450000   0.050000
--------------------------------------------------------------------------------


  Symmetry reduced region 1 (Relative to defect centre) :

--------------------------------------------------------------------------------
   No.   Atomic       x            y             z       Radius  Multiplicity   
         Label      (Angs)       (Angs)        (Angs)    (Angs)     
--------------------------------------------------------------------------------
     1  Na    c      0.0000       0.8812      -0.8812    0.0000     1    Defect
     2  O     c      0.0000       1.1015 *     1.1015 *  0.0000     1          
     3  Cl    c      2.2030 *    -1.1015 *    -1.1015 *  0.0000     2          
     4  Na    c      2.2030 *     1.1015 *     1.1015 *  0.0000     2          
     5  O     c      0.0000       1.1015 *    -3.3044 *  0.0000     1          
     6  O     c      0.0000      -3.3044 *     1.1015 *  0.0000     1          
     7  Na    c      0.0000       1.1015 *     3.3044 *  0.0000     1          
     8  Na    c      0.0000      -3.3044 *    -1.1015 *  0.0000     1          
     9  Na    c      0.0000      -1.1015 *    -3.3044 *  0.0000     1          
    10  Na    c      0.0000       3.3044 *     1.1015 *  0.0000     1          
    11  Cl    c      2.2030 *    -1.1015 *     3.3044 *  0.0000     2          
    12  Na    c      2.2030 *     1.1015 *    -3.3044 *  0.0000     2          
    13  Cl    c      2.2030 *     3.3044 *    -1.1015 *  0.0000     2          
    14  Na    c      2.2030 *    -3.3044 *     1.1015 *  0.0000     2          
    15  O     c      0.0000      -3.3044 *    -3.3044 *  0.0000     1          
    16  Na    c      0.0000      -3.3044 *     3.3044 *  0.0000     1          
    17  Na    c      0.0000       3.3044 *    -3.3044 *  0.0000     1          
    18  O     c      4.4059 *     1.1015 *     1.1015 *  0.0000     2          
    19  Na    c      4.4059 *     1.1015 *    -1.1015 *  0.0000     2          
    20  Na    c      4.4059 *    -1.1015 *     1.1015 *  0.0000     2          
    21  Cl    c      2.2030 *     3.3044 *     3.3044 *  0.0000     2          
    22  Na    c      2.2030 *    -3.3044 *    -3.3044 *  0.0000     2          
    23  O     c      0.0000       1.1015 *     5.5074 *  0.0000     1          
    24  O     c      0.0000       5.5074 *     1.1015 *  0.0000     1          
    25  O     c      4.4059 *     1.1015 *    -3.3044 *  0.0000     2          
    26  Na    c      0.0000       1.1015 *    -5.5074 *  0.0000     1          
    27  Na    c      0.0000       5.5074 *    -1.1015 *  0.0000     1          
    28  Na    c      4.4059 *     1.1015 *     3.3044 *  0.0000     2          
    29  Na    c      0.0000      -1.1015 *     5.5074 *  0.0000     1          
    30  Na    c      0.0000      -5.5074 *     1.1015 *  0.0000     1          
    31  Na    c      4.4059 *    -1.1015 *    -3.3044 *  0.0000     2          
    32  O     c      4.4059 *    -3.3044 *     1.1015 *  0.0000     2          
    33  Na    c      4.4059 *    -3.3044 *    -1.1015 *  0.0000     2          
    34  Na    c      4.4059 *     3.3044 *     1.1015 *  0.0000     2          
    35  Cl    c      2.2030 *    -1.1015 *    -5.5074 *  0.0000     2          
    36  Cl    c      2.2030 *    -5.5074 *    -1.1015 *  0.0000     2          
    37  Na    c      2.2030 *     1.1015 *     5.5074 *  0.0000     2          
    38  Na    c      2.2030 *     5.5074 *     1.1015 *  0.0000     2          
    39  O     c      0.0000       5.5074 *    -3.3044 *  0.0000     1          
    40  O     c      0.0000      -3.3044 *     5.5074 *  0.0000     1          
    41  Na    c      0.0000       5.5074 *     3.3044 *  0.0000     1          
    42  Na    c      0.0000      -3.3044 *    -5.5074 *  0.0000     1          
    43  Na    c      0.0000       3.3044 *     5.5074 *  0.0000     1          
    44  Na    c      0.0000      -5.5074 *    -3.3044 *  0.0000     1          
    45  O     c      4.4059 *    -3.3044 *    -3.3044 *  0.0000     2          
    46  Na    c      4.4059 *    -3.3044 *     3.3044 *  0.0000     2          
    47  Na    c      4.4059 *     3.3044 *    -3.3044 *  0.0000     2          
    48  Cl    c      6.6089 *    -1.1015 *    -1.1015 *  0.0000     2          
    49  Na    c      6.6089 *     1.1015 *     1.1015 *  0.0000     2          
    50  Cl    c      2.2030 *     3.3044 *    -5.5074 *  0.0000     2          
    51  Cl    c      2.2030 *    -5.5074 *     3.3044 *  0.0000     2          
    52  Na    c      2.2030 *     5.5074 *    -3.3044 *  0.0000     2          
    53  Na    c      2.2030 *    -3.3044 *     5.5074 *  0.0000     2          
    54  O     c      4.4059 *     1.1015 *     5.5074 *  0.0000     2          
    55  O     c      4.4059 *     5.5074 *     1.1015 *  0.0000     2          
    56  Na    c      4.4059 *     1.1015 *    -5.5074 *  0.0000     2          
    57  Na    c      4.4059 *     5.5074 *    -1.1015 *  0.0000     2          
    58  Na    c      4.4059 *    -1.1015 *     5.5074 *  0.0000     2          
    59  Na    c      4.4059 *    -5.5074 *     1.1015 *  0.0000     2          
    60  Cl    c      6.6089 *    -1.1015 *     3.3044 *  0.0000     2          
    61  Cl    c      6.6089 *     3.3044 *    -1.1015 *  0.0000     2          
    62  Na    c      6.6089 *     1.1015 *    -3.3044 *  0.0000     2          
    63  Na    c      6.6089 *    -3.3044 *     1.1015 *  0.0000     2          
    64  O     c      0.0000       1.1015 *    -7.7103 *  0.0000     1          
    65  O     c      0.0000       5.5074 *     5.5074 *  0.0000     1          
    66  O     c      0.0000      -7.7103 *     1.1015 *  0.0000     1          
    67  Na    c      0.0000       1.1015 *     7.7103 *  0.0000     1          
    68  Na    c      0.0000       5.5074 *    -5.5074 *  0.0000     1          
    69  Na    c      0.0000      -7.7103 *    -1.1015 *  0.0000     1          
    70  Na    c      0.0000      -1.1015 *    -7.7103 *  0.0000     1          
    71  Na    c      0.0000       7.7103 *     1.1015 *  0.0000     1          
    72  Na    c      0.0000      -5.5074 *     5.5074 *  0.0000     1          
    73  O     c      4.4059 *     5.5074 *    -3.3044 *  0.0000     2          
    74  O     c      4.4059 *    -3.3044 *     5.5074 *  0.0000     2          
    75  Na    c      4.4059 *     5.5074 *     3.3044 *  0.0000     2          
    76  Na    c      4.4059 *    -3.3044 *    -5.5074 *  0.0000     2          
    77  Na    c      4.4059 *     3.3044 *     5.5074 *  0.0000     2          
    78  Na    c      4.4059 *    -5.5074 *    -3.3044 *  0.0000     2          
    79  Cl    c      2.2030 *    -1.1015 *     7.7103 *  0.0000     2          
    80  Cl    c      2.2030 *    -5.5074 *    -5.5074 *  0.0000     2          
    81  Cl    c      6.6089 *     3.3044 *     3.3044 *  0.0000     2          
    82  Na    c      2.2030 *     1.1015 *    -7.7103 *  0.0000     2          
    83  Na    c      2.2030 *     5.5074 *     5.5074 *  0.0000     2          
    84  Na    c      6.6089 *    -3.3044 *    -3.3044 *  0.0000     2          
    85  Cl    c      2.2030 *     7.7103 *    -1.1015 *  0.0000     2          
    86  Na    c      2.2030 *    -7.7103 *     1.1015 *  0.0000     2          
    87  O     c      0.0000      -3.3044 *    -7.7103 *  0.0000     1          
    88  O     c      0.0000      -7.7103 *    -3.3044 *  0.0000     1          
    89  Na    c      0.0000      -3.3044 *     7.7103 *  0.0000     1          
    90  Na    c      0.0000      -7.7103 *     3.3044 *  0.0000     1          
    91  Na    c      0.0000       3.3044 *    -7.7103 *  0.0000     1          
    92  Na    c      0.0000       7.7103 *    -3.3044 *  0.0000     1          
    93  Cl    c      2.2030 *     3.3044 *     7.7103 *  0.0000     2          
    94  Cl    c      6.6089 *    -1.1015 *    -5.5074 *  0.0000     2          
    95  Na    c      2.2030 *    -3.3044 *    -7.7103 *  0.0000     2          
    96  Na    c      6.6089 *     1.1015 *     5.5074 *  0.0000     2          
    97  Cl    c      2.2030 *     7.7103 *     3.3044 *  0.0000     2          
    98  Cl    c      6.6089 *    -5.5074 *    -1.1015 *  0.0000     2          
    99  Na    c      2.2030 *    -7.7103 *    -3.3044 *  0.0000     2          
   100  Na    c      6.6089 *     5.5074 *     1.1015 *  0.0000     2          
   101  O     c      4.4059 *     1.1015 *    -7.7103 *  0.0000     2          
   102  O     c      4.4059 *     5.5074 *     5.5074 *  0.0000     2          
   103  Na    c      4.4059 *     1.1015 *     7.7103 *  0.0000     2          
   104  Na    c      4.4059 *     5.5074 *    -5.5074 *  0.0000     2          
   105  Na    c      4.4059 *    -1.1015 *    -7.7103 *  0.0000     2          
   106  Na    c      4.4059 *    -5.5074 *     5.5074 *  0.0000     2          
   107  O     c      4.4059 *    -7.7103 *     1.1015 *  0.0000     2          
   108  O     c      8.8118 *     1.1015 *     1.1015 *  0.0000     2          
   109  Na    c      4.4059 *    -7.7103 *    -1.1015 *  0.0000     2          
   110  Na    c      8.8118 *     1.1015 *    -1.1015 *  0.0000     2          
   111  Na    c      4.4059 *     7.7103 *     1.1015 *  0.0000     2          
   112  Na    c      8.8118 *    -1.1015 *     1.1015 *  0.0000     2          
   113  Cl    c      6.6089 *     3.3044 *    -5.5074 *  0.0000     2          
   114  Cl    c      6.6089 *    -5.5074 *     3.3044 *  0.0000     2          
   115  Na    c      6.6089 *     5.5074 *    -3.3044 *  0.0000     2          
   116  Na    c      6.6089 *    -3.3044 *     5.5074 *  0.0000     2          
   117  O     c      0.0000       5.5074 *    -7.7103 *  0.0000     1          
   118  O     c      0.0000      -7.7103 *     5.5074 *  0.0000     1          
   119  O     c      4.4059 *    -3.3044 *    -7.7103 *  0.0000     2          
   120  Na    c      0.0000       5.5074 *     7.7103 *  0.0000     1          
   121  Na    c      0.0000      -7.7103 *    -5.5074 *  0.0000     1          
   122  Na    c      4.4059 *    -3.3044 *     7.7103 *  0.0000     2          
   123  Na    c      0.0000       7.7103 *     5.5074 *  0.0000     1          
   124  Na    c      0.0000      -5.5074 *    -7.7103 *  0.0000     1          
   125  Na    c      4.4059 *     3.3044 *    -7.7103 *  0.0000     2          
   126  O     c      4.4059 *    -7.7103 *    -3.3044 *  0.0000     2          
   127  O     c      8.8118 *     1.1015 *    -3.3044 *  0.0000     2          
   128  O     c      8.8118 *    -3.3044 *     1.1015 *  0.0000     2          
   129  Na    c      4.4059 *    -7.7103 *     3.3044 *  0.0000     2          
   130  Na    c      8.8118 *     1.1015 *     3.3044 *  0.0000     2          
   131  Na    c      8.8118 *    -3.3044 *    -1.1015 *  0.0000     2          
   132  Na    c      4.4059 *     7.7103 *    -3.3044 *  0.0000     2          
   133  Na    c      8.8118 *    -1.1015 *    -3.3044 *  0.0000     2          
   134  Na    c      8.8118 *     3.3044 *     1.1015 *  0.0000     2          
   135  Cl    c      2.2030 *     7.7103 *    -5.5074 *  0.0000     2          
   136  Cl    c      2.2030 *    -5.5074 *     7.7103 *  0.0000     2          
   137  Na    c      2.2030 *     5.5074 *    -7.7103 *  0.0000     2          
   138  Na    c      2.2030 *    -7.7103 *     5.5074 *  0.0000     2          
   139  O     c      0.0000       1.1015 *     9.9133 *  0.0000     1          
   140  O     c      0.0000       9.9133 *     1.1015 *  0.0000     1          
   141  O     c      8.8118 *    -3.3044 *    -3.3044 *  0.0000     2          
   142  Na    c      0.0000       1.1015 *    -9.9133 *  0.0000     1          
   143  Na    c      0.0000       9.9133 *    -1.1015 *  0.0000     1          
   144  Na    c      8.8118 *    -3.3044 *     3.3044 *  0.0000     2          
   145  Na    c      0.0000      -1.1015 *     9.9133 *  0.0000     1          
   146  Na    c      0.0000      -9.9133 *     1.1015 *  0.0000     1          
   147  Na    c      8.8118 *     3.3044 *    -3.3044 *  0.0000     2          
   148  Cl    c      2.2030 *    -1.1015 *    -9.9133 *  0.0000     2          
   149  Cl    c      6.6089 *    -1.1015 *     7.7103 *  0.0000     2          
   150  Cl    c      6.6089 *     7.7103 *    -1.1015 *  0.0000     2          
   151  Cl    c      6.6089 *    -5.5074 *    -5.5074 *  0.0000     2          
   152  Na    c      2.2030 *     1.1015 *     9.9133 *  0.0000     2          
   153  Na    c      6.6089 *     1.1015 *    -7.7103 *  0.0000     2          
   154  Na    c      6.6089 *     5.5074 *     5.5074 *  0.0000     2          
   155  Na    c      6.6089 *    -7.7103 *     1.1015 *  0.0000     2          
   156  Cl    c      2.2030 *    -9.9133 *    -1.1015 *  0.0000     2          
   157  Na    c      2.2030 *     9.9133 *     1.1015 *  0.0000     2          
   158  O     c      0.0000       9.9133 *    -3.3044 *  0.0000     1          
   159  O     c      0.0000      -3.3044 *     9.9133 *  0.0000     1          
   160  O     c      4.4059 *     5.5074 *    -7.7103 *  0.0000     2          
   161  O     c      4.4059 *    -7.7103 *     5.5074 *  0.0000     2          
   162  O     c      8.8118 *     1.1015 *     5.5074 *  0.0000     2          
   163  O     c      8.8118 *     5.5074 *     1.1015 *  0.0000     2          
   164  Na    c      0.0000       9.9133 *     3.3044 *  0.0000     1          
   165  Na    c      0.0000      -3.3044 *    -9.9133 *  0.0000     1          
   166  Na    c      4.4059 *     5.5074 *     7.7103 *  0.0000     2          
   167  Na    c      4.4059 *    -7.7103 *    -5.5074 *  0.0000     2          
   168  Na    c      8.8118 *     1.1015 *    -5.5074 *  0.0000     2          
   169  Na    c      8.8118 *     5.5074 *    -1.1015 *  0.0000     2          
   170  Na    c      0.0000       3.3044 *     9.9133 *  0.0000     1          
   171  Na    c      0.0000      -9.9133 *    -3.3044 *  0.0000     1          
   172  Na    c      4.4059 *     7.7103 *     5.5074 *  0.0000     2          
   173  Na    c      4.4059 *    -5.5074 *    -7.7103 *  0.0000     2          
   174  Na    c      8.8118 *    -1.1015 *     5.5074 *  0.0000     2          
   175  Na    c      8.8118 *    -5.5074 *     1.1015 *  0.0000     2          
   176  Cl    c      6.6089 *     7.7103 *     3.3044 *  0.0000     2          
   177  Na    c      6.6089 *    -7.7103 *    -3.3044 *  0.0000     2          
   178  Cl    c      2.2030 *     3.3044 *    -9.9133 *  0.0000     2          
   179  Cl    c      2.2030 *    -9.9133 *     3.3044 *  0.0000     2          
   180  Cl    c      6.6089 *     3.3044 *     7.7103 *  0.0000     2          
   181  Na    c      2.2030 *     9.9133 *    -3.3044 *  0.0000     2          
   182  Na    c      2.2030 *    -3.3044 *     9.9133 *  0.0000     2          
   183  Na    c      6.6089 *    -3.3044 *    -7.7103 *  0.0000     2          
   184  O     c      0.0000      -7.7103 *    -7.7103 *  0.0000     1          
   185  O     c      4.4059 *     1.1015 *     9.9133 *  0.0000     2          
   186  O     c      4.4059 *     9.9133 *     1.1015 *  0.0000     2          
   187  O     c      8.8118 *     5.5074 *    -3.3044 *  0.0000     2          
   188  O     c      8.8118 *    -3.3044 *     5.5074 *  0.0000     2          
   189  Na    c      0.0000      -7.7103 *     7.7103 *  0.0000     1          
   190  Na    c      4.4059 *     1.1015 *    -9.9133 *  0.0000     2          
   191  Na    c      4.4059 *     9.9133 *    -1.1015 *  0.0000     2          
   192  Na    c      8.8118 *     5.5074 *     3.3044 *  0.0000     2          
   193  Na    c      8.8118 *    -3.3044 *    -5.5074 *  0.0000     2          
   194  Na    c      0.0000       7.7103 *    -7.7103 *  0.0000     1          
   195  Na    c      4.4059 *    -1.1015 *     9.9133 *  0.0000     2          
   196  Na    c      4.4059 *    -9.9133 *     1.1015 *  0.0000     2          
   197  Na    c      8.8118 *     3.3044 *     5.5074 *  0.0000     2          
   198  Na    c      8.8118 *    -5.5074 *    -3.3044 *  0.0000     2          
   199  Cl    c      2.2030 *     7.7103 *     7.7103 *  0.0000     2          
   200  Cl    c     11.0148 *    -1.1015 *    -1.1015 *  0.0000     2          
   201  Na    c      2.2030 *    -7.7103 *    -7.7103 *  0.0000     2          
   202  Na    c     11.0148 *     1.1015 *     1.1015 *  0.0000     2          
   203  O     c      4.4059 *     9.9133 *    -3.3044 *  0.0000     2          
   204  Na    c      4.4059 *     9.9133 *     3.3044 *  0.0000     2          
   205  Na    c      4.4059 *    -9.9133 *    -3.3044 *  0.0000     2          
   206  O     c      0.0000       5.5074 *     9.9133 *  0.0000     1          
   207  O     c      0.0000       9.9133 *     5.5074 *  0.0000     1          
   208  O     c      4.4059 *    -3.3044 *     9.9133 *  0.0000     2          
   209  Na    c      0.0000       5.5074 *    -9.9133 *  0.0000     1          
   210  Na    c      0.0000       9.9133 *    -5.5074 *  0.0000     1          
   211  Na    c      4.4059 *    -3.3044 *    -9.9133 *  0.0000     2          
   212  Na    c      0.0000      -5.5074 *     9.9133 *  0.0000     1          
   213  Na    c      0.0000      -9.9133 *     5.5074 *  0.0000     1          
   214  Na    c      4.4059 *     3.3044 *     9.9133 *  0.0000     2          
   215  Cl    c      2.2030 *    -5.5074 *    -9.9133 *  0.0000     2          
   216  Cl    c      2.2030 *    -9.9133 *    -5.5074 *  0.0000     2          
   217  Cl    c      6.6089 *     7.7103 *    -5.5074 *  0.0000     2          
   218  Cl    c      6.6089 *    -5.5074 *     7.7103 *  0.0000     2          
   219  Cl    c     11.0148 *    -1.1015 *     3.3044 *  0.0000     2          
   220  Cl    c     11.0148 *     3.3044 *    -1.1015 *  0.0000     2          
   221  Na    c      2.2030 *     5.5074 *     9.9133 *  0.0000     2          
   222  Na    c      2.2030 *     9.9133 *     5.5074 *  0.0000     2          
   223  Na    c      6.6089 *     5.5074 *    -7.7103 *  0.0000     2          
   224  Na    c      6.6089 *    -7.7103 *     5.5074 *  0.0000     2          
   225  Na    c     11.0148 *     1.1015 *    -3.3044 *  0.0000     2          
   226  Na    c     11.0148 *    -3.3044 *     1.1015 *  0.0000     2          
   227  O     c      4.4059 *    -7.7103 *    -7.7103 *  0.0000     2          
   228  O     c      8.8118 *     1.1015 *    -7.7103 *  0.0000     2          
   229  O     c      8.8118 *     5.5074 *     5.5074 *  0.0000     2          
   230  Na    c      4.4059 *    -7.7103 *     7.7103 *  0.0000     2          
   231  Na    c      8.8118 *     1.1015 *     7.7103 *  0.0000     2          
   232  Na    c      8.8118 *     5.5074 *    -5.5074 *  0.0000     2          
   233  Na    c      4.4059 *     7.7103 *    -7.7103 *  0.0000     2          
   234  Na    c      8.8118 *    -1.1015 *    -7.7103 *  0.0000     2          
   235  Na    c      8.8118 *    -5.5074 *     5.5074 *  0.0000     2          
   236  O     c      8.8118 *    -7.7103 *     1.1015 *  0.0000     2          
   237  Na    c      8.8118 *    -7.7103 *    -1.1015 *  0.0000     2          
   238  Na    c      8.8118 *     7.7103 *     1.1015 *  0.0000     2          
   239  Cl    c     11.0148 *     3.3044 *     3.3044 *  0.0000     2          
   240  Na    c     11.0148 *    -3.3044 *    -3.3044 *  0.0000     2          
   241  Cl    c      6.6089 *    -1.1015 *    -9.9133 *  0.0000     2          
   242  Cl    c      6.6089 *    -9.9133 *    -1.1015 *  0.0000     2          
   243  Na    c      6.6089 *     1.1015 *     9.9133 *  0.0000     2          
   244  Na    c      6.6089 *     9.9133 *     1.1015 *  0.0000     2          
   245  O     s      0.0000       1.1015 *     1.1015 *  0.0000     1          
   246  Cl    s      2.2030 *    -1.1015 *    -1.1015 *  0.0000     2          
   247  O     s      0.0000       1.1015 *    -3.3044 *  0.0000     1          
   248  O     s      0.0000      -3.3044 *     1.1015 *  0.0000     1          
   249  Cl    s      2.2030 *    -1.1015 *     3.3044 *  0.0000     2          
   250  Cl    s      2.2030 *     3.3044 *    -1.1015 *  0.0000     2          
   251  O     s      0.0000      -3.3044 *    -3.3044 *  0.0000     1          
   252  O     s      4.4059 *     1.1015 *     1.1015 *  0.0000     2          
   253  Cl    s      2.2030 *     3.3044 *     3.3044 *  0.0000     2          
   254  O     s      0.0000       1.1015 *     5.5074 *  0.0000     1          
   255  O     s      0.0000       5.5074 *     1.1015 *  0.0000     1          
   256  O     s      4.4059 *     1.1015 *    -3.3044 *  0.0000     2          
   257  O     s      4.4059 *    -3.3044 *     1.1015 *  0.0000     2          
   258  Cl    s      2.2030 *    -1.1015 *    -5.5074 *  0.0000     2          
   259  Cl    s      2.2030 *    -5.5074 *    -1.1015 *  0.0000     2          
   260  O     s      0.0000       5.5074 *    -3.3044 *  0.0000     1          
   261  O     s      0.0000      -3.3044 *     5.5074 *  0.0000     1          
   262  O     s      4.4059 *    -3.3044 *    -3.3044 *  0.0000     2          
   263  Cl    s      6.6089 *    -1.1015 *    -1.1015 *  0.0000     2          
   264  Cl    s      2.2030 *     3.3044 *    -5.5074 *  0.0000     2          
   265  Cl    s      2.2030 *    -5.5074 *     3.3044 *  0.0000     2          
   266  O     s      4.4059 *     1.1015 *     5.5074 *  0.0000     2          
   267  O     s      4.4059 *     5.5074 *     1.1015 *  0.0000     2          
   268  Cl    s      6.6089 *    -1.1015 *     3.3044 *  0.0000     2          
   269  Cl    s      6.6089 *     3.3044 *    -1.1015 *  0.0000     2          
   270  O     s      0.0000       1.1015 *    -7.7103 *  0.0000     1          
   271  O     s      0.0000       5.5074 *     5.5074 *  0.0000     1          
   272  O     s      0.0000      -7.7103 *     1.1015 *  0.0000     1          
   273  O     s      4.4059 *     5.5074 *    -3.3044 *  0.0000     2          
   274  O     s      4.4059 *    -3.3044 *     5.5074 *  0.0000     2          
   275  Cl    s      2.2030 *    -1.1015 *     7.7103 *  0.0000     2          
   276  Cl    s      2.2030 *    -5.5074 *    -5.5074 *  0.0000     2          
   277  Cl    s      6.6089 *     3.3044 *     3.3044 *  0.0000     2          
   278  Cl    s      2.2030 *     7.7103 *    -1.1015 *  0.0000     2          
   279  O     s      0.0000      -3.3044 *    -7.7103 *  0.0000     1          
   280  O     s      0.0000      -7.7103 *    -3.3044 *  0.0000     1          
   281  Cl    s      2.2030 *     3.3044 *     7.7103 *  0.0000     2          
   282  Cl    s      6.6089 *    -1.1015 *    -5.5074 *  0.0000     2          
   283  Cl    s      2.2030 *     7.7103 *     3.3044 *  0.0000     2          
   284  Cl    s      6.6089 *    -5.5074 *    -1.1015 *  0.0000     2          
   285  O     s      4.4059 *     1.1015 *    -7.7103 *  0.0000     2          
   286  O     s      4.4059 *     5.5074 *     5.5074 *  0.0000     2          
   287  O     s      4.4059 *    -7.7103 *     1.1015 *  0.0000     2          
   288  O     s      8.8118 *     1.1015 *     1.1015 *  0.0000     2          
   289  Cl    s      6.6089 *     3.3044 *    -5.5074 *  0.0000     2          
   290  Cl    s      6.6089 *    -5.5074 *     3.3044 *  0.0000     2          
   291  O     s      0.0000       5.5074 *    -7.7103 *  0.0000     1          
   292  O     s      0.0000      -7.7103 *     5.5074 *  0.0000     1          
   293  O     s      4.4059 *    -3.3044 *    -7.7103 *  0.0000     2          
   294  O     s      4.4059 *    -7.7103 *    -3.3044 *  0.0000     2          
   295  O     s      8.8118 *     1.1015 *    -3.3044 *  0.0000     2          
   296  O     s      8.8118 *    -3.3044 *     1.1015 *  0.0000     2          
   297  Cl    s      2.2030 *     7.7103 *    -5.5074 *  0.0000     2          
   298  Cl    s      2.2030 *    -5.5074 *     7.7103 *  0.0000     2          
   299  O     s      0.0000       1.1015 *     9.9133 *  0.0000     1          
   300  O     s      0.0000       9.9133 *     1.1015 *  0.0000     1          
   301  O     s      8.8118 *    -3.3044 *    -3.3044 *  0.0000     2          
   302  Cl    s      2.2030 *    -1.1015 *    -9.9133 *  0.0000     2          
   303  Cl    s      6.6089 *    -1.1015 *     7.7103 *  0.0000     2          
   304  Cl    s      6.6089 *     7.7103 *    -1.1015 *  0.0000     2          
   305  Cl    s      6.6089 *    -5.5074 *    -5.5074 *  0.0000     2          
   306  Cl    s      2.2030 *    -9.9133 *    -1.1015 *  0.0000     2          
   307  O     s      0.0000       9.9133 *    -3.3044 *  0.0000     1          
   308  O     s      0.0000      -3.3044 *     9.9133 *  0.0000     1          
   309  O     s      4.4059 *     5.5074 *    -7.7103 *  0.0000     2          
   310  O     s      4.4059 *    -7.7103 *     5.5074 *  0.0000     2          
   311  O     s      8.8118 *     1.1015 *     5.5074 *  0.0000     2          
   312  O     s      8.8118 *     5.5074 *     1.1015 *  0.0000     2          
   313  Cl    s      6.6089 *     7.7103 *     3.3044 *  0.0000     2          
   314  Cl    s      2.2030 *     3.3044 *    -9.9133 *  0.0000     2          
   315  Cl    s      2.2030 *    -9.9133 *     3.3044 *  0.0000     2          
   316  Cl    s      6.6089 *     3.3044 *     7.7103 *  0.0000     2          
   317  O     s      0.0000      -7.7103 *    -7.7103 *  0.0000     1          
   318  O     s      4.4059 *     1.1015 *     9.9133 *  0.0000     2          
   319  O     s      4.4059 *     9.9133 *     1.1015 *  0.0000     2          
   320  O     s      8.8118 *     5.5074 *    -3.3044 *  0.0000     2          
   321  O     s      8.8118 *    -3.3044 *     5.5074 *  0.0000     2          
   322  Cl    s      2.2030 *     7.7103 *     7.7103 *  0.0000     2          
   323  Cl    s     11.0148 *    -1.1015 *    -1.1015 *  0.0000     2          
   324  O     s      4.4059 *     9.9133 *    -3.3044 *  0.0000     2          
   325  O     s      0.0000       5.5074 *     9.9133 *  0.0000     1          
   326  O     s      0.0000       9.9133 *     5.5074 *  0.0000     1          
   327  O     s      4.4059 *    -3.3044 *     9.9133 *  0.0000     2          
   328  Cl    s      2.2030 *    -5.5074 *    -9.9133 *  0.0000     2          
   329  Cl    s      2.2030 *    -9.9133 *    -5.5074 *  0.0000     2          
   330  Cl    s      6.6089 *     7.7103 *    -5.5074 *  0.0000     2          
   331  Cl    s      6.6089 *    -5.5074 *     7.7103 *  0.0000     2          
   332  Cl    s     11.0148 *    -1.1015 *     3.3044 *  0.0000     2          
   333  Cl    s     11.0148 *     3.3044 *    -1.1015 *  0.0000     2          
   334  O     s      4.4059 *    -7.7103 *    -7.7103 *  0.0000     2          
   335  O     s      8.8118 *     1.1015 *    -7.7103 *  0.0000     2          
   336  O     s      8.8118 *     5.5074 *     5.5074 *  0.0000     2          
   337  O     s      8.8118 *    -7.7103 *     1.1015 *  0.0000     2          
   338  Cl    s     11.0148 *     3.3044 *     3.3044 *  0.0000     2          
   339  Cl    s      6.6089 *    -1.1015 *    -9.9133 *  0.0000     2          
   340  Cl    s      6.6089 *    -9.9133 *    -1.1015 *  0.0000     2          
--------------------------------------------------------------------------------

  Components of defect energy : 

--------------------------------------------------------------------------------
  Region 1 - region 1                   =      8.32316440 eV
  Region 1 - region 2a (unrelaxed)      =     -0.01692706 eV
  Region 1 - 2a (relaxed - correction)  =     -0.27996009 eV
  Region 1 (Total)                      =      8.02627725 eV
  Region 2a                             =      0.13992829 eV
  Region 2b                             =     -0.40912545 eV
--------------------------------------------------------------------------------
  Total defect energy                   =      7.75708010 eV
--------------------------------------------------------------------------------

  Largest displacement in region 2 =   0.0182 Angstroms


  Number of variables =      931

  Maximum number of calculations  =        1000
  Maximum Hessian update interval =          10
  Maximum step size               =   1.0000000
  Maximum parameter tolerance     =   0.0000100
  Maximum function  tolerance     =   0.0000100
  Maximum gradient  tolerance     =   0.0010000

  Symmetry adapted optimisation

  Symmetry to be used for second derivatives

  Newton-Raphson optimiser to be used

  BFGS hessian update to be used

  Lower half triangular hessian to be used

  Start of defect optimisation :

  Cycle:      0 Defect Energy:   7.757080  Gnorm:     0.018615  CPU:    3.474
  ** Hessian calculated **
  Cycle:      1 Defect Energy:   6.245430  Gnorm:     0.013050  CPU:   10.192
  Cycle:      2 Defect Energy:   4.946801  Gnorm:     0.003888  CPU:   15.381
  Cycle:      3 Defect Energy:   4.883117  Gnorm:     0.002714  CPU:   16.544
  Cycle:      4 Defect Energy:   4.848573  Gnorm:     0.001635  CPU:   17.697
  Cycle:      5 Defect Energy:   4.832936  Gnorm:     0.000962  CPU:   18.903
  Cycle:      6 Defect Energy:   4.827531  Gnorm:     0.000534  CPU:   20.139
  Cycle:      7 Defect Energy:   4.826243  Gnorm:     0.000339  CPU:   21.301
  Cycle:      8 Defect Energy:   4.825870  Gnorm:     0.000235  CPU:   22.492
  Cycle:      9 Defect Energy:   4.825722  Gnorm:     0.000163  CPU:   23.538
  Cycle:     10 Defect Energy:   4.825674  Gnorm:     0.000107  CPU:   24.660
  ** Hessian calculated **
  Cycle:     11 Defect Energy:   4.825670  Gnorm:     0.000075  CPU:   27.794
  Cycle:     12 Defect Energy:   4.825678  Gnorm:     0.000053  CPU:   28.985
  Cycle:     13 Defect Energy:   4.825690  Gnorm:     0.000037  CPU:   30.157
  Cycle:     14 Defect Energy:   4.825700  Gnorm:     0.000026  CPU:   31.395


  **** Optimisation achieved ****


  Final defect energy  =        4.82570938
  Final defect Gnorm   =        0.00001805

  Components of defect energy : 

--------------------------------------------------------------------------------
  Region 1 - region 1                   =      6.18131110 eV
  Region 1 - region 2a (unrelaxed)      =     -0.83898474 eV
  Region 1 - 2a (relaxed - correction)  =     -0.21814101 eV
  Region 1 (Total)                      =      5.12418535 eV
  Region 2a                             =      0.10908600 eV
  Region 2b                             =     -0.40756198 eV
--------------------------------------------------------------------------------
  Total defect energy                   =      4.82570938 eV
--------------------------------------------------------------------------------

  Largest displacement in region 2 =   0.0182 Angstroms

  Final coordinates of region 1 :

--------------------------------------------------------------------------------
   No.  Atomic        x           y           z          Radius      Charge
        Label       (Angs)      (Angs)      (Angs)       (Angs)       (e) 
--------------------------------------------------------------------------------
     1  Na    c     2.202951    1.982656    0.220295    0.000000    1.000000
     2  O     c     2.202951    2.374212    2.285019    0.000000    0.183000
     3  Cl    c     4.508125    0.005644   -0.076094    0.000000    1.485000
     4  Cl    c    -0.102223    0.005644   -0.076094    0.000000    1.485000
     5  Na    c     4.318025    1.958679    2.271040    0.000000    1.000000
     6  Na    c     0.087878    1.958679    2.271040    0.000000    1.000000
     7  O     c     2.202951    2.191979   -2.122852    0.000000    0.183000
     8  O     c     2.202951   -2.354505    2.217862    0.000000    0.183000
     9  Na    c     2.202951    1.917095    4.363122    0.000000    1.000000
    10  Na    c     2.202951   -1.970041    0.108648    0.000000    1.000000
    11  Na    c     2.202951    0.010183   -2.233023    0.000000    1.000000
    12  Na    c     2.202951    4.459342    2.301871    0.000000    1.000000
    13  Cl    c     4.513871    0.002138    4.526785    0.000000    1.485000
    14  Cl    c    -0.107969    0.002138    4.526785    0.000000    1.485000
    15  Na    c     4.393926    2.203349   -2.114165    0.000000    1.000000
    16  Na    c     0.011976    2.203349   -2.114165    0.000000    1.000000
    17  Cl    c     4.471069    4.492026   -0.043416    0.000000    1.485000
    18  Cl    c    -0.065166    4.492026   -0.043416    0.000000    1.485000
    19  Na    c     4.309323   -1.937770    2.215816    0.000000    1.000000
    20  Na    c     0.096579   -1.937770    2.215816    0.000000    1.000000
    21  O     c     2.202951   -2.183951   -2.158078    0.000000    0.183000
    22  Na    c     2.202951   -1.939669    4.324366    0.000000    1.000000
    23  Na    c     2.202951    4.379629   -1.994595    0.000000    1.000000
    24  O     c     6.579471    2.191411    2.219577    0.000000    0.183000
    25  O     c    -2.173569    2.191411    2.219577    0.000000    0.183000
    26  Na    c     6.565066    2.204808    0.020511    0.000000    1.000000
    27  Na    c    -2.159164    2.204808    0.020511    0.000000    1.000000
    28  Na    c     6.718470    0.001556    2.203739    0.000000    1.000000
    29  Na    c    -2.312567    0.001556    2.203739    0.000000    1.000000
    30  Cl    c     4.477845    4.497331    4.484668    0.000000    1.485000
    31  Cl    c    -0.071943    4.497331    4.484668    0.000000    1.485000
    32  Na    c     4.399496   -2.201068   -2.156558    0.000000    1.000000
    33  Na    c     0.006407   -2.201068   -2.156558    0.000000    1.000000
    34  O     c     2.202951    2.187302    6.603008    0.000000    0.183000
    35  O     c     2.202951    6.668094    2.220382    0.000000    0.183000
    36  O     c     6.608065    2.212187   -2.193450    0.000000    0.183000
    37  O     c    -2.202162    2.212187   -2.193450    0.000000    0.183000
    38  Na    c     2.202951    2.280569   -4.350981    0.000000    1.000000
    39  Na    c     2.202951    6.628972    0.022546    0.000000    1.000000
    40  Na    c     6.586566    2.198335    4.416438    0.000000    1.000000
    41  Na    c    -2.180663    2.198335    4.416438    0.000000    1.000000
    42  Na    c     2.202951   -0.002282    6.755667    0.000000    1.000000
    43  Na    c     2.202951   -4.440054    2.224575    0.000000    1.000000
    44  Na    c     6.587205    0.002399   -2.174536    0.000000    1.000000
    45  Na    c    -2.181303    0.002399   -2.174536    0.000000    1.000000
    46  O     c     6.576785   -2.185877    2.209774    0.000000    0.183000
    47  O     c    -2.170883   -2.185877    2.209774    0.000000    0.183000
    48  Na    c     6.560997   -2.207717    0.011700    0.000000    1.000000
    49  Na    c    -2.155094   -2.207717    0.011700    0.000000    1.000000
    50  Na    c     6.424142    4.387099    2.214457    0.000000    1.000000
    51  Na    c    -2.018240    4.387099    2.214457    0.000000    1.000000
    52  Cl    c     4.403089    0.002033   -4.417012    0.000000    1.485000
    53  Cl    c     0.002814    0.002033   -4.417012    0.000000    1.485000
    54  Cl    c     4.469919   -4.484685   -0.065326    0.000000    1.485000
    55  Cl    c    -0.064016   -4.484685   -0.065326    0.000000    1.485000
    56  Na    c     4.404141    2.207924    6.587108    0.000000    1.000000
    57  Na    c     0.001762    2.207924    6.587108    0.000000    1.000000
    58  Na    c     4.401610    6.660196    2.209707    0.000000    1.000000
    59  Na    c     0.004292    6.660196    2.209707    0.000000    1.000000
    60  O     c     2.202951    6.600327   -2.179548    0.000000    0.183000
    61  O     c     2.202951   -2.185890    6.588464    0.000000    0.183000
    62  Na    c     2.202951    6.697227    4.416107    0.000000    1.000000
    63  Na    c     2.202951   -2.267087   -4.370530    0.000000    1.000000
    64  Na    c     2.202951    4.387247    6.433985    0.000000    1.000000
    65  Na    c     2.202951   -4.383241   -2.034783    0.000000    1.000000
    66  O     c     6.609984   -2.207839   -2.201622    0.000000    0.183000
    67  O     c    -2.204081   -2.207839   -2.201622    0.000000    0.183000
    68  Na    c     6.569658   -2.198156    4.407945    0.000000    1.000000
    69  Na    c    -2.163756   -2.198156    4.407945    0.000000    1.000000
    70  Na    c     6.594617    4.409496   -2.185180    0.000000    1.000000
    71  Na    c    -2.188714    4.409496   -2.185180    0.000000    1.000000
    72  Cl    c     8.831973    0.004802    0.004965    0.000000    1.485000
    73  Cl    c    -4.426071    0.004802    0.004965    0.000000    1.485000
    74  Na    c     8.788060    2.306029    2.211094    0.000000    1.000000
    75  Na    c    -4.382158    2.306029    2.211094    0.000000    1.000000
    76  Cl    c     4.411957    4.407991   -4.418735    0.000000    1.485000
    77  Cl    c    -0.006055    4.407991   -4.418735    0.000000    1.485000
    78  Cl    c     4.472440   -4.486211    4.475261    0.000000    1.485000
    79  Cl    c    -0.066537   -4.486211    4.475261    0.000000    1.485000
    80  Na    c     4.407227    6.584519   -2.182358    0.000000    1.000000
    81  Na    c    -0.001324    6.584519   -2.182358    0.000000    1.000000
    82  Na    c     4.402002   -2.207144    6.576895    0.000000    1.000000
    83  Na    c     0.003900   -2.207144    6.576895    0.000000    1.000000
    84  O     c     6.616287    2.211852    6.623246    0.000000    0.183000
    85  O     c    -2.210385    2.211852    6.623246    0.000000    0.183000
    86  O     c     6.600659    6.606175    2.207858    0.000000    0.183000
    87  O     c    -2.194757    6.606175    2.207858    0.000000    0.183000
    88  Na    c     6.580998    2.203520   -4.389323    0.000000    1.000000
    89  Na    c    -2.175096    2.203520   -4.389323    0.000000    1.000000
    90  Na    c     6.599233    6.583342    0.002707    0.000000    1.000000
    91  Na    c    -2.193331    6.583342    0.002707    0.000000    1.000000
    92  Na    c     6.588453   -0.000755    6.607060    0.000000    1.000000
    93  Na    c    -2.182551   -0.000755    6.607060    0.000000    1.000000
    94  Na    c     6.425718   -4.383374    2.213951    0.000000    1.000000
    95  Na    c    -2.019816   -4.383374    2.213951    0.000000    1.000000
    96  Cl    c     8.836212    0.004975    4.412406    0.000000    1.485000
    97  Cl    c    -4.430309    0.004975    4.412406    0.000000    1.485000
    98  Cl    c     8.834283    4.409824   -0.001546    0.000000    1.485000
    99  Cl    c    -4.428381    4.409824   -0.001546    0.000000    1.485000
   100  Na    c     8.801742    2.205651   -2.186248    0.000000    1.000000
   101  Na    c    -4.395840    2.205651   -2.186248    0.000000    1.000000
   102  Na    c     8.784846   -2.304249    2.208180    0.000000    1.000000
   103  Na    c    -4.378944   -2.304249    2.208180    0.000000    1.000000
   104  O     c     2.202951    2.205592   -6.584320    0.000000    0.183000
   105  O     c     2.202951    6.610588    6.608330    0.000000    0.183000
   106  O     c     2.202951   -6.652737    2.204278    0.000000    0.183000
   107  Na    c     2.202951    2.300251    8.804036    0.000000    1.000000
   108  Na    c     2.202951    6.518559   -4.379740    0.000000    1.000000
   109  Na    c     2.202951   -6.639282    0.006999    0.000000    1.000000
   110  Na    c     2.202951    0.001082   -6.515679    0.000000    1.000000
   111  Na    c     2.202951    8.846278    2.191942    0.000000    1.000000
   112  Na    c     2.202951   -4.384494    6.437951    0.000000    1.000000
   113  O     c     6.619130    6.618399   -2.209531    0.000000    0.183000
   114  O     c    -2.213228    6.618399   -2.209531    0.000000    0.183000
   115  O     c     6.614979   -2.210768    6.619216    0.000000    0.183000
   116  O     c    -2.209077   -2.210768    6.619216    0.000000    0.183000
   117  Na    c     6.598242    6.586154    4.412864    0.000000    1.000000
   118  Na    c    -2.192340    6.586154    4.412864    0.000000    1.000000
   119  Na    c     6.595926   -2.201311   -4.395797    0.000000    1.000000
   120  Na    c    -2.190024   -2.201311   -4.395797    0.000000    1.000000
   121  Na    c     6.605210    4.410948    6.602643    0.000000    1.000000
   122  Na    c    -2.199307    4.410948    6.602643    0.000000    1.000000
   123  Na    c     6.595534   -4.408436   -2.194009    0.000000    1.000000
   124  Na    c    -2.189632   -4.408436   -2.194009    0.000000    1.000000
   125  Cl    c     4.410090    0.000100    8.841466    0.000000    1.485000
   126  Cl    c    -0.004188    0.000100    8.841466    0.000000    1.485000
   127  Cl    c     4.412473   -4.407432   -4.428494    0.000000    1.485000
   128  Cl    c    -0.006570   -4.407432   -4.428494    0.000000    1.485000
   129  Cl    c     8.838708    4.409959    4.417461    0.000000    1.485000
   130  Cl    c    -4.432806    4.409959    4.417461    0.000000    1.485000
   131  Na    c     4.401141    2.191728   -6.578719    0.000000    1.000000
   132  Na    c     0.004762    2.191728   -6.578719    0.000000    1.000000
   133  Na    c     4.410214    6.578658    6.605104    0.000000    1.000000
   134  Na    c    -0.004311    6.578658    6.605104    0.000000    1.000000
   135  Na    c     8.802291   -2.202933   -2.184666    0.000000    1.000000
   136  Na    c    -4.396389   -2.202933   -2.184666    0.000000    1.000000
   137  Cl    c     4.409975    8.841570    0.000058    0.000000    1.485000
   138  Cl    c    -0.004073    8.841570    0.000058    0.000000    1.485000
   139  Na    c     4.399862   -6.651636    2.200224    0.000000    1.000000
   140  Na    c     0.006040   -6.651636    2.200224    0.000000    1.000000
   141  O     c     2.202951   -2.205149   -6.593013    0.000000    0.183000
   142  O     c     2.202951   -6.603818   -2.193728    0.000000    0.183000
   143  Na    c     2.202951   -2.298871    8.796790    0.000000    1.000000
   144  Na    c     2.202951   -6.651786    4.401563    0.000000    1.000000
   145  Na    c     2.202951    4.399730   -6.623702    0.000000    1.000000
   146  Na    c     2.202951    8.801041   -2.214773    0.000000    1.000000
   147  Cl    c     4.412436    4.413416    8.837551    0.000000    1.485000
   148  Cl    c    -0.006533    4.413416    8.837551    0.000000    1.485000
   149  Cl    c     8.823028    0.003742   -4.418138    0.000000    1.485000
   150  Cl    c    -4.417126    0.003742   -4.418138    0.000000    1.485000
   151  Na    c     4.402835   -2.195735   -6.584931    0.000000    1.000000
   152  Na    c     0.003067   -2.195735   -6.584931    0.000000    1.000000
   153  Na    c     8.809429    2.199551    6.608375    0.000000    1.000000
   154  Na    c    -4.403527    2.199551    6.608375    0.000000    1.000000
   155  Cl    c     4.408210    8.844217    4.411925    0.000000    1.485000
   156  Cl    c    -0.002308    8.844217    4.411925    0.000000    1.485000
   157  Cl    c     8.834412   -4.407915   -0.003473    0.000000    1.485000
   158  Cl    c    -4.428510   -4.407915   -0.003473    0.000000    1.485000
   159  Na    c     4.407966   -6.583070   -2.187699    0.000000    1.000000
   160  Na    c    -0.002063   -6.583070   -2.187699    0.000000    1.000000
   161  Na    c     8.798031    6.520276    2.207327    0.000000    1.000000
   162  Na    c    -4.392129    6.520276    2.207327    0.000000    1.000000
   163  O     c     6.606270    2.201379   -6.602972    0.000000    0.183000
   164  O     c    -2.200367    2.201379   -6.602972    0.000000    0.183000
   165  O     c     6.622140    6.618692    6.621955    0.000000    0.183000
   166  O     c    -2.216238    6.618692    6.621955    0.000000    0.183000
   167  Na    c     6.597425    2.203099    8.812972    0.000000    1.000000
   168  Na    c    -2.191523    2.203099    8.812972    0.000000    1.000000
   169  Na    c     6.603596    6.600391   -4.402973    0.000000    1.000000
   170  Na    c    -2.197694    6.600391   -4.402973    0.000000    1.000000
   171  Na    c     6.612131    0.000531   -6.590245    0.000000    1.000000
   172  Na    c    -2.206229    0.000531   -6.590245    0.000000    1.000000
   173  Na    c     6.598646   -4.409713    6.592922    0.000000    1.000000
   174  Na    c    -2.192744   -4.409713    6.592922    0.000000    1.000000
   175  O     c     6.598399   -6.602880    2.203341    0.000000    0.183000
   176  O     c    -2.192496   -6.602880    2.203341    0.000000    0.183000
   177  O     c    11.005026    2.207352    2.205737    0.000000    0.183000
   178  O     c    -6.599124    2.207352    2.205737    0.000000    0.183000
   179  Na    c     6.602819   -6.575486   -0.000177    0.000000    1.000000
   180  Na    c    -2.196917   -6.575486   -0.000177    0.000000    1.000000
   181  Na    c    10.990823    2.187005    0.005088    0.000000    1.000000
   182  Na    c    -6.584921    2.187005    0.005088    0.000000    1.000000
   183  Na    c     6.642657    8.804636    2.202487    0.000000    1.000000
   184  Na    c    -2.236755    8.804636    2.202487    0.000000    1.000000
   185  Na    c    10.915360   -0.000035    2.210423    0.000000    1.000000
   186  Na    c    -6.509458   -0.000035    2.210423    0.000000    1.000000
   187  Cl    c     8.825714    4.416108   -4.417028    0.000000    1.485000
   188  Cl    c    -4.419812    4.416108   -4.417028    0.000000    1.485000
   189  Cl    c     8.835980   -4.404140    4.413687    0.000000    1.485000
   190  Cl    c    -4.430078   -4.404140    4.413687    0.000000    1.485000
   191  Na    c     8.812352    6.608234   -2.197925    0.000000    1.000000
   192  Na    c    -4.406449    6.608234   -2.197925    0.000000    1.000000
   193  Na    c     8.807614   -2.198147    6.605238    0.000000    1.000000
   194  Na    c    -4.401712   -2.198147    6.605238    0.000000    1.000000
   195  O     c     2.202951    6.599947   -6.599516    0.000000    0.183000
   196  O     c     2.202951   -6.603511    6.597349    0.000000    0.183000
   197  O     c     6.607546   -2.201046   -6.605952    0.000000    0.183000
   198  O     c    -2.201644   -2.201046   -6.605952    0.000000    0.183000
   199  Na    c     2.202951    6.537681    8.803425    0.000000    1.000000
   200  Na    c     2.202951   -6.547940   -4.392301    0.000000    1.000000
   201  Na    c     6.598542   -2.213780    8.812374    0.000000    1.000000
   202  Na    c    -2.192639   -2.213780    8.812374    0.000000    1.000000
   203  Na    c     2.202951    8.808535    6.657740    0.000000    1.000000
   204  Na    c     2.202951   -4.403608   -6.624171    0.000000    1.000000
   205  Na    c     6.596444    4.403211   -6.602257    0.000000    1.000000
   206  Na    c    -2.190542    4.403211   -6.602257    0.000000    1.000000
   207  O     c     6.618454   -6.615577   -2.212277    0.000000    0.183000
   208  O     c    -2.212551   -6.615577   -2.212277    0.000000    0.183000
   209  O     c    11.011932    2.203172   -2.199443    0.000000    0.183000
   210  O     c    -6.606030    2.203172   -2.199443    0.000000    0.183000
   211  O     c    11.001256   -2.205400    2.205355    0.000000    0.183000
   212  O     c    -6.595354   -2.205400    2.205355    0.000000    0.183000
   213  Na    c     6.592876   -6.592442    4.409106    0.000000    1.000000
   214  Na    c    -2.186974   -6.592442    4.409106    0.000000    1.000000
   215  Na    c    10.998261    2.196653    4.406906    0.000000    1.000000
   216  Na    c    -6.592359    2.196653    4.406906    0.000000    1.000000
   217  Na    c    10.992800   -2.193023    0.004983    0.000000    1.000000
   218  Na    c    -6.586898   -2.193023    0.004983    0.000000    1.000000
   219  Na    c     6.606445    8.811992   -2.199866    0.000000    1.000000
   220  Na    c    -2.200543    8.811992   -2.199866    0.000000    1.000000
   221  Na    c    10.998132    0.001168   -2.211479    0.000000    1.000000
   222  Na    c    -6.592229    0.001168   -2.211479    0.000000    1.000000
   223  Na    c    11.054385    4.402768    2.201076    0.000000    1.000000
   224  Na    c    -6.648483    4.402768    2.201076    0.000000    1.000000
   225  Cl    c     4.410592    8.824502   -4.410867    0.000000    1.485000
   226  Cl    c    -0.004690    8.824502   -4.410867    0.000000    1.485000
   227  Cl    c     4.411897   -4.404098    8.836871    0.000000    1.485000
   228  Cl    c    -0.005995   -4.404098    8.836871    0.000000    1.485000
   229  Na    c     4.403310    6.605729   -6.594696    0.000000    1.000000
   230  Na    c     0.002592    6.605729   -6.594696    0.000000    1.000000
   231  Na    c     4.407642   -6.586512    6.600867    0.000000    1.000000
   232  Na    c    -0.001739   -6.586512    6.600867    0.000000    1.000000
   233  O     c     2.202951    2.211489   11.014356    0.000000    0.183000
   234  O     c     2.202951   11.029393    2.202165    0.000000    0.183000
   235  O     c    11.010318   -2.199855   -2.200404    0.000000    0.183000
   236  O     c    -6.604416   -2.199855   -2.200404    0.000000    0.183000
   237  Na    c     2.202951    2.174198   -8.797592    0.000000    1.000000
   238  Na    c     2.202951   11.016593   -0.003729    0.000000    1.000000
   239  Na    c    10.998051   -2.200060    4.406611    0.000000    1.000000
   240  Na    c    -6.592148   -2.200060    4.406611    0.000000    1.000000
   241  Na    c     2.202951   -0.001715   10.960094    0.000000    1.000000
   242  Na    c     2.202951   -8.833529    2.202537    0.000000    1.000000
   243  Na    c    11.008167    4.405223   -2.186845    0.000000    1.000000
   244  Na    c    -6.602265    4.405223   -2.186845    0.000000    1.000000
   245  Cl    c     4.406342    0.001301   -8.826422    0.000000    1.485000
   246  Cl    c    -0.000440    0.001301   -8.826422    0.000000    1.485000
   247  Cl    c     8.825675    0.004741    8.825232    0.000000    1.485000
   248  Cl    c    -4.419773    0.004741    8.825232    0.000000    1.485000
   249  Cl    c     8.820395    8.824900   -0.002716    0.000000    1.485000
   250  Cl    c    -4.414493    8.824900   -0.002716    0.000000    1.485000
   251  Cl    c     8.823916   -4.411017   -4.421482    0.000000    1.485000
   252  Cl    c    -4.418013   -4.411017   -4.421482    0.000000    1.485000
   253  Na    c     4.403565    2.187180   11.008248    0.000000    1.000000
   254  Na    c     0.002337    2.187180   11.008248    0.000000    1.000000
   255  Na    c     8.808098    2.211259   -6.593476    0.000000    1.000000
   256  Na    c    -4.402196    2.211259   -6.593476    0.000000    1.000000
   257  Na    c     8.815402    6.612237    6.611784    0.000000    1.000000
   258  Na    c    -4.409499    6.612237    6.611784    0.000000    1.000000
   259  Na    c     8.798884   -6.542858    2.218402    0.000000    1.000000
   260  Na    c    -4.392982   -6.542858    2.218402    0.000000    1.000000
   261  Cl    c     4.409489   -8.837316   -0.004286    0.000000    1.485000
   262  Cl    c    -0.003587   -8.837316   -0.004286    0.000000    1.485000
   263  Na    c     4.410307   11.010021    2.203756    0.000000    1.000000
   264  Na    c    -0.004404   11.010021    2.203756    0.000000    1.000000
   265  O     c     2.202951   11.015481   -2.206885    0.000000    0.183000
   266  O     c     2.202951   -2.212365   11.010690    0.000000    0.183000
   267  O     c     6.608005    6.609091   -6.608568    0.000000    0.183000
   268  O     c    -2.202103    6.609091   -6.608568    0.000000    0.183000
   269  O     c     6.618783   -6.616226    6.618838    0.000000    0.183000
   270  O     c    -2.212881   -6.616226    6.618838    0.000000    0.183000
[...]
    260 y          6.608853      6.600344    -0.008509    Cartesian   -0.13
    260 z         -2.202951     -2.179525     0.023426    Cartesian   -1.06
    261 x          2.202951      2.202951     0.000000    Cartesian    0.00
    261 y         -2.202951     -2.185867     0.017084    Cartesian   -0.78
    261 z          6.608853      6.588534    -0.020320    Cartesian   -0.31
    262 x          6.608853      6.609988     0.001134    Cartesian    0.02
    262 y         -2.202951     -2.207847    -0.004896    Cartesian    0.22
    262 z         -2.202951     -2.201628     0.001323    Cartesian   -0.06
    263 x          8.811805      8.836243     0.024438    Cartesian    0.28
    263 y          0.000000      0.005417     0.005417    Cartesian    0.00
    263 z          0.000000      0.005631     0.005631    Cartesian    0.00
    264 x          4.405902      4.413295     0.007393    Cartesian    0.17
    264 y          4.405902      4.409385     0.003483    Cartesian    0.08
    264 z         -4.405902     -4.423951    -0.018049    Cartesian    0.41
    265 x          4.405902      4.484450     0.078548    Cartesian    1.78
    265 y         -4.405902     -4.498552    -0.092649    Cartesian    2.10
    265 z          4.405902      4.486661     0.080759    Cartesian    1.83
    266 x          6.608853      6.616294     0.007441    Cartesian    0.11
    266 y          2.202951      2.211860     0.008909    Cartesian    0.40
    266 z          6.608853      6.623251     0.014398    Cartesian    0.22
    267 x          6.608853      6.600637    -0.008216    Cartesian   -0.12
    267 y          6.608853      6.606193    -0.002660    Cartesian   -0.04
    267 z          2.202951      2.207859     0.004907    Cartesian    0.22
    268 x          8.811805      8.840523     0.028719    Cartesian    0.33
    268 y          0.000000      0.005754     0.005754    Cartesian    0.00
    268 z          4.405902      4.411839     0.005936    Cartesian    0.13
    269 x          8.811805      8.839049     0.027245    Cartesian    0.31
    269 y          4.405902      4.410667     0.004764    Cartesian    0.11
    269 z          0.000000     -0.002149    -0.002149    Cartesian    0.00
    270 x          2.202951      2.202951     0.000000    Cartesian    0.00
    270 y          2.202951      2.205607     0.002656    Cartesian    0.12
    270 z         -6.608853     -6.584337     0.024517    Cartesian   -0.37
    271 x          2.202951      2.202951     0.000000    Cartesian    0.00
    271 y          6.608853      6.610616     0.001763    Cartesian    0.03
    271 z          6.608853      6.608307    -0.000547    Cartesian   -0.01
    272 x          2.202951      2.202951     0.000000    Cartesian    0.00
    272 y         -6.608853     -6.652772    -0.043919    Cartesian    0.66
    272 z          2.202951      2.204280     0.001328    Cartesian    0.06
    273 x          6.608853      6.619139     0.010286    Cartesian    0.16
    273 y          6.608853      6.618400     0.009546    Cartesian    0.14
    273 z         -2.202951     -2.209540    -0.006589    Cartesian    0.30
    274 x          6.608853      6.614985     0.006132    Cartesian    0.09
    274 y         -2.202951     -2.210776    -0.007825    Cartesian    0.36
    274 z          6.608853      6.619221     0.010368    Cartesian    0.16
    275 x          4.405902      4.410143     0.004241    Cartesian    0.10
    275 y          0.000000      0.000445     0.000445    Cartesian    0.00
    275 z          8.811805      8.844612     0.032807    Cartesian    0.37
    276 x          4.405902      4.413851     0.007949    Cartesian    0.18
    276 y         -4.405902     -4.407965    -0.002063    Cartesian    0.05
    276 z         -4.405902     -4.433597    -0.027695    Cartesian    0.63
    277 x          8.811805      8.843464     0.031659    Cartesian    0.36
    277 y          4.405902      4.410549     0.004647    Cartesian    0.11
    277 z          4.405902      4.417986     0.012084    Cartesian    0.27
    278 x          4.405902      4.409729     0.003827    Cartesian    0.09
    278 y          8.811805      8.844643     0.032838    Cartesian    0.37
    278 z          0.000000      0.000532     0.000532    Cartesian    0.00
    279 x          2.202951      2.202951     0.000000    Cartesian    0.00
    279 y         -2.202951     -2.205161    -0.002210    Cartesian    0.10
    279 z         -6.608853     -6.593020     0.015834    Cartesian   -0.24
    280 x          2.202951      2.202951     0.000000    Cartesian    0.00
    280 y         -6.608853     -6.603836     0.005018    Cartesian   -0.08
    280 z         -2.202951     -2.193706     0.009245    Cartesian   -0.42
    281 x          4.405902      4.413225     0.007323    Cartesian    0.17
    281 y          4.405902      4.414721     0.008819    Cartesian    0.20
    281 z          8.811805      8.842290     0.030485    Cartesian    0.35
    282 x          8.811805      8.826105     0.014300    Cartesian    0.16
    282 y          0.000000      0.003802     0.003802    Cartesian    0.00
    282 z         -4.405902     -4.421184    -0.015282    Cartesian    0.35
    283 x          4.405902      4.407385     0.001483    Cartesian    0.03
    283 y          8.811805      8.847031     0.035227    Cartesian    0.40
    283 z          4.405902      4.411580     0.005677    Cartesian    0.13
    284 x          8.811805      8.839676     0.027872    Cartesian    0.32
    284 y         -4.405902     -4.408167    -0.002265    Cartesian    0.05
    284 z          0.000000     -0.004565    -0.004565    Cartesian    0.00
    285 x          6.608853      6.606267    -0.002586    Cartesian   -0.04
    285 y          2.202951      2.201377    -0.001574    Cartesian   -0.07
    285 z         -6.608853     -6.602977     0.005877    Cartesian   -0.09
    286 x          6.608853      6.622151     0.013297    Cartesian    0.20
    286 y          6.608853      6.618695     0.009842    Cartesian    0.15
    286 z          6.608853      6.621966     0.013113    Cartesian    0.20
    287 x          6.608853      6.598372    -0.010481    Cartesian   -0.16
    287 y         -6.608853     -6.602901     0.005953    Cartesian   -0.09
    287 z          2.202951      2.203342     0.000391    Cartesian    0.02
    288 x         11.014756     11.005032    -0.009723    Cartesian   -0.09
    288 y          2.202951      2.207372     0.004420    Cartesian    0.20
    288 z          2.202951      2.205737     0.002786    Cartesian    0.13
    289 x          8.811805      8.828524     0.016720    Cartesian    0.19
    289 y          4.405902      4.417942     0.012040    Cartesian    0.27
    289 z         -4.405902     -4.419622    -0.013719    Cartesian    0.31
    290 x          8.811805      8.841071     0.029267    Cartesian    0.33
    290 y         -4.405902     -4.404005     0.001898    Cartesian   -0.04
    290 z          4.405902      4.414448     0.008546    Cartesian    0.19
    291 x          2.202951      2.202951     0.000000    Cartesian    0.00
    291 y          6.608853      6.599935    -0.008919    Cartesian   -0.13
    291 z         -6.608853     -6.599533     0.009320    Cartesian   -0.14
    292 x          2.202951      2.202951     0.000000    Cartesian    0.00
    292 y         -6.608853     -6.603534     0.005320    Cartesian   -0.08
    292 z          6.608853      6.597325    -0.011529    Cartesian   -0.17
    293 x          6.608853      6.607547    -0.001306    Cartesian   -0.02
    293 y         -2.202951     -2.201042     0.001909    Cartesian   -0.09
    293 z         -6.608853     -6.605955     0.002899    Cartesian   -0.04
    294 x          6.608853      6.618464     0.009610    Cartesian    0.15
    294 y         -6.608853     -6.615579    -0.006725    Cartesian    0.10
    294 z         -2.202951     -2.212287    -0.009335    Cartesian    0.42
    295 x         11.014756     11.011936    -0.002819    Cartesian   -0.03
    295 y          2.202951      2.203170     0.000219    Cartesian    0.01
    295 z         -2.202951     -2.199442     0.003509    Cartesian   -0.16
    296 x         11.014756     11.001263    -0.013493    Cartesian   -0.12
    296 y         -2.202951     -2.205415    -0.002464    Cartesian    0.11
    296 z          2.202951      2.205354     0.002403    Cartesian    0.11
    297 x          4.405902      4.411675     0.005772    Cartesian    0.13
    297 y          8.811805      8.827759     0.015954    Cartesian    0.18
    297 z         -4.405902     -4.412705    -0.006803    Cartesian    0.15
    298 x          4.405902      4.412600     0.006697    Cartesian    0.15
    298 y         -4.405902     -4.403594     0.002308    Cartesian   -0.05
    298 z          8.811805      8.841528     0.029724    Cartesian    0.34
    299 x          2.202951      2.202951     0.000000    Cartesian    0.00
    299 y          2.202951      2.211515     0.008564    Cartesian    0.39
    299 z         11.014756     11.014360    -0.000395    Cartesian   -0.00
    300 x          2.202951      2.202951     0.000000    Cartesian    0.00
    300 y         11.014756     11.029374     0.014618    Cartesian    0.13
    300 z          2.202951      2.202161    -0.000790    Cartesian   -0.04
    301 x         11.014756     11.010320    -0.004435    Cartesian   -0.04
    301 y         -2.202951     -2.199852     0.003099    Cartesian   -0.14
    301 z         -2.202951     -2.200405     0.002546    Cartesian   -0.12
    302 x          4.405902      4.406829     0.000927    Cartesian    0.02
    302 y          0.000000      0.001420     0.001420    Cartesian    0.00
    302 z         -8.811805     -8.829896    -0.018092    Cartesian    0.21
    303 x          8.811805      8.828109     0.016304    Cartesian    0.19
    303 y          0.000000      0.005926     0.005926    Cartesian    0.00
    303 z          8.811805      8.827179     0.015375    Cartesian    0.17
    304 x          8.811805      8.821897     0.010092    Cartesian    0.11
    304 y          8.811805      8.827830     0.016026    Cartesian    0.18
    304 z          0.000000     -0.003178    -0.003178    Cartesian    0.00
    305 x          8.811805      8.825945     0.014140    Cartesian    0.16
    305 y         -4.405902     -4.411510    -0.005607    Cartesian    0.13
    305 z         -4.405902     -4.423995    -0.018092    Cartesian    0.41
    306 x          4.405902      4.409179     0.003276    Cartesian    0.07
    306 y         -8.811805     -8.839399    -0.027594    Cartesian    0.31
    306 z          0.000000     -0.004136    -0.004136    Cartesian    0.00
    307 x          2.202951      2.202951     0.000000    Cartesian    0.00
    307 y         11.014756     11.015489     0.000734    Cartesian    0.01
    307 z         -2.202951     -2.206891    -0.003940    Cartesian    0.18
    308 x          2.202951      2.202951     0.000000    Cartesian    0.00
    308 y         -2.202951     -2.212390    -0.009439    Cartesian    0.43
    308 z         11.014756     11.010692    -0.004064    Cartesian   -0.04
    309 x          6.608853      6.608007    -0.000847    Cartesian   -0.01
    309 y          6.608853      6.609094     0.000241    Cartesian    0.00
    309 z         -6.608853     -6.608563     0.000291    Cartesian   -0.00
    310 x          6.608853      6.618794     0.009941    Cartesian    0.15
    310 y         -6.608853     -6.616225    -0.007371    Cartesian    0.11
    310 z          6.608853      6.618847     0.009994    Cartesian    0.15
    311 x         11.014756     11.018086     0.003330    Cartesian    0.03
    311 y          2.202951      2.203481     0.000530    Cartesian    0.02
    311 z          6.608853      6.609938     0.001085    Cartesian    0.02
    312 x         11.014756     11.014621    -0.000135    Cartesian   -0.00
    312 y          6.608853      6.600745    -0.008108    Cartesian   -0.12
    312 z          2.202951      2.204282     0.001331    Cartesian    0.06
    313 x          8.811805      8.826318     0.014513    Cartesian    0.16
    313 y          8.811805      8.829445     0.017640    Cartesian    0.20
    313 z          4.405902      4.409256     0.003354    Cartesian    0.08
    314 x          4.405902      4.407104     0.001202    Cartesian    0.03
    314 y          4.405902      4.410619     0.004717    Cartesian    0.11
    314 z         -8.811805     -8.826973    -0.015168    Cartesian    0.17
    315 x          4.405902      4.407916     0.002014    Cartesian    0.05
    315 y         -8.811805     -8.842560    -0.030755    Cartesian    0.35
    315 z          4.405902      4.406559     0.000657    Cartesian    0.01
    316 x          8.811805      8.832393     0.020588    Cartesian    0.23
    316 y          4.405902      4.414479     0.008577    Cartesian    0.19
    316 z          8.811805      8.828709     0.016904    Cartesian    0.19
    317 x          2.202951      2.202951     0.000000    Cartesian    0.00
    317 y         -6.608853     -6.606516     0.002337    Cartesian   -0.04
    317 z         -6.608853     -6.610386    -0.001532    Cartesian    0.02
    318 x          6.608853      6.609527     0.000673    Cartesian    0.01
    318 y          2.202951      2.201929    -0.001022    Cartesian   -0.05
    318 z         11.014756     11.018580     0.003824    Cartesian    0.03
    319 x          6.608853      6.615118     0.006264    Cartesian    0.09
    319 y         11.014756     11.016312     0.001556    Cartesian    0.01
    319 z          2.202951      2.202727    -0.000224    Cartesian   -0.01
    320 x         11.014756     11.017341     0.002586    Cartesian    0.02
    320 y          6.608853      6.611817     0.002964    Cartesian    0.04
    320 z         -2.202951     -2.202105     0.000847    Cartesian   -0.04
    321 x         11.014756     11.017576     0.002821    Cartesian    0.03
    321 y         -2.202951     -2.200669     0.002283    Cartesian   -0.10
    321 z          6.608853      6.611779     0.002926    Cartesian    0.04
    322 x          4.405902      4.411446     0.005544    Cartesian    0.13
    322 y          8.811805      8.831589     0.019784    Cartesian    0.22
    322 z          8.811805      8.826413     0.014609    Cartesian    0.17
    323 x         13.217707     13.242773     0.025066    Cartesian    0.19
    323 y          0.000000      0.000542     0.000542    Cartesian    0.00
    323 z          0.000000     -0.001376    -0.001376    Cartesian    0.00
    324 x          6.608853      6.611685     0.002831    Cartesian    0.04
    324 y         11.014756     11.020660     0.005905    Cartesian    0.05
    324 z         -2.202951     -2.205820    -0.002869    Cartesian    0.13
    325 x          2.202951      2.202951     0.000000    Cartesian    0.00
    325 y          6.608853      6.607634    -0.001219    Cartesian   -0.02
    325 z         11.014756     11.019200     0.004444    Cartesian    0.04
    326 x          2.202951      2.202951     0.000000    Cartesian    0.00
    326 y         11.014756     11.017395     0.002639    Cartesian    0.02
    326 z          6.608853      6.616120     0.007266    Cartesian    0.11
    327 x          6.608853      6.613159     0.004306    Cartesian    0.07
    327 y         -2.202951     -2.204680    -0.001729    Cartesian    0.08
    327 z         11.014756     11.021590     0.006835    Cartesian    0.06
    328 x          4.405902      4.409116     0.003214    Cartesian    0.07
    328 y         -4.405902     -4.412499    -0.006597    Cartesian    0.15
    328 z         -8.811805     -8.831556    -0.019751    Cartesian    0.22
    329 x          4.405902      4.412646     0.006744    Cartesian    0.15
    329 y         -8.811805     -8.833024    -0.021220    Cartesian    0.24
    329 z         -4.405902     -4.422074    -0.016172    Cartesian    0.37
    330 x          8.811805      8.826030     0.014226    Cartesian    0.16
    330 y          8.811805      8.829971     0.018167    Cartesian    0.21
    330 z         -4.405902     -4.419706    -0.013804    Cartesian    0.31
    331 x          8.811805      8.832372     0.020568    Cartesian    0.23
    331 y         -4.405902     -4.414560    -0.008657    Cartesian    0.20
    331 z          8.811805      8.834009     0.022204    Cartesian    0.25
    332 x         13.217707     13.245427     0.027720    Cartesian    0.21
    332 y          0.000000      0.000076     0.000076    Cartesian    0.00
    332 z          4.405902      4.407654     0.001752    Cartesian    0.04
    333 x         13.217707     13.237853     0.020146    Cartesian    0.15
    333 y          4.405902      4.412741     0.006838    Cartesian    0.16
    333 z          0.000000     -0.001532    -0.001532    Cartesian    0.00
    334 x          6.608853      6.611735     0.002882    Cartesian    0.04
    334 y         -6.608853     -6.614097    -0.005244    Cartesian    0.08
    334 z         -6.608853     -6.614134    -0.005280    Cartesian    0.08
    335 x         11.014756     11.018479     0.003723    Cartesian    0.03
    335 y          2.202951      2.206525     0.003573    Cartesian    0.16
    335 z         -6.608853     -6.611642    -0.002788    Cartesian    0.04
    336 x         11.014756     11.021282     0.006527    Cartesian    0.06
    336 y          6.608853      6.614276     0.005423    Cartesian    0.08
    336 z          6.608853      6.612682     0.003829    Cartesian    0.06
    337 x         11.014756     11.020127     0.005371    Cartesian    0.05
    337 y         -6.608853     -6.608180     0.000674    Cartesian   -0.01
    337 z          2.202951      2.205757     0.002806    Cartesian    0.13
    338 x         13.217707     13.240182     0.022476    Cartesian    0.17
    338 y          4.405902      4.414941     0.009039    Cartesian    0.21
    338 z          4.405902      4.409535     0.003633    Cartesian    0.08
    339 x          8.811805      8.822005     0.010200    Cartesian    0.12
    339 y          0.000000     -0.000288    -0.000288    Cartesian    0.00
    339 z         -8.811805     -8.833380    -0.021576    Cartesian    0.24
    340 x          8.811805      8.829453     0.017648    Cartesian    0.20
    340 y         -8.811805     -8.837293    -0.025488    Cartesian    0.29
    340 z          0.000000     -0.005641    -0.005641    Cartesian    0.00
--------------------------------------------------------------------------------


  Time to end of optimisation  =       32.5724 seconds


  Peak dynamic memory used =     107.81 MB 


  Timing analysis for GULP :

--------------------------------------------------------------------------------
  Task / Subroutine                                          Time (Seconds)
--------------------------------------------------------------------------------
  Calculation of reciprocal space energy and derivatives          0.0007
  Calculation of reciprocal space energy using symmetry           0.0014
  Calculation of real space energy and derivatives                0.0042
  Calculation of real space energy using symmetry                 0.0132
  Calculation for region 1 energy and derivatives (2-b)          17.4152
  Calculation for region 2a energy                               13.7466
  Calculation for region 2b energy                                0.0044
  Calculation and manipulation of Hessian matrix                  0.0990
  Calculation of matrix inversion                                 1.0902
  Symmetry generation of equivalent positions                     0.0050
--------------------------------------------------------------------------------
  Total CPU time                                                 32.5725
--------------------------------------------------------------------------------


  Dump file written as Na3OCl.grs


  Job Finished at 15:20.17  2nd January    2021                               

