********************************************************************************
*                       GENERAL UTILITY LATTICE PROGRAM                        *
*                                 Julian Gale                                  *
*                       Curtin Institute for Computation                       *
*                    School of Molecular and Life Sciences                     *
*                    Curtin University, Western Australia                      *
********************************************************************************
* Version = 5.2.0 * Last modified =  10th September 2020                       *
********************************************************************************
*  optimise     - perform optimisation run                                     *
*  conp         - constant pressure calculation                                *
*  property     - calculate properties for final geometry                      *
*  defect       - perform defect calculation after bulk run                    *
*  compare      - compare initial and final structures                         *
********************************************************************************

  Job Started  at 13:21.19  3rd February   2021                               

  Number of CPUs =     1


  Total number of configurations input =      1

********************************************************************************
*  Input for Configuration =   1                                               *
********************************************************************************

  Formula = O8Cl8Na24                                                   

  Number of irreducible atoms/shells =      56


  Total number atoms/shells =      56

  Dimensionality = 3               :  Bulk   



  Supercell dimensions :  x =   2  y =   2  z =   2

  Cartesian lattice vectors (Angstroms) :

        9.008000    0.000000    0.000000
        0.000000    9.008000    0.000000
        0.000000    0.000000    9.008000

  Cell parameters (Angstroms/Degrees):

  a =       9.0080    alpha =  90.0000
  b =       9.0080    beta  =  90.0000
  c =       9.0080    gamma =  90.0000

  Initial cell volume =         730.945729 Angs**3

  Temperature of configuration =   0.00     K 

  Pressure of configuration =         0.000 GPa 

  Fractional coordinates of asymmetric unit :

--------------------------------------------------------------------------------
   No.  Atomic       x           y          z         Charge      Occupancy
        Label      (Frac)      (Frac)     (Frac)        (e)         (Frac)  
--------------------------------------------------------------------------------
      1 O     c    0.000000    0.000000    0.000000     0.18300    1.000000    
      2 O     c    0.000000 *  0.000000 *  0.500000 *   0.18300    1.000000    
      3 O     c    0.000000 *  0.500000 *  0.000000 *   0.18300    1.000000    
      4 O     c    0.000000 *  0.500000 *  0.500000 *   0.18300    1.000000    
      5 O     c    0.500000 *  0.000000 *  0.000000 *   0.18300    1.000000    
      6 O     c    0.500000 *  0.000000 *  0.500000 *   0.18300    1.000000    
      7 O     c    0.500000 *  0.500000 *  0.000000 *   0.18300    1.000000    
      8 O     c    0.500000 *  0.500000 *  0.500000 *   0.18300    1.000000    
      9 Cl    c    0.250000 *  0.250000 *  0.250000 *   1.48500    1.000000    
     10 Cl    c    0.250000 *  0.250000 *  0.750000 *   1.48500    1.000000    
     11 Cl    c    0.250000 *  0.750000 *  0.250000 *   1.48500    1.000000    
     12 Cl    c    0.250000 *  0.750000 *  0.750000 *   1.48500    1.000000    
     13 Cl    c    0.750000 *  0.250000 *  0.250000 *   1.48500    1.000000    
     14 Cl    c    0.750000 *  0.250000 *  0.750000 *   1.48500    1.000000    
     15 Cl    c    0.750000 *  0.750000 *  0.250000 *   1.48500    1.000000    
     16 Cl    c    0.750000 *  0.750000 *  0.750000 *   1.48500    1.000000    
     17 Na    c    0.250000 *  0.000000 *  0.000000 *   1.00000    1.000000    
     18 Na    c    0.250000 *  0.000000 *  0.500000 *   1.00000    1.000000    
     19 Na    c    0.250000 *  0.500000 *  0.000000 *   1.00000    1.000000    
     20 Na    c    0.250000 *  0.500000 *  0.500000 *   1.00000    1.000000    
     21 Na    c    0.750000 *  0.000000 *  0.000000 *   1.00000    1.000000    
     22 Na    c    0.750000 *  0.000000 *  0.500000 *   1.00000    1.000000    
     23 Na    c    0.750000 *  0.500000 *  0.000000 *   1.00000    1.000000    
     24 Na    c    0.750000 *  0.500000 *  0.500000 *   1.00000    1.000000    
     25 Na    c    0.000000 *  0.250000 *  0.000000 *   1.00000    1.000000    
     26 Na    c    0.000000 *  0.250000 *  0.500000 *   1.00000    1.000000    
     27 Na    c    0.000000 *  0.750000 *  0.000000 *   1.00000    1.000000    
     28 Na    c    0.000000 *  0.750000 *  0.500000 *   1.00000    1.000000    
     29 Na    c    0.500000 *  0.250000 *  0.000000 *   1.00000    1.000000    
     30 Na    c    0.500000 *  0.250000 *  0.500000 *   1.00000    1.000000    
     31 Na    c    0.500000 *  0.750000 *  0.000000 *   1.00000    1.000000    
     32 Na    c    0.500000 *  0.750000 *  0.500000 *   1.00000    1.000000    
     33 Na    c    0.000000 *  0.000000 *  0.250000 *   1.00000    1.000000    
     34 Na    c    0.000000 *  0.000000 *  0.750000 *   1.00000    1.000000    
     35 Na    c    0.000000 *  0.500000 *  0.250000 *   1.00000    1.000000    
     36 Na    c    0.000000 *  0.500000 *  0.750000 *   1.00000    1.000000    
     37 Na    c    0.500000 *  0.000000 *  0.250000 *   1.00000    1.000000    
     38 Na    c    0.500000 *  0.000000 *  0.750000 *   1.00000    1.000000    
     39 Na    c    0.500000 *  0.500000 *  0.250000 *   1.00000    1.000000    
     40 Na    c    0.500000 *  0.500000 *  0.750000 *   1.00000    1.000000    
     41 O     s    0.000000 *  0.000000 *  0.000000 *  -2.18300    1.000000    
     42 O     s    0.000000 *  0.000000 *  0.500000 *  -2.18300    1.000000    
     43 O     s    0.000000 *  0.500000 *  0.000000 *  -2.18300    1.000000    
     44 O     s    0.000000 *  0.500000 *  0.500000 *  -2.18300    1.000000    
     45 O     s    0.500000 *  0.000000 *  0.000000 *  -2.18300    1.000000    
     46 O     s    0.500000 *  0.000000 *  0.500000 *  -2.18300    1.000000    
     47 O     s    0.500000 *  0.500000 *  0.000000 *  -2.18300    1.000000    
     48 O     s    0.500000 *  0.500000 *  0.500000 *  -2.18300    1.000000    
     49 Cl    s    0.250000 *  0.250000 *  0.250000 *  -2.48500    1.000000    
     50 Cl    s    0.250000 *  0.250000 *  0.750000 *  -2.48500    1.000000    
     51 Cl    s    0.250000 *  0.750000 *  0.250000 *  -2.48500    1.000000    
     52 Cl    s    0.250000 *  0.750000 *  0.750000 *  -2.48500    1.000000    
     53 Cl    s    0.750000 *  0.250000 *  0.250000 *  -2.48500    1.000000    
     54 Cl    s    0.750000 *  0.250000 *  0.750000 *  -2.48500    1.000000    
     55 Cl    s    0.750000 *  0.750000 *  0.250000 *  -2.48500    1.000000    
     56 Cl    s    0.750000 *  0.750000 *  0.750000 *  -2.48500    1.000000    
--------------------------------------------------------------------------------



********************************************************************************
*  General input information                                                   *
********************************************************************************

  Species output for all configurations : 

--------------------------------------------------------------------------------
  Species    Type    Atomic    Atomic    Charge       Radii (Angs)     Library
                     Number     Mass       (e)     Cova   Ionic  VDW   Symbol
--------------------------------------------------------------------------------
    Na       Core       11      22.99   1.000000   0.970  0.000  2.300          
    O        Core        8      16.00   0.183000   0.730  0.000  1.360          
    O        Shell       8       0.00  -2.183000   0.730  0.000  1.360          
    Cl       Core       17      35.45   1.485000   0.990  0.000  1.650          
    Cl       Shell      17       0.00  -2.485000   0.990  0.000  1.650          
    Mg       Core       12      24.31   0.415000   1.100  0.000  0.000          
    Mg       Shell      12       0.00   1.585000   1.100  0.000  0.000          
    Ca       Core       20      40.08  -1.135000   0.990  0.000  0.000          
    Ca       Shell      20       0.00   3.135000   0.990  0.000  0.000          
    Sr       Core       38      87.62  -1.251000   1.120  0.000  0.000          
    Sr       Shell      38       0.00   3.251000   1.120  0.000  0.000          
    Ba       Core       56     137.33  -7.203000   1.340  0.000  0.000          
    Ba       Shell      56       0.00   9.203000   1.340  0.000  0.000          
--------------------------------------------------------------------------------


  Lattice summation method               =    Ewald          (3-D)
                                         =    Parry          (2-D)
                                         =    Saunders et al (1-D)
  Accuracy factor for lattice sums       =   12.000


  Analytic derivatives to be used

  Time limit = Infinity

  Maximum range for interatomic potentials =    100000.000000 Angstroms

  General interatomic potentials :

--------------------------------------------------------------------------------
Atom  Types   Potential      Parameter       Value         Units   Cutoffs(Ang)
  1     2                                                            Min /  Max 
--------------------------------------------------------------------------------
O    c O    s Spring (c-s)  Spring k 2       593.71600    eV*Ang^-2 0.000  0.800
                            Spring k 4       0.0000000    eV*Ang^-4 
--------------------------------------------------------------------------------
Cl   c Cl   s Spring (c-s)  Spring k 2       29.380000    eV*Ang^-2 0.000  0.800
                            Spring k 4       0.0000000    eV*Ang^-4 
--------------------------------------------------------------------------------
Mg   c Mg   s Spring (c-s)  Spring k 2       361.60000    eV*Ang^-2 0.000  0.800
                            Spring k 4       0.0000000    eV*Ang^-4 
--------------------------------------------------------------------------------
Ca   c Ca   s Spring (c-s)  Spring k 2       110.20000    eV*Ang^-2 0.000  0.800
                            Spring k 4       0.0000000    eV*Ang^-4 
--------------------------------------------------------------------------------
Sr   c Sr   s Spring (c-s)  Spring k 2       71.700000    eV*Ang^-2 0.000  0.800
                            Spring k 4       0.0000000    eV*Ang^-4 
--------------------------------------------------------------------------------
Ba   c Ba   s Spring (c-s)  Spring k 2       495.20000    eV*Ang^-2 0.000  0.800
                            Spring k 4       0.0000000    eV*Ang^-4 
--------------------------------------------------------------------------------
Na   c Na   c Buckingham    Buckingham A     1788.1900    eV        0.000 12.000
                            Buckingham rho  0.15900000    Ang       
                            Buckingham C     0.0000000    eV*Ang^6  
--------------------------------------------------------------------------------
Na   c O    s Buckingham    Buckingham A     588.38000    eV        0.000 12.000
                            Buckingham rho  0.33800000    Ang       
                            Buckingham C     0.0000000    eV*Ang^6  
--------------------------------------------------------------------------------
Na   c Cl   s Buckingham    Buckingham A     1170.4100    eV        0.000 12.000
                            Buckingham rho  0.31500000    Ang       
                            Buckingham C     0.0000000    eV*Ang^6  
--------------------------------------------------------------------------------
O    s O    s Buckingham    Buckingham A     22764.300    eV        0.000 12.000
                            Buckingham rho  0.14900000    Ang       
                            Buckingham C     13.190000    eV*Ang^6  
--------------------------------------------------------------------------------
O    s Cl   s Buckingham    Buckingham A     8286.9100    eV        0.000 12.000
                            Buckingham rho  0.25900000    Ang       
                            Buckingham C     62.200000    eV*Ang^6  
--------------------------------------------------------------------------------
Cl   s Cl   s Buckingham    Buckingham A     1227.2000    eV        0.000 12.000
                            Buckingham rho  0.32100000    Ang       
                            Buckingham C     14.530000    eV*Ang^6  
--------------------------------------------------------------------------------
O    s Mg   s Buckingham    Buckingham A     1428.5000    eV        0.000 12.000
                            Buckingham rho  0.29450000    Ang       
                            Buckingham C     0.0000000    eV*Ang^6  
--------------------------------------------------------------------------------
Mg   s Cl   s Buckingham    Buckingham A     4914.5400    eV        0.000 12.000
                            Buckingham rho  0.25700000    Ang       
                            Buckingham C     0.0000000    eV*Ang^6  
--------------------------------------------------------------------------------
O    s Ca   s Buckingham    Buckingham A     1090.4000    eV        0.000 12.000
                            Buckingham rho  0.34370000    Ang       
                            Buckingham C     0.0000000    eV*Ang^6  
--------------------------------------------------------------------------------
Cl   s Ca   s Buckingham    Buckingham A     2302.0000    eV        0.000 12.000
                            Buckingham rho  0.34020000    Ang       
                            Buckingham C     0.0000000    eV*Ang^6  
--------------------------------------------------------------------------------
O    s Sr   s Buckingham    Buckingham A     959.10000    eV        0.000 12.000
                            Buckingham rho  0.37210000    Ang       
                            Buckingham C     0.0000000    eV*Ang^6  
--------------------------------------------------------------------------------
Cl   s Sr   s Buckingham    Buckingham A     2191.0900    eV        0.000 12.000
                            Buckingham rho  0.34570000    Ang       
                            Buckingham C     0.0000000    eV*Ang^6  
--------------------------------------------------------------------------------
O    s Ba   s Buckingham    Buckingham A     905.70000    eV        0.000 12.000
                            Buckingham rho  0.39760000    Ang       
                            Buckingham C     0.0000000    eV*Ang^6  
--------------------------------------------------------------------------------
Cl   s Ba   s Buckingham    Buckingham A     2704.5500    eV        0.000 12.000
                            Buckingham rho  0.35280000    Ang       
                            Buckingham C     0.0000000    eV*Ang^6  
--------------------------------------------------------------------------------

********************************************************************************
*  Output for configuration   1                                                *
********************************************************************************


  Components of energy : 

--------------------------------------------------------------------------------
  Interatomic potentials     =          39.54523045 eV    
  Monopole - monopole (real) =        -173.49412932 eV    
  Monopole - monopole (recip)=        -143.08233464 eV    
  Monopole - monopole (total)=        -316.57646396 eV    
--------------------------------------------------------------------------------
  Total lattice energy       =        -277.03123351 eV    
--------------------------------------------------------------------------------
  Total lattice energy       =          -26729.2792 kJ/(mole unit cells)
--------------------------------------------------------------------------------


  Number of variables =      171

  Maximum number of calculations  =          1000
  Maximum Hessian update interval =            10
  Maximum step size               =   1.000000000
  Maximum parameter tolerance     =   0.000010000
  Maximum function  tolerance     =   0.000010000
  Maximum gradient  tolerance     =   0.001000000
  Maximum gradient  component     =   0.010000000

  Cell parameters to be optimised using strains

  Newton-Raphson optimiser to be used

  BFGS hessian update to be used

  Lower half triangular hessian to be used

  Start of bulk optimisation :

  Cycle:      0 Energy:      -277.031234  Gnorm:      0.116908  CPU:    0.060
  ** Hessian calculated **
  Cycle:      1 Energy:      -277.421334  Gnorm:      0.001189  CPU:    0.093
  Cycle:      2 Energy:      -277.421371  Gnorm:      0.000099  CPU:    0.117


  **** Optimisation achieved ****


  Final energy =    -277.42137089 eV
  Final Gnorm  =       0.00000000

  Components of energy : 

--------------------------------------------------------------------------------
  Interatomic potentials     =          46.20368827 eV    
  Monopole - monopole (real) =        -177.35698719 eV    
  Monopole - monopole (recip)=        -146.26807197 eV    
  Monopole - monopole (total)=        -323.62505916 eV    
--------------------------------------------------------------------------------
  Total lattice energy       =        -277.42137089 eV    
--------------------------------------------------------------------------------
  Total lattice energy       =          -26766.9215 kJ/(mole unit cells)
--------------------------------------------------------------------------------

  Final fractional coordinates of atoms :

--------------------------------------------------------------------------------
   No.  Atomic        x           y          z          Radius
        Label       (Frac)      (Frac)     (Frac)       (Angs) 
--------------------------------------------------------------------------------
     1  O     c     0.000000    0.000000    0.000000    0.000000
     2  O     c     0.000000    0.000000    0.500000    0.000000
     3  O     c     1.000000    0.500000    1.000000    0.000000
     4  O     c     0.000000    0.500000    0.500000    0.000000
     5  O     c     0.500000    0.000000    1.000000    0.000000
     6  O     c     0.500000    0.000000    0.500000    0.000000
     7  O     c     0.500000    0.500000    1.000000    0.000000
     8  O     c     0.500000    0.500000    0.500000    0.000000
     9  Cl    c     0.250000    0.250000    0.250000    0.000000
    10  Cl    c     0.250000    0.250000    0.750000    0.000000
    11  Cl    c     0.250000    0.750000    0.250000    0.000000
    12  Cl    c     0.250000    0.750000    0.750000    0.000000
    13  Cl    c     0.750000    0.250000    0.250000    0.000000
    14  Cl    c     0.750000    0.250000    0.750000    0.000000
    15  Cl    c     0.750000    0.750000    0.250000    0.000000
    16  Cl    c     0.750000    0.750000    0.750000    0.000000
    17  Na    c     0.250000    0.000000    1.000000    0.000000
    18  Na    c     0.250000    0.000000    0.500000    0.000000
    19  Na    c     0.250000    0.500000    1.000000    0.000000
    20  Na    c     0.250000    0.500000    0.500000    0.000000
    21  Na    c     0.750000    1.000000    0.000000    0.000000
    22  Na    c     0.750000    1.000000    0.500000    0.000000
    23  Na    c     0.750000    0.500000    0.000000    0.000000
    24  Na    c     0.750000    0.500000    0.500000    0.000000
    25  Na    c     1.000000    0.250000    0.000000    0.000000
    26  Na    c     1.000000    0.250000    0.500000    0.000000
    27  Na    c     0.000000    0.750000    1.000000    0.000000
    28  Na    c     0.000000    0.750000    0.500000    0.000000
    29  Na    c     0.500000    0.250000    1.000000    0.000000
    30  Na    c     0.500000    0.250000    0.500000    0.000000
    31  Na    c     0.500000    0.750000    0.000000    0.000000
    32  Na    c     0.500000    0.750000    0.500000    0.000000
    33  Na    c     0.000000    1.000000    0.250000    0.000000
    34  Na    c     1.000000    0.000000    0.750000    0.000000
    35  Na    c     0.000000    0.500000    0.250000    0.000000
    36  Na    c     1.000000    0.500000    0.750000    0.000000
    37  Na    c     0.500000    0.000000    0.250000    0.000000
    38  Na    c     0.500000    1.000000    0.750000    0.000000
    39  Na    c     0.500000    0.500000    0.250000    0.000000
    40  Na    c     0.500000    0.500000    0.750000    0.000000
    41  O     s     0.000000    0.000000    0.000000    0.000000
    42  O     s     0.000000    0.000000    0.500000    0.000000
    43  O     s     1.000000    0.500000    1.000000    0.000000
    44  O     s     0.000000    0.500000    0.500000    0.000000
    45  O     s     0.500000    0.000000    1.000000    0.000000
    46  O     s     0.500000    0.000000    0.500000    0.000000
    47  O     s     0.500000    0.500000    1.000000    0.000000
    48  O     s     0.500000    0.500000    0.500000    0.000000
    49  Cl    s     0.250000    0.250000    0.250000    0.000000
    50  Cl    s     0.250000    0.250000    0.750000    0.000000
    51  Cl    s     0.250000    0.750000    0.250000    0.000000
    52  Cl    s     0.250000    0.750000    0.750000    0.000000
    53  Cl    s     0.750000    0.250000    0.250000    0.000000
    54  Cl    s     0.750000    0.250000    0.750000    0.000000
    55  Cl    s     0.750000    0.750000    0.250000    0.000000
    56  Cl    s     0.750000    0.750000    0.750000    0.000000
--------------------------------------------------------------------------------

  Final Cartesian lattice vectors (Angstroms) :

        8.811805   -0.000000    0.000000
       -0.000000    8.811805   -0.000000
        0.000000   -0.000000    8.811805


  Final cell parameters and derivatives :

--------------------------------------------------------------------------------
       a            8.811805 Angstrom     dE/de1(xx)     0.000000 eV/strain
       b            8.811805 Angstrom     dE/de2(yy)     0.000000 eV/strain
       c            8.811805 Angstrom     dE/de3(zz)     0.000000 eV/strain
       alpha       90.000000 Degrees      dE/de4(yz)    -0.000000 eV/strain
       beta        90.000000 Degrees      dE/de5(xz)     0.000000 eV/strain
       gamma       90.000000 Degrees      dE/de6(xy)    -0.000000 eV/strain
--------------------------------------------------------------------------------

  Primitive cell volume =           684.218127 Angs**3

  Density of cell =      2.338030 g/cm**3

  Non-primitive cell volume =           684.218127 Angs**3


  Final internal derivatives :

--------------------------------------------------------------------------------
   No.  Atomic          a             b             c           Radius
        Label          (eV)          (eV)          (eV)        (eV/Angs)
--------------------------------------------------------------------------------
      1 O     c       0.000000      0.000000      0.000000      0.000000
      2 O     c       0.000000     -0.000000     -0.000000      0.000000
      3 O     c      -0.000000      0.000000      0.000000      0.000000
      4 O     c       0.000000      0.000000      0.000000      0.000000
      5 O     c       0.000000     -0.000000     -0.000000      0.000000
      6 O     c      -0.000000     -0.000000     -0.000000      0.000000
      7 O     c       0.000000      0.000000     -0.000000      0.000000
      8 O     c      -0.000000      0.000000     -0.000000      0.000000
      9 Cl    c      -0.000000     -0.000000     -0.000000      0.000000
     10 Cl    c      -0.000000     -0.000000      0.000000      0.000000
     11 Cl    c      -0.000000      0.000000      0.000000      0.000000
     12 Cl    c      -0.000000      0.000000     -0.000000      0.000000
     13 Cl    c       0.000000      0.000000      0.000000      0.000000
     14 Cl    c       0.000000     -0.000000     -0.000000      0.000000
     15 Cl    c      -0.000000      0.000000     -0.000000      0.000000
     16 Cl    c      -0.000000      0.000000      0.000000      0.000000
     17 Na    c       0.000000     -0.000000      0.000000      0.000000
     18 Na    c      -0.000000     -0.000000     -0.000000      0.000000
     19 Na    c      -0.000000      0.000000      0.000000      0.000000
     20 Na    c      -0.000000      0.000000     -0.000000      0.000000
     21 Na    c      -0.000000      0.000000     -0.000000      0.000000
     22 Na    c      -0.000000      0.000000     -0.000000      0.000000
     23 Na    c      -0.000000     -0.000000      0.000000      0.000000
     24 Na    c       0.000000     -0.000000     -0.000000      0.000000
     25 Na    c       0.000000     -0.000000     -0.000000      0.000000
     26 Na    c       0.000000     -0.000000     -0.000000      0.000000
     27 Na    c      -0.000000     -0.000000      0.000000      0.000000
     28 Na    c      -0.000000      0.000000     -0.000000      0.000000
     29 Na    c      -0.000000     -0.000000     -0.000000      0.000000
     30 Na    c      -0.000000     -0.000000      0.000000      0.000000
     31 Na    c       0.000000      0.000000     -0.000000      0.000000
     32 Na    c       0.000000      0.000000     -0.000000      0.000000
     33 Na    c      -0.000000     -0.000000      0.000000      0.000000
     34 Na    c      -0.000000      0.000000     -0.000000      0.000000
     35 Na    c       0.000000      0.000000     -0.000000      0.000000
     36 Na    c       0.000000     -0.000000     -0.000000      0.000000
     37 Na    c      -0.000000     -0.000000      0.000000      0.000000
     38 Na    c       0.000000      0.000000     -0.000000      0.000000
     39 Na    c      -0.000000      0.000000      0.000000      0.000000
     40 Na    c      -0.000000     -0.000000     -0.000000      0.000000
     41 O     s      -0.000000      0.000000     -0.000000      0.000000
     42 O     s      -0.000000      0.000000      0.000000      0.000000
     43 O     s       0.000000     -0.000000     -0.000000      0.000000
     44 O     s      -0.000000      0.000000      0.000000      0.000000
     45 O     s       0.000000      0.000000     -0.000000      0.000000
     46 O     s       0.000000     -0.000000      0.000000      0.000000
     47 O     s       0.000000      0.000000     -0.000000      0.000000
     48 O     s       0.000000      0.000000     -0.000000      0.000000
     49 Cl    s       0.000000      0.000000     -0.000000      0.000000
     50 Cl    s      -0.000000     -0.000000     -0.000000      0.000000
     51 Cl    s       0.000000     -0.000000     -0.000000      0.000000
     52 Cl    s       0.000000     -0.000000      0.000000      0.000000
     53 Cl    s      -0.000000      0.000000     -0.000000      0.000000
     54 Cl    s      -0.000000      0.000000      0.000000      0.000000
     55 Cl    s      -0.000000     -0.000000      0.000000      0.000000
     56 Cl    s      -0.000000     -0.000000     -0.000000      0.000000
--------------------------------------------------------------------------------
  Maximum abs         0.000000      0.000000      0.000000      0.000000
--------------------------------------------------------------------------------

  Comparison of initial and final structures : 

--------------------------------------------------------------------------------
  Parameter   Initial value   Final value   Difference    Units      Percent
--------------------------------------------------------------------------------
    Volume       730.945729    684.218127   -46.727602    Angs**3     -6.39
    a              9.008000      8.811805    -0.196195    Angstroms   -2.18
    b              9.008000      8.811805    -0.196195    Angstroms   -2.18
    c              9.008000      8.811805    -0.196195    Angstroms   -2.18
    alpha         90.000000     90.000000     0.000000    Degrees      0.00
    beta          90.000000     90.000000     0.000000    Degrees      0.00
    gamma         90.000000     90.000000     0.000000    Degrees      0.00
      1 x          0.000000      0.000000     0.000000    Fractional   0.00
      1 y          0.000000      0.000000     0.000000    Fractional   0.00
      1 z          0.000000      0.000000     0.000000    Fractional   0.00
      2 x          0.000000      0.000000     0.000000    Fractional   0.00
      2 y          0.000000      0.000000     0.000000    Fractional   0.00
      2 z          0.500000      0.500000     0.000000    Fractional   0.00
      3 x          0.000000      1.000000     1.000000    Fractional   0.00
      3 y          0.500000      0.500000     0.000000    Fractional   0.00
      3 z          0.000000      1.000000     1.000000    Fractional   0.00
      4 x          0.000000      0.000000     0.000000    Fractional   0.00
      4 y          0.500000      0.500000     0.000000    Fractional   0.00
      4 z          0.500000      0.500000     0.000000    Fractional   0.00
      5 x          0.500000      0.500000     0.000000    Fractional   0.00
      5 y          0.000000      0.000000     0.000000    Fractional   0.00
      5 z          0.000000      1.000000     1.000000    Fractional   0.00
      6 x          0.500000      0.500000     0.000000    Fractional   0.00
      6 y          0.000000      0.000000     0.000000    Fractional   0.00
      6 z          0.500000      0.500000     0.000000    Fractional   0.00
      7 x          0.500000      0.500000     0.000000    Fractional   0.00
      7 y          0.500000      0.500000     0.000000    Fractional   0.00
      7 z          0.000000      1.000000     1.000000    Fractional   0.00
      8 x          0.500000      0.500000     0.000000    Fractional   0.00
      8 y          0.500000      0.500000     0.000000    Fractional   0.00
      8 z          0.500000      0.500000     0.000000    Fractional   0.00
      9 x          0.250000      0.250000     0.000000    Fractional   0.00
      9 y          0.250000      0.250000     0.000000    Fractional   0.00
      9 z          0.250000      0.250000     0.000000    Fractional   0.00
     10 x          0.250000      0.250000     0.000000    Fractional   0.00
     10 y          0.250000      0.250000     0.000000    Fractional   0.00
     10 z          0.750000      0.750000     0.000000    Fractional   0.00
     11 x          0.250000      0.250000     0.000000    Fractional   0.00
     11 y          0.750000      0.750000     0.000000    Fractional   0.00
     11 z          0.250000      0.250000     0.000000    Fractional   0.00
     12 x          0.250000      0.250000     0.000000    Fractional   0.00
     12 y          0.750000      0.750000     0.000000    Fractional   0.00
     12 z          0.750000      0.750000     0.000000    Fractional   0.00
     13 x          0.750000      0.750000     0.000000    Fractional   0.00
     13 y          0.250000      0.250000     0.000000    Fractional   0.00
     13 z          0.250000      0.250000     0.000000    Fractional   0.00
     14 x          0.750000      0.750000     0.000000    Fractional   0.00
     14 y          0.250000      0.250000     0.000000    Fractional   0.00
     14 z          0.750000      0.750000     0.000000    Fractional   0.00
     15 x          0.750000      0.750000     0.000000    Fractional   0.00
     15 y          0.750000      0.750000     0.000000    Fractional   0.00
     15 z          0.250000      0.250000     0.000000    Fractional   0.00
     16 x          0.750000      0.750000     0.000000    Fractional   0.00
     16 y          0.750000      0.750000     0.000000    Fractional   0.00
     16 z          0.750000      0.750000     0.000000    Fractional   0.00
     17 x          0.250000      0.250000     0.000000    Fractional   0.00
     17 y          0.000000      0.000000     0.000000    Fractional   0.00
     17 z          0.000000      1.000000     1.000000    Fractional   0.00
     18 x          0.250000      0.250000     0.000000    Fractional   0.00
     18 y          0.000000      0.000000     0.000000    Fractional   0.00
     18 z          0.500000      0.500000     0.000000    Fractional   0.00
     19 x          0.250000      0.250000     0.000000    Fractional   0.00
     19 y          0.500000      0.500000     0.000000    Fractional   0.00
     19 z          0.000000      1.000000     1.000000    Fractional   0.00
     20 x          0.250000      0.250000     0.000000    Fractional   0.00
     20 y          0.500000      0.500000     0.000000    Fractional   0.00
     20 z          0.500000      0.500000     0.000000    Fractional   0.00
     21 x          0.750000      0.750000     0.000000    Fractional   0.00
     21 y          0.000000      1.000000     1.000000    Fractional   0.00
     21 z          0.000000      0.000000     0.000000    Fractional   0.00
     22 x          0.750000      0.750000     0.000000    Fractional   0.00
     22 y          0.000000      1.000000     1.000000    Fractional   0.00
     22 z          0.500000      0.500000     0.000000    Fractional   0.00
     23 x          0.750000      0.750000     0.000000    Fractional   0.00
     23 y          0.500000      0.500000     0.000000    Fractional   0.00
     23 z          0.000000      0.000000     0.000000    Fractional   0.00
     24 x          0.750000      0.750000     0.000000    Fractional   0.00
     24 y          0.500000      0.500000     0.000000    Fractional   0.00
     24 z          0.500000      0.500000     0.000000    Fractional   0.00
     25 x          0.000000      1.000000     1.000000    Fractional   0.00
     25 y          0.250000      0.250000     0.000000    Fractional   0.00
     25 z          0.000000      0.000000     0.000000    Fractional   0.00
     26 x          0.000000      1.000000     1.000000    Fractional   0.00
     26 y          0.250000      0.250000     0.000000    Fractional   0.00
     26 z          0.500000      0.500000     0.000000    Fractional   0.00
     27 x          0.000000      0.000000     0.000000    Fractional   0.00
     27 y          0.750000      0.750000     0.000000    Fractional   0.00
     27 z          0.000000      1.000000     1.000000    Fractional   0.00
     28 x          0.000000      0.000000     0.000000    Fractional   0.00
     28 y          0.750000      0.750000     0.000000    Fractional   0.00
     28 z          0.500000      0.500000     0.000000    Fractional   0.00
     29 x          0.500000      0.500000     0.000000    Fractional   0.00
     29 y          0.250000      0.250000     0.000000    Fractional   0.00
     29 z          0.000000      1.000000     1.000000    Fractional   0.00
     30 x          0.500000      0.500000     0.000000    Fractional   0.00
     30 y          0.250000      0.250000     0.000000    Fractional   0.00
     30 z          0.500000      0.500000     0.000000    Fractional   0.00
     31 x          0.500000      0.500000     0.000000    Fractional   0.00
     31 y          0.750000      0.750000     0.000000    Fractional   0.00
     31 z          0.000000      0.000000     0.000000    Fractional   0.00
     32 x          0.500000      0.500000     0.000000    Fractional   0.00
     32 y          0.750000      0.750000     0.000000    Fractional   0.00
     32 z          0.500000      0.500000     0.000000    Fractional   0.00
     33 x          0.000000      0.000000     0.000000    Fractional   0.00
     33 y          0.000000      1.000000     1.000000    Fractional   0.00
     33 z          0.250000      0.250000     0.000000    Fractional   0.00
     34 x          0.000000      1.000000     1.000000    Fractional   0.00
     34 y          0.000000      0.000000     0.000000    Fractional   0.00
     34 z          0.750000      0.750000     0.000000    Fractional   0.00
     35 x          0.000000      0.000000     0.000000    Fractional   0.00
     35 y          0.500000      0.500000     0.000000    Fractional   0.00
     35 z          0.250000      0.250000     0.000000    Fractional   0.00
     36 x          0.000000      1.000000     1.000000    Fractional   0.00
     36 y          0.500000      0.500000     0.000000    Fractional   0.00
     36 z          0.750000      0.750000     0.000000    Fractional   0.00
     37 x          0.500000      0.500000     0.000000    Fractional   0.00
     37 y          0.000000      0.000000     0.000000    Fractional   0.00
     37 z          0.250000      0.250000     0.000000    Fractional   0.00
     38 x          0.500000      0.500000     0.000000    Fractional   0.00
     38 y          0.000000      1.000000     1.000000    Fractional   0.00
     38 z          0.750000      0.750000     0.000000    Fractional   0.00
     39 x          0.500000      0.500000     0.000000    Fractional   0.00
     39 y          0.500000      0.500000     0.000000    Fractional   0.00
     39 z          0.250000      0.250000     0.000000    Fractional   0.00
     40 x          0.500000      0.500000     0.000000    Fractional   0.00
     40 y          0.500000      0.500000     0.000000    Fractional   0.00
     40 z          0.750000      0.750000     0.000000    Fractional   0.00
     41 x          0.000000      0.000000     0.000000    Fractional   0.00
     41 y          0.000000      0.000000     0.000000    Fractional   0.00
     41 z          0.000000      0.000000     0.000000    Fractional   0.00
     42 x          0.000000      0.000000     0.000000    Fractional   0.00
     42 y          0.000000      0.000000     0.000000    Fractional   0.00
     42 z          0.500000      0.500000     0.000000    Fractional   0.00
     43 x          0.000000      1.000000     1.000000    Fractional   0.00
     43 y          0.500000      0.500000     0.000000    Fractional   0.00
     43 z          0.000000      1.000000     1.000000    Fractional   0.00
     44 x          0.000000      0.000000     0.000000    Fractional   0.00
     44 y          0.500000      0.500000     0.000000    Fractional   0.00
     44 z          0.500000      0.500000     0.000000    Fractional   0.00
     45 x          0.500000      0.500000     0.000000    Fractional   0.00
     45 y          0.000000      0.000000     0.000000    Fractional   0.00
     45 z          0.000000      1.000000     1.000000    Fractional   0.00
     46 x          0.500000      0.500000     0.000000    Fractional   0.00
     46 y          0.000000      0.000000     0.000000    Fractional   0.00
     46 z          0.500000      0.500000     0.000000    Fractional   0.00
     47 x          0.500000      0.500000     0.000000    Fractional   0.00
     47 y          0.500000      0.500000     0.000000    Fractional   0.00
     47 z          0.000000      1.000000     1.000000    Fractional   0.00
     48 x          0.500000      0.500000     0.000000    Fractional   0.00
     48 y          0.500000      0.500000     0.000000    Fractional   0.00
     48 z          0.500000      0.500000     0.000000    Fractional   0.00
     49 x          0.250000      0.250000     0.000000    Fractional   0.00
     49 y          0.250000      0.250000     0.000000    Fractional   0.00
     49 z          0.250000      0.250000     0.000000    Fractional   0.00
     50 x          0.250000      0.250000     0.000000    Fractional   0.00
     50 y          0.250000      0.250000     0.000000    Fractional   0.00
     50 z          0.750000      0.750000     0.000000    Fractional   0.00
     51 x          0.250000      0.250000     0.000000    Fractional   0.00
     51 y          0.750000      0.750000     0.000000    Fractional   0.00
     51 z          0.250000      0.250000     0.000000    Fractional   0.00
     52 x          0.250000      0.250000     0.000000    Fractional   0.00
     52 y          0.750000      0.750000     0.000000    Fractional   0.00
     52 z          0.750000      0.750000     0.000000    Fractional   0.00
     53 x          0.750000      0.750000     0.000000    Fractional   0.00
     53 y          0.250000      0.250000     0.000000    Fractional   0.00
     53 z          0.250000      0.250000     0.000000    Fractional   0.00
     54 x          0.750000      0.750000     0.000000    Fractional   0.00
     54 y          0.250000      0.250000     0.000000    Fractional   0.00
     54 z          0.750000      0.750000     0.000000    Fractional   0.00
     55 x          0.750000      0.750000     0.000000    Fractional   0.00
     55 y          0.750000      0.750000     0.000000    Fractional   0.00
     55 z          0.250000      0.250000     0.000000    Fractional   0.00
     56 x          0.750000      0.750000     0.000000    Fractional   0.00
     56 y          0.750000      0.750000     0.000000    Fractional   0.00
     56 z          0.750000      0.750000     0.000000    Fractional   0.00
--------------------------------------------------------------------------------


  Born effective charge tensors : 

-------------------------------------------------------------------------------
  Atom             x           y             z
-------------------------------------------------------------------------------
    1 O     x      -2.2939      0.0000     -0.0000
            y      -0.0000     -2.2939     -0.0000
            z      -0.0000     -0.0000     -2.2939
-------------------------------------------------------------------------------
    2 O     x      -2.2939      0.0000      0.0000
            y      -0.0000     -2.2939      0.0000
            z       0.0000      0.0000     -2.2939
-------------------------------------------------------------------------------
    3 O     x      -2.2939     -0.0000      0.0000
            y       0.0000     -2.2939      0.0000
            z       0.0000      0.0000     -2.2939
-------------------------------------------------------------------------------
    4 O     x      -2.2939     -0.0000      0.0000
            y       0.0000     -2.2939     -0.0000
            z       0.0000     -0.0000     -2.2939
-------------------------------------------------------------------------------
    5 O     x      -2.2939     -0.0000      0.0000
            y       0.0000     -2.2939     -0.0000
            z       0.0000     -0.0000     -2.2939
-------------------------------------------------------------------------------
    6 O     x      -2.2939     -0.0000      0.0000
            y       0.0000     -2.2939     -0.0000
            z       0.0000      0.0000     -2.2939
-------------------------------------------------------------------------------
    7 O     x      -2.2939      0.0000      0.0000
            y      -0.0000     -2.2939      0.0000
            z       0.0000     -0.0000     -2.2939
-------------------------------------------------------------------------------
    8 O     x      -2.2939      0.0000      0.0000
            y      -0.0000     -2.2939     -0.0000
            z       0.0000     -0.0000     -2.2939
-------------------------------------------------------------------------------
    9 Cl    x      -0.9918      0.0000     -0.0000
            y       0.0000     -0.9918     -0.0000
            z      -0.0000     -0.0000     -0.9918
-------------------------------------------------------------------------------
   10 Cl    x      -0.9918      0.0000      0.0000
            y       0.0000     -0.9918      0.0000
            z       0.0000      0.0000     -0.9918
-------------------------------------------------------------------------------
   11 Cl    x      -0.9918     -0.0000     -0.0000
            y      -0.0000     -0.9918     -0.0000
            z      -0.0000     -0.0000     -0.9918
-------------------------------------------------------------------------------
   12 Cl    x      -0.9918      0.0000      0.0000
            y       0.0000     -0.9918     -0.0000
            z       0.0000     -0.0000     -0.9918
-------------------------------------------------------------------------------
   13 Cl    x      -0.9918      0.0000     -0.0000
            y      -0.0000     -0.9918      0.0000
            z       0.0000      0.0000     -0.9918
-------------------------------------------------------------------------------
   14 Cl    x      -0.9918      0.0000     -0.0000
            y       0.0000     -0.9918      0.0000
            z      -0.0000      0.0000     -0.9918
-------------------------------------------------------------------------------
   15 Cl    x      -0.9918      0.0000     -0.0000
            y       0.0000     -0.9918     -0.0000
            z      -0.0000     -0.0000     -0.9918
-------------------------------------------------------------------------------
   16 Cl    x      -0.9918      0.0000      0.0000
            y       0.0000     -0.9918      0.0000
            z       0.0000      0.0000     -0.9918
-------------------------------------------------------------------------------
   17 Na    x       0.8372     -0.0000      0.0000
            y      -0.0000      1.2243      0.0000
            z       0.0000      0.0000      1.2243
-------------------------------------------------------------------------------
   18 Na    x       0.8372     -0.0000      0.0000
            y      -0.0000      1.2243     -0.0000
            z      -0.0000      0.0000      1.2243
-------------------------------------------------------------------------------
   19 Na    x       0.8372     -0.0000      0.0000
            y      -0.0000      1.2243     -0.0000
            z       0.0000     -0.0000      1.2243
-------------------------------------------------------------------------------
   20 Na    x       0.8372     -0.0000      0.0000
            y      -0.0000      1.2243      0.0000
            z       0.0000      0.0000      1.2243
-------------------------------------------------------------------------------
   21 Na    x       0.8372     -0.0000      0.0000
            y       0.0000      1.2243     -0.0000
            z       0.0000      0.0000      1.2243
-------------------------------------------------------------------------------
   22 Na    x       0.8372      0.0000      0.0000
            y       0.0000      1.2243      0.0000
            z       0.0000      0.0000      1.2243
-------------------------------------------------------------------------------
   23 Na    x       0.8372     -0.0000     -0.0000
            y      -0.0000      1.2243      0.0000
            z      -0.0000     -0.0000      1.2243
-------------------------------------------------------------------------------
   24 Na    x       0.8372     -0.0000      0.0000
            y      -0.0000      1.2243      0.0000
            z       0.0000      0.0000      1.2243
-------------------------------------------------------------------------------
   25 Na    x       1.2243     -0.0000     -0.0000
            y      -0.0000      0.8372     -0.0000
            z      -0.0000     -0.0000      1.2243
-------------------------------------------------------------------------------
   26 Na    x       1.2243     -0.0000     -0.0000
            y      -0.0000      0.8372     -0.0000
            z      -0.0000     -0.0000      1.2243
-------------------------------------------------------------------------------
   27 Na    x       1.2243      0.0000     -0.0000
            y       0.0000      0.8372      0.0000
            z      -0.0000      0.0000      1.2243
-------------------------------------------------------------------------------
   28 Na    x       1.2243      0.0000     -0.0000
            y       0.0000      0.8372     -0.0000
            z      -0.0000     -0.0000      1.2243
-------------------------------------------------------------------------------
   29 Na    x       1.2243      0.0000     -0.0000
            y      -0.0000      0.8372     -0.0000
            z      -0.0000     -0.0000      1.2243
-------------------------------------------------------------------------------
   30 Na    x       1.2243     -0.0000     -0.0000
            y      -0.0000      0.8372     -0.0000
            z      -0.0000     -0.0000      1.2243
-------------------------------------------------------------------------------
   31 Na    x       1.2243     -0.0000     -0.0000
            y      -0.0000      0.8372      0.0000
            z      -0.0000      0.0000      1.2243
-------------------------------------------------------------------------------
   32 Na    x       1.2243     -0.0000     -0.0000
            y      -0.0000      0.8372     -0.0000
            z      -0.0000     -0.0000      1.2243
-------------------------------------------------------------------------------
   33 Na    x       1.2243     -0.0000      0.0000
            y       0.0000      1.2243     -0.0000
            z       0.0000      0.0000      0.8372
-------------------------------------------------------------------------------
   34 Na    x       1.2243     -0.0000     -0.0000
            y       0.0000      1.2243     -0.0000
            z      -0.0000     -0.0000      0.8372
-------------------------------------------------------------------------------
   35 Na    x       1.2243      0.0000      0.0000
            y      -0.0000      1.2243     -0.0000
            z       0.0000      0.0000      0.8372
-------------------------------------------------------------------------------
   36 Na    x       1.2243      0.0000      0.0000
            y      -0.0000      1.2243      0.0000
            z       0.0000      0.0000      0.8372
-------------------------------------------------------------------------------
   37 Na    x       1.2243      0.0000      0.0000
            y      -0.0000      1.2243     -0.0000
            z       0.0000     -0.0000      0.8372
-------------------------------------------------------------------------------
   38 Na    x       1.2243      0.0000      0.0000
            y      -0.0000      1.2243     -0.0000
            z       0.0000     -0.0000      0.8372
-------------------------------------------------------------------------------
   39 Na    x       1.2243     -0.0000      0.0000
            y       0.0000      1.2243     -0.0000
            z       0.0000     -0.0000      0.8372
-------------------------------------------------------------------------------
   40 Na    x       1.2243     -0.0000      0.0000
            y       0.0000      1.2243      0.0000
            z       0.0000      0.0000      0.8372
-------------------------------------------------------------------------------




  Elastic Constant Matrix: (Units=GPa)

-------------------------------------------------------------------------------
  Indices      1         2         3         4         5         6    
-------------------------------------------------------------------------------
       1     82.7680   24.3534   24.3534   -0.0000    0.0000   -0.0000
       2     24.3534   82.7680   24.3534   -0.0000   -0.0000    0.0000
       3     24.3534   24.3534   82.7680   -0.0000    0.0000    0.0000
       4     -0.0000   -0.0000   -0.0000   24.3534    0.0000   -0.0000
       5      0.0000   -0.0000    0.0000    0.0000   24.3534   -0.0000
       6     -0.0000    0.0000    0.0000   -0.0000   -0.0000   24.3534
-------------------------------------------------------------------------------


  Elastic Compliance Matrix: (Units=1/GPa)

-------------------------------------------------------------------------------
  Indices      1         2         3         4         5         6    
-------------------------------------------------------------------------------
       1    0.013948 -0.003171 -0.003171 -0.000000 -0.000000  0.000000
       2   -0.003171  0.013948 -0.003171  0.000000  0.000000 -0.000000
       3   -0.003171 -0.003171  0.013948  0.000000 -0.000000 -0.000000
       4   -0.000000  0.000000  0.000000  0.041062 -0.000000  0.000000
       5   -0.000000  0.000000 -0.000000 -0.000000  0.041062  0.000000
       6    0.000000 -0.000000 -0.000000  0.000000  0.000000  0.041062
-------------------------------------------------------------------------------

  Mechanical properties :

-------------------------------------------------------------------------------
  Convention :                    Reuss         Voigt         Hill
-------------------------------------------------------------------------------
  Bulk  Modulus (GPa)     =      43.82493      43.82493      43.82493
  Shear Modulus (GPa)     =      26.08758      26.29496      26.19127
-------------------------------------------------------------------------------
  Velocity S-wave (km/s)  =       3.34035       3.35360       3.34698
  Velocity P-wave (km/s)  =       5.79842       5.80861       5.80351
-------------------------------------------------------------------------------
  Compressibility (1/GPa) =    0.02281806
-------------------------------------------------------------------------------
  Stress axis :                     x             y             z
-------------------------------------------------------------------------------
  Youngs Moduli (GPa)     =      71.69479      71.69479      71.69479
-------------------------------------------------------------------------------
  Poissons Ratio (x)      =                     0.22734       0.22734
  Poissons Ratio (y)      =       0.22734                     0.22734
  Poissons Ratio (z)      =       0.22734       0.22734
-------------------------------------------------------------------------------


  Piezoelectric Strain Matrix: (Units=C/m**2)

-------------------------------------------------------------------------------
  Indices      1         2         3         4         5         6    
-------------------------------------------------------------------------------
       x    -0.00000   0.00000   0.00000   0.00000   0.00000   0.00000
       y     0.00000   0.00000   0.00000   0.00000   0.00000   0.00000
       z     0.00000  -0.00000   0.00000   0.00000   0.00000   0.00000
-------------------------------------------------------------------------------


  Piezoelectric Stress Matrix: (Units=10**-11 C/N)

-------------------------------------------------------------------------------
  Indices      1         2         3         4         5         6    
-------------------------------------------------------------------------------
       x    -0.00000   0.00000   0.00000   0.00000   0.00000   0.00000
       y     0.00000   0.00000   0.00000   0.00000   0.00000   0.00000
       z     0.00000  -0.00000   0.00000   0.00000   0.00000   0.00000
-------------------------------------------------------------------------------


  Static dielectric constant tensor : 

-------------------------------------------------------------------------------
              x         y         z
-------------------------------------------------------------------------------
       x    11.08357  -0.00000  -0.00000
       y    -0.00000  11.08357  -0.00000
       z    -0.00000  -0.00000  11.08357
--------------------------------------------------------------------------------

  High frequency dielectric constant tensor : 

-------------------------------------------------------------------------------
              x         y         z
-------------------------------------------------------------------------------
       x     1.50771  -0.00000   0.00000
       y    -0.00000   1.50771  -0.00000
       z     0.00000  -0.00000   1.50771
-------------------------------------------------------------------------------

  Static refractive indices : 

-------------------------------------------------------------------------------
    1 =    3.32920      2 =    3.32920      3 =    3.32920
-------------------------------------------------------------------------------

  High frequency refractive indices : 

-------------------------------------------------------------------------------
    1 =    1.22789      2 =    1.22789      3 =    1.22789
-------------------------------------------------------------------------------


  Time to end of optimisation =       0.1879 seconds

********************************************************************************
*  Defect calculation for configuration   1 :                                  *
********************************************************************************

  Total number of defects =      2

  Total charge on defect  =  -0.00

  Defect centre is at   0.6250   0.5000   0.3750  Frac

  Region 1 radius =  12.0000      Number of ions =    594

  Number of symmetry inequivalent region 1 ions  =    341

  Region 2 radius =  16.0000      Number of ions =    832

  Number of symmetry inequivalent region 2a ions =    454

  Region 2a mode = 4 : screened electrostatics due to region 1 
                       neglect correction to region 1 forces from 2a
                       region 2a displacements based on defects only

  Region 2a ions will only interact with defects in region 1

  Vacancies:

--------------------------------------------------------------------------------
    Specification type     Symbol/Number         x          y          z
--------------------------------------------------------------------------------
    Fractional                               0.500000   0.500000   0.250000
--------------------------------------------------------------------------------

  Impurities:

--------------------------------------------------------------------------------
    Specification type     Symbol/Number         x          y          z
--------------------------------------------------------------------------------
    Frac/Symbol             Ba               0.750000   0.500000   0.500000
--------------------------------------------------------------------------------


  Symmetry reduced region 1 (Relative to defect centre) :

--------------------------------------------------------------------------------
   No.   Atomic       x            y             z       Radius  Multiplicity   
         Label      (Angs)       (Angs)        (Angs)    (Angs)     
--------------------------------------------------------------------------------
     1  O     c     -1.1015 *     0.0000       1.1015 *  0.0000     1          
     2  Ba    c      1.1015 *     0.0000       1.1015 *  0.0000     1    Defect
     3  Na    c     -1.1015 *    -2.2030 *     1.1015 *  0.0000     2          
     4  Cl    c      1.1015 *     2.2030 *    -1.1015 *  0.0000     2          
     5  Na    c      1.1015 *     0.0000      -3.3044 *  0.0000     1          
     6  Na    c     -1.1015 *     0.0000       3.3044 *  0.0000     1          
     7  O     c      3.3044 *     0.0000       1.1015 *  0.0000     1          
     8  O     c     -1.1015 *     0.0000      -3.3044 *  0.0000     1          
     9  Na    c     -3.3044 *    -0.0000       1.1015 *  0.0000     1          
    10  Na    c      3.3044 *     0.0000      -1.1015 *  0.0000     1          
    11  Na    c      3.3044 *    -2.2030 *     1.1015 *  0.0000     2          
    12  Na    c     -1.1015 *    -2.2030 *    -3.3044 *  0.0000     2          
    13  Cl    c      1.1015 *     2.2030 *     3.3044 *  0.0000     2          
    14  Cl    c     -3.3044 *    -2.2030 *    -1.1015 *  0.0000     2          
    15  Na    c      1.1015 *     4.4059 *     1.1015 *  0.0000     2          
    16  Na    c      3.3044 *    -0.0000       3.3044 *  0.0000     1          
    17  Na    c     -1.1015 *    -4.4059 *    -1.1015 *  0.0000     2          
    18  O     c      3.3044 *     0.0000      -3.3044 *  0.0000     1          
    19  O     c     -1.1015 *    -4.4059 *     1.1015 *  0.0000     2          
    20  Na    c     -3.3044 *    -0.0000      -3.3044 *  0.0000     1          
    21  Na    c      3.3044 *    -2.2030 *    -3.3044 *  0.0000     2          
    22  Cl    c     -3.3044 *    -2.2030 *     3.3044 *  0.0000     2          
    23  Na    c      1.1015 *     4.4059 *    -3.3044 *  0.0000     2          
    24  Na    c     -3.3044 *    -4.4059 *     1.1015 *  0.0000     2          
    25  Na    c     -5.5074 *     0.0000      -1.1015 *  0.0000     1          
    26  Na    c      3.3044 *     4.4059 *    -1.1015 *  0.0000     2          
    27  Na    c     -1.1015 *     4.4059 *     3.3044 *  0.0000     2          
    28  O     c     -1.1015 *     0.0000       5.5074 *  0.0000     1          
    29  O     c     -5.5074 *     0.0000       1.1015 *  0.0000     1          
    30  Na    c     -1.1015 *     0.0000      -5.5074 *  0.0000     1          
    31  Na    c      5.5074 *    -0.0000       1.1015 *  0.0000     1          
    32  O     c     -1.1015 *    -4.4059 *    -3.3044 *  0.0000     2          
    33  O     c      3.3044 *    -4.4059 *     1.1015 *  0.0000     2          
    34  Na    c      1.1015 *     0.0000       5.5074 *  0.0000     1          
    35  Na    c     -5.5074 *     2.2030 *     1.1015 *  0.0000     2          
    36  Na    c     -1.1015 *    -2.2030 *     5.5074 *  0.0000     2          
    37  Cl    c      5.5074 *     2.2030 *    -1.1015 *  0.0000     2          
    38  Cl    c      1.1015 *    -2.2030 *    -5.5074 *  0.0000     2          
    39  Na    c     -3.3044 *    -4.4059 *    -3.3044 *  0.0000     2          
    40  Na    c      3.3044 *    -4.4059 *     3.3044 *  0.0000     2          
    41  Na    c     -3.3044 *    -0.0000       5.5074 *  0.0000     1          
    42  Na    c      3.3044 *    -0.0000      -5.5074 *  0.0000     1          
    43  O     c      3.3044 *     0.0000       5.5074 *  0.0000     1          
    44  O     c     -5.5074 *     0.0000      -3.3044 *  0.0000     1          
    45  O     c      3.3044 *     4.4059 *    -3.3044 *  0.0000     2          
    46  Na    c      5.5074 *    -0.0000      -3.3044 *  0.0000     1          
    47  Na    c     -5.5074 *    -0.0000       3.3044 *  0.0000     1          
    48  Na    c     -5.5074 *     2.2030 *    -3.3044 *  0.0000     2          
    49  Na    c      3.3044 *    -2.2030 *     5.5074 *  0.0000     2          
    50  Na    c     -1.1015 *     6.6089 *     1.1015 *  0.0000     2          
    51  Cl    c     -3.3044 *    -2.2030 *    -5.5074 *  0.0000     2          
    52  Cl    c      5.5074 *    -2.2030 *     3.3044 *  0.0000     2          
    53  Cl    c      1.1015 *    -6.6089 *    -1.1015 *  0.0000     2          
    54  Na    c      5.5074 *    -4.4059 *     1.1015 *  0.0000     2          
    55  Na    c      1.1015 *     4.4059 *     5.5074 *  0.0000     2          
    56  Na    c     -5.5074 *     4.4059 *    -1.1015 *  0.0000     2          
    57  Na    c     -1.1015 *     4.4059 *    -5.5074 *  0.0000     2          
    58  O     c     -5.5074 *    -4.4059 *     1.1015 *  0.0000     2          
    59  O     c     -1.1015 *    -4.4059 *     5.5074 *  0.0000     2          
    60  Na    c      3.3044 *     6.6089 *     1.1015 *  0.0000     2          
    61  Na    c     -1.1015 *     6.6089 *    -3.3044 *  0.0000     2          
    62  Cl    c      1.1015 *    -6.6089 *     3.3044 *  0.0000     2          
    63  Cl    c     -3.3044 *    -6.6089 *    -1.1015 *  0.0000     2          
    64  Na    c     -3.3044 *    -4.4059 *     5.5074 *  0.0000     2          
    65  Na    c      5.5074 *    -4.4059 *    -3.3044 *  0.0000     2          
    66  Na    c      7.7103 *    -0.0000      -1.1015 *  0.0000     1          
    67  Na    c      3.3044 *    -4.4059 *    -5.5074 *  0.0000     2          
    68  Na    c      5.5074 *    -0.0000       5.5074 *  0.0000     1          
    69  Na    c     -5.5074 *    -4.4059 *     3.3044 *  0.0000     2          
    70  Na    c     -7.7103 *     0.0000       1.1015 *  0.0000     1          
    71  O     c      7.7103 *     0.0000       1.1015 *  0.0000     1          
    72  O     c     -5.5074 *     0.0000       5.5074 *  0.0000     1          
    73  Na    c     -1.1015 *    -0.0000       7.7103 *  0.0000     1          
    74  O     c     -1.1015 *     0.0000      -7.7103 *  0.0000     1          
    75  O     c      3.3044 *     4.4059 *     5.5074 *  0.0000     2          
    76  O     c     -5.5074 *    -4.4059 *    -3.3044 *  0.0000     2          
    77  Na    c     -5.5074 *    -0.0000      -5.5074 *  0.0000     1          
    78  Na    c      1.1015 *     0.0000      -7.7103 *  0.0000     1          
    79  Na    c      7.7103 *     2.2030 *     1.1015 *  0.0000     2          
    80  Na    c     -5.5074 *     2.2030 *     5.5074 *  0.0000     2          
    81  Na    c      3.3044 *     6.6089 *    -3.3044 *  0.0000     2          
    82  Na    c     -1.1015 *    -2.2030 *    -7.7103 *  0.0000     2          
    83  Cl    c      1.1015 *     2.2030 *     7.7103 *  0.0000     2          
    84  Cl    c      5.5074 *     2.2030 *    -5.5074 *  0.0000     2          
    85  Cl    c     -7.7103 *    -2.2030 *    -1.1015 *  0.0000     2          
    86  Cl    c     -3.3044 *    -6.6089 *     3.3044 *  0.0000     2          
    87  Na    c     -3.3044 *    -0.0000      -7.7103 *  0.0000     1          
    88  Na    c     -7.7103 *     0.0000      -3.3044 *  0.0000     1          
    89  O     c      3.3044 *     0.0000      -7.7103 *  0.0000     1          
    90  O     c      7.7103 *     0.0000      -3.3044 *  0.0000     1          
    91  Na    c      3.3044 *     0.0000       7.7103 *  0.0000     1          
    92  Na    c      7.7103 *     0.0000       3.3044 *  0.0000     1          
    93  Na    c      7.7103 *     2.2030 *    -3.3044 *  0.0000     2          
    94  Na    c     -5.5074 *    -6.6089 *     1.1015 *  0.0000     2          
    95  Na    c      3.3044 *    -2.2030 *    -7.7103 *  0.0000     2          
    96  Na    c     -1.1015 *     6.6089 *     5.5074 *  0.0000     2          
    97  Cl    c     -3.3044 *    -2.2030 *     7.7103 *  0.0000     2          
    98  Cl    c     -7.7103 *    -2.2030 *     3.3044 *  0.0000     2          
    99  Cl    c      5.5074 *    -6.6089 *    -1.1015 *  0.0000     2          
   100  Cl    c      1.1015 *    -6.6089 *    -5.5074 *  0.0000     2          
   101  Na    c      1.1015 *    -8.8118 *     1.1015 *  0.0000     2          
   102  Na    c      5.5074 *    -4.4059 *     5.5074 *  0.0000     2          
   103  Na    c     -7.7103 *     4.4059 *     1.1015 *  0.0000     2          
   104  Na    c      1.1015 *     4.4059 *    -7.7103 *  0.0000     2          
   105  Na    c      7.7103 *    -4.4059 *    -1.1015 *  0.0000     2          
   106  Na    c     -5.5074 *    -4.4059 *    -5.5074 *  0.0000     2          
   107  Na    c     -1.1015 *    -4.4059 *     7.7103 *  0.0000     2          
   108  O     c      7.7103 *    -4.4059 *     1.1015 *  0.0000     2          
   109  O     c     -5.5074 *     4.4059 *     5.5074 *  0.0000     2          
   110  O     c     -1.1015 *    -4.4059 *    -7.7103 *  0.0000     2          
   111  Na    c     -1.1015 *     8.8118 *    -1.1015 *  0.0000     2          
   112  O     c     -1.1015 *    -8.8118 *     1.1015 *  0.0000     2          
   113  Na    c     -5.5074 *    -6.6089 *    -3.3044 *  0.0000     2          
   114  Na    c      3.3044 *     6.6089 *     5.5074 *  0.0000     2          
   115  Cl    c     -3.3044 *    -6.6089 *    -5.5074 *  0.0000     2          
   116  Cl    c      5.5074 *    -6.6089 *     3.3044 *  0.0000     2          
   117  Na    c      1.1015 *    -8.8118 *    -3.3044 *  0.0000     2          
   118  Na    c     -3.3044 *     8.8118 *     1.1015 *  0.0000     2          
   119  Na    c     -7.7103 *     4.4059 *    -3.3044 *  0.0000     2          
   120  Na    c     -3.3044 *    -4.4059 *    -7.7103 *  0.0000     2          
   121  Na    c      5.5074 *    -0.0000      -7.7103 *  0.0000     1          
   122  Na    c     -5.5074 *     0.0000       7.7103 *  0.0000     1          
   123  Na    c      3.3044 *    -8.8118 *    -1.1015 *  0.0000     2          
   124  Na    c      3.3044 *     4.4059 *     7.7103 *  0.0000     2          
   125  O     c      7.7103 *     0.0000       5.5074 *  0.0000     1          
   126  Na    c     -1.1015 *    -8.8118 *     3.3044 *  0.0000     2          
   127  O     c     -5.5074 *     0.0000      -7.7103 *  0.0000     1          
   128  O     c      3.3044 *    -4.4059 *    -7.7103 *  0.0000     2          
   129  O     c      7.7103 *    -4.4059 *    -3.3044 *  0.0000     2          
   130  Na    c      7.7103 *     4.4059 *     3.3044 *  0.0000     2          
   131  Na    c     -7.7103 *     0.0000       5.5074 *  0.0000     1          
   132  O     c     -1.1015 *    -8.8118 *    -3.3044 *  0.0000     2          
   133  Na    c      7.7103 *     0.0000      -5.5074 *  0.0000     1          
   134  O     c      3.3044 *    -8.8118 *     1.1015 *  0.0000     2          
   135  Na    c      7.7103 *     2.2030 *     5.5074 *  0.0000     2          
   136  Na    c     -5.5074 *     2.2030 *    -7.7103 *  0.0000     2          
   137  Cl    c      5.5074 *     2.2030 *     7.7103 *  0.0000     2          
   138  Cl    c     -7.7103 *    -2.2030 *    -5.5074 *  0.0000     2          
   139  Na    c     -3.3044 *     8.8118 *    -3.3044 *  0.0000     2          
   140  Na    c      3.3044 *     8.8118 *     3.3044 *  0.0000     2          
   141  Na    c      1.1015 *     0.0000       9.9133 *  0.0000     1          
   142  Na    c      9.9133 *     0.0000       1.1015 *  0.0000     1          
   143  O     c     -1.1015 *     0.0000       9.9133 *  0.0000     1          
   144  O     c     -9.9133 *     0.0000       1.1015 *  0.0000     1          
   145  Na    c     -1.1015 *    -0.0000      -9.9133 *  0.0000     1          
   146  O     c      3.3044 *    -8.8118 *    -3.3044 *  0.0000     2          
   147  Na    c     -9.9133 *    -0.0000      -1.1015 *  0.0000     1          
   148  Na    c     -9.9133 *    -2.2030 *     1.1015 *  0.0000     2          
   149  Na    c      7.7103 *    -6.6089 *     1.1015 *  0.0000     2          
   150  Na    c     -5.5074 *    -6.6089 *     5.5074 *  0.0000     2          
   151  Na    c     -1.1015 *     6.6089 *    -7.7103 *  0.0000     2          
   152  Na    c     -1.1015 *    -2.2030 *     9.9133 *  0.0000     2          
   153  Cl    c      9.9133 *     2.2030 *    -1.1015 *  0.0000     2          
   154  Cl    c      5.5074 *    -6.6089 *    -5.5074 *  0.0000     2          
   155  Cl    c      1.1015 *     2.2030 *    -9.9133 *  0.0000     2          
   156  Cl    c      1.1015 *     6.6089 *     7.7103 *  0.0000     2          
   157  Cl    c     -7.7103 *     6.6089 *    -1.1015 *  0.0000     2          
   158  Na    c      1.1015 *    -8.8118 *     5.5074 *  0.0000     2          
   159  Na    c      5.5074 *     8.8118 *     1.1015 *  0.0000     2          
   160  Na    c      5.5074 *    -4.4059 *    -7.7103 *  0.0000     2          
   161  Na    c     -7.7103 *     4.4059 *     5.5074 *  0.0000     2          
   162  Na    c     -5.5074 *    -8.8118 *    -1.1015 *  0.0000     2          
   163  Na    c     -9.9133 *     0.0000       3.3044 *  0.0000     1          
   164  Na    c     -5.5074 *     4.4059 *     7.7103 *  0.0000     2          
   165  Na    c      9.9133 *     0.0000      -3.3044 *  0.0000     1          
   166  O     c     -9.9133 *     0.0000      -3.3044 *  0.0000     1          
   167  O     c      3.3044 *     0.0000       9.9133 *  0.0000     1          
   168  Na    c     -1.1015 *    -8.8118 *    -5.5074 *  0.0000     2          
   169  O     c     -5.5074 *    -4.4059 *    -7.7103 *  0.0000     2          
   170  O     c      7.7103 *    -4.4059 *     5.5074 *  0.0000     2          
   171  Na    c      3.3044 *     0.0000      -9.9133 *  0.0000     1          
   172  Na    c      7.7103 *     4.4059 *    -5.5074 *  0.0000     2          
   173  O     c     -1.1015 *    -8.8118 *     5.5074 *  0.0000     2          
   174  O     c     -5.5074 *    -8.8118 *     1.1015 *  0.0000     2          
   175  Na    c     -3.3044 *    -0.0000       9.9133 *  0.0000     1          
   176  Na    c     -9.9133 *    -2.2030 *    -3.3044 *  0.0000     2          
   177  Na    c      7.7103 *    -6.6089 *    -3.3044 *  0.0000     2          
   178  Na    c      3.3044 *    -2.2030 *     9.9133 *  0.0000     2          
   179  Na    c      3.3044 *     6.6089 *    -7.7103 *  0.0000     2          
   180  Cl    c      9.9133 *     2.2030 *     3.3044 *  0.0000     2          
   181  Cl    c     -3.3044 *    -6.6089 *     7.7103 *  0.0000     2          
   182  Cl    c     -3.3044 *    -2.2030 *    -9.9133 *  0.0000     2          
   183  Cl    c     -7.7103 *     6.6089 *     3.3044 *  0.0000     2          
   184  Na    c     -3.3044 *     8.8118 *     5.5074 *  0.0000     2          
   185  Na    c      5.5074 *     8.8118 *    -3.3044 *  0.0000     2          
   186  Na    c      1.1015 *     4.4059 *     9.9133 *  0.0000     2          
   187  Na    c      9.9133 *     4.4059 *     1.1015 *  0.0000     2          
   188  Na    c      3.3044 *     8.8118 *    -5.5074 *  0.0000     2          
   189  Na    c      7.7103 *    -0.0000       7.7103 *  0.0000     1          
   190  Na    c     -5.5074 *     8.8118 *     3.3044 *  0.0000     2          
   191  O     c     -1.1015 *    -4.4059 *     9.9133 *  0.0000     2          
   192  O     c      7.7103 *     0.0000      -7.7103 *  0.0000     1          
   193  Na    c     -1.1015 *    -4.4059 *    -9.9133 *  0.0000     2          
   194  O     c     -9.9133 *    -4.4059 *     1.1015 *  0.0000     2          
   195  Na    c     -9.9133 *    -4.4059 *    -1.1015 *  0.0000     2          
   196  O     c      3.3044 *    -8.8118 *     5.5074 *  0.0000     2          
   197  Na    c     -7.7103 *     0.0000      -7.7103 *  0.0000     1          
   198  O     c     -5.5074 *    -8.8118 *    -3.3044 *  0.0000     2          
   199  Na    c      7.7103 *     2.2030 *    -7.7103 *  0.0000     2          
   200  Na    c     -1.1015 *   -11.0148 *     1.1015 *  0.0000     2          
   201  Cl    c     -7.7103 *    -2.2030 *     7.7103 *  0.0000     2          
   202  Cl    c      1.1015 *    11.0148 *    -1.1015 *  0.0000     2          
   203  Na    c      9.9133 *     4.4059 *    -3.3044 *  0.0000     2          
   204  Na    c     -3.3044 *    -4.4059 *     9.9133 *  0.0000     2          
   205  Na    c     -9.9133 *     0.0000      -5.5074 *  0.0000     1          
   206  Na    c     -9.9133 *     4.4059 *     3.3044 *  0.0000     2          
   207  Na    c     -5.5074 *     0.0000      -9.9133 *  0.0000     1          
   208  Na    c      3.3044 *     4.4059 *    -9.9133 *  0.0000     2          
   209  O     c     -9.9133 *     0.0000       5.5074 *  0.0000     1          
   210  O     c     -5.5074 *     0.0000       9.9133 *  0.0000     1          
   211  O     c     -9.9133 *    -4.4059 *    -3.3044 *  0.0000     2          
   212  O     c      3.3044 *    -4.4059 *     9.9133 *  0.0000     2          
   213  Na    c      9.9133 *     0.0000       5.5074 *  0.0000     1          
   214  Na    c      5.5074 *    -0.0000       9.9133 *  0.0000     1          
   215  Na    c     -9.9133 *    -2.2030 *     5.5074 *  0.0000     2          
   216  Na    c      7.7103 *    -6.6089 *     5.5074 *  0.0000     2          
   217  Na    c     -5.5074 *    -6.6089 *    -7.7103 *  0.0000     2          
   218  Na    c     -5.5074 *     2.2030 *     9.9133 *  0.0000     2          
   219  Na    c      3.3044 *   -11.0148 *     1.1015 *  0.0000     2          
   220  Na    c     -1.1015 *   -11.0148 *    -3.3044 *  0.0000     2          
   221  Cl    c      9.9133 *     2.2030 *    -5.5074 *  0.0000     2          
   222  Cl    c      5.5074 *     2.2030 *    -9.9133 *  0.0000     2          
   223  Cl    c      5.5074 *    -6.6089 *     7.7103 *  0.0000     2          
   224  Cl    c      1.1015 *   -11.0148 *     3.3044 *  0.0000     2          
   225  Cl    c     -7.7103 *     6.6089 *    -5.5074 *  0.0000     2          
   226  Cl    c     -3.3044 *   -11.0148 *    -1.1015 *  0.0000     2          
   227  Na    c      5.5074 *     8.8118 *     5.5074 *  0.0000     2          
   228  Na    c     -7.7103 *    -8.8118 *     1.1015 *  0.0000     2          
   229  Na    c      1.1015 *    -8.8118 *    -7.7103 *  0.0000     2          
   230  Na    c     -7.7103 *     4.4059 *    -7.7103 *  0.0000     2          
   231  Na    c      7.7103 *    -4.4059 *     7.7103 *  0.0000     2          
   232  Na    c      7.7103 *     8.8118 *    -1.1015 *  0.0000     2          
   233  Na    c     -5.5074 *     8.8118 *    -5.5074 *  0.0000     2          
   234  O     c      7.7103 *    -4.4059 *    -7.7103 *  0.0000     2          
   235  Na    c     -1.1015 *     8.8118 *     7.7103 *  0.0000     2          
   236  O     c      7.7103 *    -8.8118 *     1.1015 *  0.0000     2          
   237  O     c     -5.5074 *    -8.8118 *     5.5074 *  0.0000     2          
   238  O     c     -1.1015 *    -8.8118 *    -7.7103 *  0.0000     2          
   239  Na    c     -9.9133 *     6.6089 *     1.1015 *  0.0000     2          
   240  Na    c      3.3044 *   -11.0148 *    -3.3044 *  0.0000     2          
   241  Na    c     -1.1015 *     6.6089 *     9.9133 *  0.0000     2          
   242  Cl    c      9.9133 *    -6.6089 *    -1.1015 *  0.0000     2          
   243  Cl    c      1.1015 *    -6.6089 *    -9.9133 *  0.0000     2          
   244  Cl    c     -3.3044 *   -11.0148 *     3.3044 *  0.0000     2          
   245  O     s     -1.1015 *     0.0000       1.1015 *  0.0000     1          
   246  Ba    s      1.1015 *     0.0000       1.1015 *  0.0000     1    Defect
   247  Cl    s      1.1015 *     2.2030 *    -1.1015 *  0.0000     2          
   248  O     s      3.3044 *     0.0000       1.1015 *  0.0000     1          
   249  O     s     -1.1015 *     0.0000      -3.3044 *  0.0000     1          
   250  Cl    s      1.1015 *     2.2030 *     3.3044 *  0.0000     2          
   251  Cl    s     -3.3044 *    -2.2030 *    -1.1015 *  0.0000     2          
   252  O     s      3.3044 *     0.0000      -3.3044 *  0.0000     1          
   253  O     s     -1.1015 *    -4.4059 *     1.1015 *  0.0000     2          
   254  Cl    s     -3.3044 *    -2.2030 *     3.3044 *  0.0000     2          
   255  O     s     -1.1015 *     0.0000       5.5074 *  0.0000     1          
   256  O     s     -5.5074 *     0.0000       1.1015 *  0.0000     1          
   257  O     s     -1.1015 *    -4.4059 *    -3.3044 *  0.0000     2          
   258  O     s      3.3044 *    -4.4059 *     1.1015 *  0.0000     2          
   259  Cl    s      5.5074 *     2.2030 *    -1.1015 *  0.0000     2          
   260  Cl    s      1.1015 *    -2.2030 *    -5.5074 *  0.0000     2          
   261  O     s      3.3044 *     0.0000       5.5074 *  0.0000     1          
   262  O     s     -5.5074 *     0.0000      -3.3044 *  0.0000     1          
   263  O     s      3.3044 *     4.4059 *    -3.3044 *  0.0000     2          
   264  Cl    s     -3.3044 *    -2.2030 *    -5.5074 *  0.0000     2          
   265  Cl    s      5.5074 *     2.2030 *     3.3044 *  0.0000     2          
   266  Cl    s      1.1015 *    -6.6089 *    -1.1015 *  0.0000     2          
   267  O     s     -5.5074 *    -4.4059 *     1.1015 *  0.0000     2          
[...]
    260 y          2.202951      2.166048    -0.036903    Cartesian   -1.68
    260 z         -2.202951     -2.252560    -0.049609    Cartesian    2.25
    261 x          8.811805      8.796946    -0.014858    Cartesian   -0.17
    261 y          4.405902      4.405902     0.000000    Cartesian    0.00
    261 z          8.811805      8.789002    -0.022803    Cartesian   -0.26
    262 x         -0.000000      0.024623     0.024623    Cartesian *******
    262 y          4.405902      4.405902     0.000000    Cartesian    0.00
    262 z         -0.000000      0.020163     0.020163    Cartesian *******
    263 x          8.811805      8.827980     0.016176    Cartesian    0.18
    263 y          8.811805      8.831156     0.019351    Cartesian    0.22
    263 z          0.000000     -0.018340    -0.018340    Cartesian *******
    264 x          2.202951      2.146951    -0.056001    Cartesian   -2.54
    264 y          2.202951      2.146992    -0.055959    Cartesian   -2.54
    264 z         -2.202951     -2.264320    -0.061369    Cartesian    2.79
    265 x         11.014756     11.011827    -0.002928    Cartesian   -0.03
    265 y          6.608853      6.572942    -0.035911    Cartesian   -0.54
    265 z          6.608853      6.580443    -0.028411    Cartesian   -0.43
    266 x          6.608853      6.603679    -0.005175    Cartesian   -0.08
    266 y         -2.202951     -2.220026    -0.017074    Cartesian    0.78
    266 z          2.202951      2.231129     0.028177    Cartesian    1.28
    267 x          0.000000     -0.028918    -0.028918    Cartesian *******
    267 y          0.000000     -0.030448    -0.030448    Cartesian *******
    267 z          4.405902      4.414154     0.008252    Cartesian    0.19
    268 x          4.405902      4.410728     0.004826    Cartesian    0.11
    268 y          0.000000     -0.000168    -0.000168    Cartesian *******
    268 z          8.811805      8.821141     0.009336    Cartesian    0.11
    269 x          6.608853      6.604584    -0.004269    Cartesian   -0.06
    269 y         -2.202951     -2.182946     0.020005    Cartesian   -0.91
    269 z          6.608853      6.612087     0.003234    Cartesian    0.05
    270 x          2.202951      2.203808     0.000857    Cartesian    0.04
    270 y         -2.202951     -2.222410    -0.019459    Cartesian    0.88
    270 z          2.202951      2.224883     0.021932    Cartesian    1.00
    271 x         13.217707     13.247943     0.030236    Cartesian    0.23
    271 y          4.405902      4.405902     0.000000    Cartesian    0.00
    271 z          4.405902      4.410077     0.004174    Cartesian    0.09
    272 x         -0.000000      0.002707     0.002707    Cartesian *******
    272 y          4.405902      4.405902     0.000000    Cartesian    0.00
    272 z          8.811805      8.819343     0.007539    Cartesian    0.09
    273 x          4.405902      4.398948    -0.006955    Cartesian   -0.16
    273 y          4.405902      4.405902     0.000000    Cartesian    0.00
    273 z         -4.405902     -4.438792    -0.032890    Cartesian    0.75
    274 x          8.811805      8.810282    -0.001523    Cartesian   -0.02
    274 y          8.811805      8.811004    -0.000801    Cartesian   -0.01
    274 z          8.811805      8.809360    -0.002445    Cartesian   -0.03
    275 x          0.000000     -0.005616    -0.005616    Cartesian    0.00
    275 y          0.000000     -0.002451    -0.002451    Cartesian    0.00
    275 z          0.000000     -0.004008    -0.004008    Cartesian    0.00
    276 x          6.608853      6.610608     0.001754    Cartesian    0.03
    276 y          6.608853      6.610010     0.001157    Cartesian    0.02
    276 z         11.014756     11.008635    -0.006121    Cartesian   -0.06
    277 x         11.014756     11.038347     0.023591    Cartesian    0.21
    277 y          6.608853      6.596863    -0.011991    Cartesian   -0.18
    277 z         -2.202951     -2.194735     0.008216    Cartesian   -0.37
    278 x         -2.202951     -2.226624    -0.023672    Cartesian    1.07
    278 y          2.202951      2.195817    -0.007135    Cartesian   -0.32
    278 z          2.202951      2.212229     0.009278    Cartesian    0.42
    279 x          2.202951      2.208934     0.005983    Cartesian    0.27
    279 y         -2.202951     -2.215870    -0.012919    Cartesian    0.59
    279 z          6.608853      6.617151     0.008298    Cartesian    0.13
    280 x          8.811805      8.810677    -0.001127    Cartesian   -0.01
    280 y          4.405902      4.405902     0.000000    Cartesian    0.00
    280 z         -4.405902     -4.412823    -0.006920    Cartesian    0.16
    281 x         13.217707     13.226569     0.008862    Cartesian    0.07
    281 y          4.405902      4.405902     0.000000    Cartesian    0.00
    281 z         -0.000000     -0.018690    -0.018690    Cartesian *******
    282 x          2.202951      2.208063     0.005112    Cartesian    0.23
    282 y          2.202951      2.196915    -0.006036    Cartesian   -0.27
    282 z         11.014756     11.039084     0.024328    Cartesian    0.22
    283 x         -2.202951     -2.211407    -0.008456    Cartesian    0.38
    283 y          2.202951      2.198925    -0.004026    Cartesian   -0.18
    283 z          6.608853      6.615458     0.006605    Cartesian    0.10
    284 x         11.014756     11.029254     0.014498    Cartesian    0.13
    284 y         -2.202951     -2.205489    -0.002538    Cartesian    0.12
    284 z          2.202951      2.214649     0.011698    Cartesian    0.53
    285 x          6.608853      6.619009     0.010155    Cartesian    0.15
    285 y         -2.202951     -2.213022    -0.010071    Cartesian    0.46
    285 z         -2.202951     -2.189661     0.013290    Cartesian   -0.60
    286 x         13.217707     13.227849     0.010142    Cartesian    0.08
    286 y          0.000000     -0.014987    -0.014987    Cartesian *******
    286 z          4.405902      4.405162    -0.000740    Cartesian   -0.02
    287 x          0.000000     -0.011386    -0.011386    Cartesian *******
    287 y          8.811805      8.822544     0.010739    Cartesian    0.12
    287 z          8.811805      8.821104     0.009299    Cartesian    0.11
    288 x          4.405902      4.406782     0.000880    Cartesian    0.02
    288 y          0.000000      0.011120     0.011120    Cartesian *******
    288 z         -4.405902     -4.397336     0.008566    Cartesian   -0.19
    289 x          4.405902      4.407655     0.001752    Cartesian    0.04
    289 y         -4.405902     -4.404527     0.001376    Cartesian   -0.03
    289 z          4.405902      4.408714     0.002812    Cartesian    0.06
    290 x          2.202951      2.202397    -0.000554    Cartesian   -0.03
    290 y         -2.202951     -2.216014    -0.013063    Cartesian    0.59
    290 z         -2.202951     -2.190466     0.012485    Cartesian   -0.57
    291 x         11.014756     11.023230     0.008474    Cartesian    0.08
    291 y         -2.202951     -2.198897     0.004054    Cartesian   -0.18
    291 z          6.608853      6.616669     0.007816    Cartesian    0.12
    292 x         13.217707     13.223326     0.005619    Cartesian    0.04
    292 y          4.405902      4.405902     0.000000    Cartesian    0.00
    292 z          8.811805      8.817963     0.006159    Cartesian    0.07
    293 x          0.000000      0.010525     0.010525    Cartesian *******
    293 y          4.405902      4.405902     0.000000    Cartesian    0.00
    293 z         -4.405902     -4.402781     0.003121    Cartesian   -0.07
    294 x          8.811805      8.820131     0.008326    Cartesian    0.09
    294 y          0.000000     -0.008143    -0.008143    Cartesian *******
    294 z         -4.405902     -4.415450    -0.009548    Cartesian    0.22
    295 x         13.217707     13.221815     0.004108    Cartesian    0.03
    295 y          0.000000     -0.000928    -0.000928    Cartesian *******
    295 z         -0.000000     -0.000285    -0.000285    Cartesian *******
    296 x          4.405902      4.403748    -0.002154    Cartesian   -0.05
    296 y         -4.405902     -4.397201     0.008701    Cartesian   -0.20
    296 z         -0.000000     -0.001651    -0.001651    Cartesian *******
    297 x          8.811805      8.807053    -0.004752    Cartesian   -0.05
    297 y         -4.405902     -4.410421    -0.004519    Cartesian    0.10
    297 z          4.405902      4.406912     0.001010    Cartesian    0.02
    298 x         11.014756     11.014313    -0.000443    Cartesian   -0.00
    298 y          6.608853      6.606501    -0.002352    Cartesian   -0.04
    298 z         11.014756     11.005536    -0.009220    Cartesian   -0.08
    299 x         -2.202951     -2.217464    -0.014513    Cartesian    0.66
    299 y          2.202951      2.203705     0.000754    Cartesian    0.03
    299 z         -2.202951     -2.192221     0.010730    Cartesian   -0.49
    300 x          4.405902      4.418363     0.012461    Cartesian    0.28
    300 y          4.405902      4.405902     0.000000    Cartesian    0.00
    300 z         13.217707     13.228459     0.010752    Cartesian    0.08
    301 x         -4.405902     -4.408750    -0.002847    Cartesian    0.06
    301 y          4.405902      4.405902     0.000000    Cartesian    0.00
    301 z          4.405902      4.417578     0.011675    Cartesian    0.26
    302 x          8.811805      8.812424     0.000619    Cartesian    0.01
    302 y         -4.405902     -4.407966    -0.002064    Cartesian    0.05
    302 z         -0.000000     -0.000812    -0.000812    Cartesian *******
    303 x         15.420658     15.426407     0.005749    Cartesian    0.04
    303 y          6.608853      6.610311     0.001457    Cartesian    0.02
    303 z          2.202951      2.205469     0.002518    Cartesian    0.11
    304 x         11.014756     11.031142     0.016386    Cartesian    0.15
    304 y         -2.202951     -2.210356    -0.007405    Cartesian    0.34
    304 z         -2.202951     -2.200115     0.002836    Cartesian   -0.13
    305 x          6.608853      6.612429     0.003576    Cartesian    0.05
    305 y          6.608853      6.608607    -0.000246    Cartesian   -0.00
    305 z         -6.608853     -6.619310    -0.010456    Cartesian    0.16
    306 x          6.608853      6.615457     0.006604    Cartesian    0.10
    306 y         11.014756     11.009775    -0.004981    Cartesian   -0.05
    306 z         11.014756     11.014311    -0.000445    Cartesian   -0.00
    307 x         -2.202951     -2.210365    -0.007413    Cartesian    0.34
    307 y         11.014756     11.026847     0.012091    Cartesian    0.11
    307 z          2.202951      2.215609     0.012657    Cartesian    0.57
    308 x         -4.405902     -4.398012     0.007890    Cartesian   -0.18
    308 y          4.405902      4.405902     0.000000    Cartesian    0.00
    308 z         -0.000000     -0.013637    -0.013637    Cartesian *******
    309 x          8.811805      8.806539    -0.005266    Cartesian   -0.06
    309 y          4.405902      4.405902     0.000000    Cartesian    0.00
    309 z         13.217707     13.214954    -0.002753    Cartesian   -0.02
    310 x          0.000000     -0.007189    -0.007189    Cartesian *******
    310 y          0.000000     -0.007157    -0.007157    Cartesian *******
    310 z         -4.405902     -4.410422    -0.004520    Cartesian    0.10
    311 x         13.217707     13.214972    -0.002735    Cartesian   -0.02
    311 y          0.000000      0.003119     0.003119    Cartesian *******
    311 z          8.811805      8.809891    -0.001914    Cartesian   -0.02
    312 x          4.405902      4.406330     0.000428    Cartesian    0.01
    312 y         -4.405902     -4.406933    -0.001031    Cartesian    0.02
    312 z          8.811805      8.812962     0.001157    Cartesian    0.01
    313 x          0.000000     -0.011750    -0.011750    Cartesian *******
    313 y         -4.405902     -4.411463    -0.005560    Cartesian    0.13
    313 z          4.405902      4.407286     0.001384    Cartesian    0.03
    314 x         15.420658     15.419567    -0.001091    Cartesian   -0.01
    314 y          6.608853      6.612442     0.003589    Cartesian    0.05
    314 z          6.608853      6.617017     0.008163    Cartesian    0.12
    315 x          2.202951      2.213044     0.010093    Cartesian    0.46
    315 y         -2.202951     -2.204285    -0.001334    Cartesian    0.06
    315 z         11.014756     11.019693     0.004937    Cartesian    0.04
    316 x          2.202951      2.208128     0.005177    Cartesian    0.23
    316 y          2.202951      2.201812    -0.001139    Cartesian   -0.05
    316 z         -6.608853     -6.617161    -0.008308    Cartesian    0.13
    317 x         -2.202951     -2.207872    -0.004921    Cartesian    0.22
    317 y         11.014756     11.026869     0.012113    Cartesian    0.11
    317 z          6.608853      6.614960     0.006106    Cartesian    0.09
    318 x          4.405902      4.406078     0.000176    Cartesian    0.00
    318 y          0.000000     -0.002992    -0.002992    Cartesian *******
    318 z         13.217707     13.221421     0.003714    Cartesian    0.03
    319 x         13.217707     13.224315     0.006608    Cartesian    0.05
    319 y          4.405902      4.405902     0.000000    Cartesian    0.00
    319 z         -4.405902     -4.408374    -0.002472    Cartesian    0.06
    320 x         -4.405902     -4.412886    -0.006983    Cartesian    0.16
    320 y          0.000000      0.001395     0.001395    Cartesian *******
    320 z          4.405902      4.406666     0.000763    Cartesian    0.02
    321 x          8.811805      8.812817     0.001012    Cartesian    0.01
    321 y         -4.405902     -4.405096     0.000806    Cartesian   -0.02
    321 z          8.811805      8.811143    -0.000662    Cartesian   -0.01
    322 x         -0.000000      0.000116     0.000116    Cartesian *******
    322 y         -4.405902     -4.406784    -0.000882    Cartesian    0.02
    322 z         -0.000000      0.001320     0.001320    Cartesian *******
    323 x         -2.202951     -2.203089    -0.000137    Cartesian    0.01
    323 y          2.202951      2.208883     0.005932    Cartesian    0.27
    323 z         11.014756     11.023111     0.008355    Cartesian    0.08
    324 x          6.608853      6.611745     0.002891    Cartesian    0.04
    324 y         15.420658     15.422206     0.001548    Cartesian    0.01
    324 z          2.202951      2.206452     0.003501    Cartesian    0.16
    325 x         -4.405902     -4.408934    -0.003032    Cartesian    0.07
    325 y          4.405902      4.405902     0.000000    Cartesian    0.00
    325 z          8.811805      8.805203    -0.006602    Cartesian   -0.07
    326 x          0.000000     -0.007387    -0.007387    Cartesian *******
    326 y          4.405902      4.405902     0.000000    Cartesian    0.00
    326 z         13.217707     13.213168    -0.004538    Cartesian   -0.03
    327 x         -4.405902     -4.407314    -0.001412    Cartesian    0.03
    327 y          0.000000     -0.001807    -0.001807    Cartesian *******
    327 z         -0.000000      0.000723     0.000723    Cartesian *******
    328 x          8.811805      8.813372     0.001567    Cartesian    0.02
    328 y          0.000000      0.001573     0.001573    Cartesian *******
    328 z         13.217707     13.216278    -0.001428    Cartesian   -0.01
    329 x         15.420658     15.426436     0.005778    Cartesian    0.04
    329 y          6.608853      6.602755    -0.006098    Cartesian   -0.09
    329 z         -2.202951     -2.200093     0.002858    Cartesian   -0.13
    330 x         11.014756     11.014679    -0.000077    Cartesian   -0.00
    330 y         -2.202951     -2.197375     0.005576    Cartesian   -0.25
    330 z         11.014756     11.013268    -0.001488    Cartesian   -0.01
    331 x         11.014756     11.027055     0.012299    Cartesian    0.11
    331 y          6.608853      6.612027     0.003173    Cartesian    0.05
    331 z         -6.608853     -6.607324     0.001530    Cartesian   -0.02
    332 x          6.608853      6.613586     0.004732    Cartesian    0.07
    332 y         -6.608853     -6.602669     0.006184    Cartesian   -0.09
    332 z          6.608853      6.615503     0.006649    Cartesian    0.10
    333 x         -2.202951     -2.208170    -0.005219    Cartesian    0.24
    333 y         11.014756     11.022909     0.008153    Cartesian    0.07
    333 z         -2.202951     -2.199669     0.003282    Cartesian   -0.15
    334 x          2.202951      2.205913     0.002962    Cartesian    0.13
    334 y         -6.608853     -6.614782    -0.005929    Cartesian    0.09
    334 z          2.202951      2.206673     0.003722    Cartesian    0.17
    335 x         13.217707     13.218549     0.000842    Cartesian    0.01
    335 y          0.000000     -0.000138    -0.000138    Cartesian *******
    335 z         -4.405902     -4.407209    -0.001307    Cartesian    0.03
    336 x         13.217707     13.221023     0.003316    Cartesian    0.03
    336 y         -4.405902     -4.405424     0.000479    Cartesian   -0.01
    336 z          4.405902      4.407331     0.001429    Cartesian    0.03
    337 x         -0.000000      0.000779     0.000779    Cartesian *******
    337 y         -4.405902     -4.408079    -0.002177    Cartesian    0.05
    337 z          8.811805      8.814264     0.002460    Cartesian    0.03
    338 x          4.405902      4.406494     0.000592    Cartesian    0.01
    338 y         -4.405902     -4.404658     0.001245    Cartesian   -0.03
    338 z         -4.405902     -4.402757     0.003146    Cartesian   -0.07
    339 x         15.420658     15.424763     0.004104    Cartesian    0.03
    339 y         -2.202951     -2.201783     0.001169    Cartesian   -0.05
    339 z          2.202951      2.212727     0.009776    Cartesian    0.44
    340 x          6.608853      6.614482     0.005629    Cartesian    0.09
    340 y         -2.202951     -2.206995    -0.004044    Cartesian    0.18
    340 z         -6.608853     -6.611311    -0.002457    Cartesian    0.04
    341 x          2.202951      2.205525     0.002574    Cartesian    0.12
    341 y         -6.608853     -6.610021    -0.001168    Cartesian    0.02
    341 z          6.608853      6.615362     0.006509    Cartesian    0.10
--------------------------------------------------------------------------------


  Time to end of optimisation  =       69.7832 seconds


  Peak dynamic memory used =     108.54 MB 


  Timing analysis for GULP :

--------------------------------------------------------------------------------
  Task / Subroutine                                          Time (Seconds)
--------------------------------------------------------------------------------
  Calculation of reciprocal space energy and derivatives          0.0173
  Calculation of real space energy and derivatives                0.1551
  Calculation for region 1 energy and derivatives (2-b)          40.7498
  Calculation for region 2a energy                               26.5415
  Calculation and manipulation of Hessian matrix                  0.1105
  Calculation of matrix inversion                                 1.9837
  Symmetry generation of equivalent positions                     0.0022
--------------------------------------------------------------------------------
  Total CPU time                                                 69.7833
--------------------------------------------------------------------------------


  Dump file written as Na3OCl.grs


  Job Finished at 13:22.32  3rd February   2021                               

