********************************************************************************
*                       GENERAL UTILITY LATTICE PROGRAM                        *
*                                 Julian Gale                                  *
*                       Curtin Institute for Computation                       *
*                    School of Molecular and Life Sciences                     *
*                    Curtin University, Western Australia                      *
********************************************************************************
* Version = 5.2.0 * Last modified =  10th September 2020                       *
********************************************************************************
*  optimise     - perform optimisation run                                     *
*  conp         - constant pressure calculation                                *
*  property     - calculate properties for final geometry                      *
*  defect       - perform defect calculation after bulk run                    *
*  compare      - compare initial and final structures                         *
********************************************************************************

  Job Started  at 13:17.17  2nd February   2021                               

  Number of CPUs =     1


  Total number of configurations input =      1

********************************************************************************
*  Input for Configuration =   1                                               *
********************************************************************************

  Formula = ClONa3                                                      

  Number of irreducible atoms/shells =       5


  Total number atoms/shells =       7

  Dimensionality = 3               :  Bulk   


  Symmetry :

  Crystal family                   :  Cubic       
  Crystal class  (Groth - 1921)    :  Cubic Hexakisoctahedral              

  Space group (centrosymmetric)    :  P M 3 M         

  Patterson group                  :  P m -3 m 

  Cartesian lattice vectors (Angstroms) :

        4.504000    0.000000    0.000000
        0.000000    4.504000    0.000000
        0.000000    0.000000    4.504000

  Cell parameters (Angstroms/Degrees):

  a =       4.5040    alpha =  90.0000
  b =       4.5040    beta  =  90.0000
  c =       4.5040    gamma =  90.0000

  Initial cell volume =          91.368216 Angs**3

  Temperature of configuration =   0.00     K 

  Pressure of configuration =         0.000 GPa 

  Fractional coordinates of asymmetric unit :

--------------------------------------------------------------------------------
   No.  Atomic       x           y          z         Charge      Occupancy
        Label      (Frac)      (Frac)     (Frac)        (e)         (Frac)  
--------------------------------------------------------------------------------
      1 Cl    c    0.000000    0.000000    0.000000     1.48500    1.000000    
      2 O     c    0.500000    0.500000    0.500000     0.18300    1.000000    
      3 Na    c    0.500000    0.500000    0.000000     1.00000    1.000000    
      4 Cl    s    0.000000    0.000000    0.000000    -2.48500    1.000000    
      5 O     s    0.500000    0.500000    0.500000    -2.18300    1.000000    
--------------------------------------------------------------------------------


  Constraints : 

--------------------------------------------------------------------------------
  Constraint no.      Unconstrained     Constrained    Coefficient    Offset
                         Variable         Variable
--------------------------------------------------------------------------------
           1              Strain 1        Strain 2       1.00000      0.0000
           2              Strain 1        Strain 3       1.00000      0.0000
--------------------------------------------------------------------------------


********************************************************************************
*  General input information                                                   *
********************************************************************************

  Species output for all configurations : 

--------------------------------------------------------------------------------
  Species    Type    Atomic    Atomic    Charge       Radii (Angs)     Library
                     Number     Mass       (e)     Cova   Ionic  VDW   Symbol
--------------------------------------------------------------------------------
    Na       Core       11      22.99   1.000000   0.970  0.000  2.300          
    O        Core        8      16.00   0.183000   0.730  0.000  1.360          
    O        Shell       8       0.00  -2.183000   0.730  0.000  1.360          
    Cl       Core       17      35.45   1.485000   0.990  0.000  1.650          
    Cl       Shell      17       0.00  -2.485000   0.990  0.000  1.650          
    Mg       Core       12      24.31   0.415000   1.100  0.000  0.000          
    Mg       Shell      12       0.00   1.585000   1.100  0.000  0.000          
    Ca       Core       20      40.08  -1.135000   0.990  0.000  0.000          
    Ca       Shell      20       0.00   3.135000   0.990  0.000  0.000          
    Sr       Core       38      87.62  -1.251000   1.120  0.000  0.000          
    Sr       Shell      38       0.00   3.251000   1.120  0.000  0.000          
    Ba       Core       56     137.33  -7.203000   1.340  0.000  0.000          
    Ba       Shell      56       0.00   9.203000   1.340  0.000  0.000          
--------------------------------------------------------------------------------


  Lattice summation method               =    Ewald          (3-D)
                                         =    Parry          (2-D)
                                         =    Saunders et al (1-D)
  Accuracy factor for lattice sums       =   12.000


  Analytic derivatives to be used

  Time limit = Infinity

  Maximum range for interatomic potentials =    100000.000000 Angstroms

  General interatomic potentials :

--------------------------------------------------------------------------------
Atom  Types   Potential      Parameter       Value         Units   Cutoffs(Ang)
  1     2                                                            Min /  Max 
--------------------------------------------------------------------------------
O    c O    s Spring (c-s)  Spring k 2       593.71600    eV*Ang^-2 0.000  0.800
                            Spring k 4       0.0000000    eV*Ang^-4 
--------------------------------------------------------------------------------
Cl   c Cl   s Spring (c-s)  Spring k 2       29.380000    eV*Ang^-2 0.000  0.800
                            Spring k 4       0.0000000    eV*Ang^-4 
--------------------------------------------------------------------------------
Mg   c Mg   s Spring (c-s)  Spring k 2       361.60000    eV*Ang^-2 0.000  0.800
                            Spring k 4       0.0000000    eV*Ang^-4 
--------------------------------------------------------------------------------
Ca   c Ca   s Spring (c-s)  Spring k 2       110.20000    eV*Ang^-2 0.000  0.800
                            Spring k 4       0.0000000    eV*Ang^-4 
--------------------------------------------------------------------------------
Sr   c Sr   s Spring (c-s)  Spring k 2       71.700000    eV*Ang^-2 0.000  0.800
                            Spring k 4       0.0000000    eV*Ang^-4 
--------------------------------------------------------------------------------
Ba   c Ba   s Spring (c-s)  Spring k 2       495.20000    eV*Ang^-2 0.000  0.800
                            Spring k 4       0.0000000    eV*Ang^-4 
--------------------------------------------------------------------------------
Na   c Na   c Buckingham    Buckingham A     1788.1900    eV        0.000 12.000
                            Buckingham rho  0.15900000    Ang       
                            Buckingham C     0.0000000    eV*Ang^6  
--------------------------------------------------------------------------------
Na   c O    s Buckingham    Buckingham A     588.38000    eV        0.000 12.000
                            Buckingham rho  0.33800000    Ang       
                            Buckingham C     0.0000000    eV*Ang^6  
--------------------------------------------------------------------------------
Na   c Cl   s Buckingham    Buckingham A     1170.4100    eV        0.000 12.000
                            Buckingham rho  0.31500000    Ang       
                            Buckingham C     0.0000000    eV*Ang^6  
--------------------------------------------------------------------------------
O    s O    s Buckingham    Buckingham A     22764.300    eV        0.000 12.000
                            Buckingham rho  0.14900000    Ang       
                            Buckingham C     13.190000    eV*Ang^6  
--------------------------------------------------------------------------------
O    s Cl   s Buckingham    Buckingham A     8286.9100    eV        0.000 12.000
                            Buckingham rho  0.25900000    Ang       
                            Buckingham C     62.200000    eV*Ang^6  
--------------------------------------------------------------------------------
Cl   s Cl   s Buckingham    Buckingham A     1227.2000    eV        0.000 12.000
                            Buckingham rho  0.32100000    Ang       
                            Buckingham C     14.530000    eV*Ang^6  
--------------------------------------------------------------------------------
O    s Mg   s Buckingham    Buckingham A     1428.5000    eV        0.000 12.000
                            Buckingham rho  0.29450000    Ang       
                            Buckingham C     0.0000000    eV*Ang^6  
--------------------------------------------------------------------------------
Mg   s Cl   s Buckingham    Buckingham A     4914.5400    eV        0.000 12.000
                            Buckingham rho  0.25700000    Ang       
                            Buckingham C     0.0000000    eV*Ang^6  
--------------------------------------------------------------------------------
O    s Ca   s Buckingham    Buckingham A     1090.4000    eV        0.000 12.000
                            Buckingham rho  0.34370000    Ang       
                            Buckingham C     0.0000000    eV*Ang^6  
--------------------------------------------------------------------------------
Cl   s Ca   s Buckingham    Buckingham A     2302.0000    eV        0.000 12.000
                            Buckingham rho  0.34020000    Ang       
                            Buckingham C     0.0000000    eV*Ang^6  
--------------------------------------------------------------------------------
O    s Sr   s Buckingham    Buckingham A     959.10000    eV        0.000 12.000
                            Buckingham rho  0.37210000    Ang       
                            Buckingham C     0.0000000    eV*Ang^6  
--------------------------------------------------------------------------------
Cl   s Sr   s Buckingham    Buckingham A     2191.0900    eV        0.000 12.000
                            Buckingham rho  0.34570000    Ang       
                            Buckingham C     0.0000000    eV*Ang^6  
--------------------------------------------------------------------------------
O    s Ba   s Buckingham    Buckingham A     905.70000    eV        0.000 12.000
                            Buckingham rho  0.39760000    Ang       
                            Buckingham C     0.0000000    eV*Ang^6  
--------------------------------------------------------------------------------
Cl   s Ba   s Buckingham    Buckingham A     2704.5500    eV        0.000 12.000
                            Buckingham rho  0.35280000    Ang       
                            Buckingham C     0.0000000    eV*Ang^6  
--------------------------------------------------------------------------------

********************************************************************************
*  Output for configuration   1                                                *
********************************************************************************


  Components of energy : 

--------------------------------------------------------------------------------
  Interatomic potentials     =           4.94315381 eV    
  Monopole - monopole (real) =         -10.03624526 eV    
  Monopole - monopole (recip)=         -29.53581274 eV    
  Monopole - monopole (total)=         -39.57205800 eV    
--------------------------------------------------------------------------------
  Total lattice energy       =         -34.62890419 eV    
--------------------------------------------------------------------------------
  Total lattice energy       =           -3341.1599 kJ/(mole unit cells)
--------------------------------------------------------------------------------


  Number of variables =        1

  Maximum number of calculations  =          1000
  Maximum Hessian update interval =            10
  Maximum step size               =   1.000000000
  Maximum parameter tolerance     =   0.000010000
  Maximum function  tolerance     =   0.000010000
  Maximum gradient  tolerance     =   0.001000000
  Maximum gradient  component     =   0.010000000

  Symmetry constrained optimisation

  Symmetry used for second derivatives

  Cell parameters to be optimised using strains

  Newton-Raphson optimiser to be used

  BFGS hessian update to be used

  Lower half triangular hessian to be used

  Start of bulk optimisation :

  Cycle:      0 Energy:       -34.628904  Gnorm:      4.328237  CPU:    0.008
  ** Hessian calculated **
  Cycle:      1 Energy:       -34.677667  Gnorm:      0.044008  CPU:    0.010
  Cycle:      2 Energy:       -34.677671  Gnorm:      0.003653  CPU:    0.012


  **** Optimisation achieved ****


  Final energy =     -34.67767136 eV
  Final Gnorm  =       0.00000010

  Components of energy : 

--------------------------------------------------------------------------------
  Interatomic potentials     =           5.77546103 eV    
  Monopole - monopole (real) =         -10.25970290 eV    
  Monopole - monopole (recip)=         -30.19342950 eV    
  Monopole - monopole (total)=         -40.45313239 eV    
--------------------------------------------------------------------------------
  Total lattice energy       =         -34.67767136 eV    
--------------------------------------------------------------------------------
  Total lattice energy       =           -3345.8652 kJ/(mole unit cells)
--------------------------------------------------------------------------------

  Final asymmetric unit coordinates :

--------------------------------------------------------------------------------
   No.  Atomic        x           y           z         Radius
        Label       (Frac)      (Frac)      (Frac)       (Angs) 
--------------------------------------------------------------------------------
     1  Cl    c     0.000000    0.000000    0.000000    0.000000
     2  O     c     0.500000    0.500000    0.500000    0.000000
     3  Na    c     0.500000    0.500000    0.000000    0.000000
     4  Cl    s     0.000000    0.000000    0.000000    0.000000
     5  O     s     0.500000    0.500000    0.500000    0.000000
--------------------------------------------------------------------------------

  Final Cartesian lattice vectors (Angstroms) :

        4.405902    0.000000    0.000000
        0.000000    4.405902    0.000000
        0.000000    0.000000    4.405902


  Final cell parameters and derivatives :

--------------------------------------------------------------------------------
       a            4.405902 Angstrom     dE/de1(xx)     0.000000 eV/strain
       b            4.405902 Angstrom     dE/de2(yy)     0.000000 eV/strain
       c            4.405902 Angstrom     dE/de3(zz)     0.000000 eV/strain
       alpha       90.000000 Degrees      dE/de4(yz)     0.000000 eV/strain
       beta        90.000000 Degrees      dE/de5(xz)     0.000000 eV/strain
       gamma       90.000000 Degrees      dE/de6(xy)     0.000000 eV/strain
--------------------------------------------------------------------------------

  Primitive cell volume =            85.527266 Angs**3

  Density of cell =      2.338030 g/cm**3

  Non-primitive cell volume =            85.527266 Angs**3


  Final internal derivatives :

--------------------------------------------------------------------------------
   No.  Atomic          a             b             c           Radius
        Label          (eV)          (eV)          (eV)        (eV/Angs)
--------------------------------------------------------------------------------
      1 Cl    c       0.000000      0.000000      0.000000      0.000000
      2 O     c       0.000000      0.000000      0.000000      0.000000
      3 Na    c       0.000000      0.000000      0.000000      0.000000
      4 Cl    s       0.000000      0.000000      0.000000      0.000000
      5 O     s       0.000000      0.000000      0.000000      0.000000
--------------------------------------------------------------------------------
  Maximum abs         0.000000      0.000000      0.000000      0.000000
--------------------------------------------------------------------------------

  Comparison of initial and final structures : 

--------------------------------------------------------------------------------
  Parameter   Initial value   Final value   Difference    Units      Percent
--------------------------------------------------------------------------------
    Volume        91.368216     85.527266    -5.840950    Angs**3     -6.39
    a              4.504000      4.405902    -0.098098    Angstroms   -2.18
    b              4.504000      4.405902    -0.098098    Angstroms   -2.18
    c              4.504000      4.405902    -0.098098    Angstroms   -2.18
    alpha         90.000000     90.000000     0.000000    Degrees      0.00
    beta          90.000000     90.000000     0.000000    Degrees      0.00
    gamma         90.000000     90.000000     0.000000    Degrees      0.00
      1 x          0.000000      0.000000     0.000000    Fractional   0.00
      1 y          0.000000      0.000000     0.000000    Fractional   0.00
      1 z          0.000000      0.000000     0.000000    Fractional   0.00
      2 x          0.500000      0.500000     0.000000    Fractional   0.00
      2 y          0.500000      0.500000     0.000000    Fractional   0.00
      2 z          0.500000      0.500000     0.000000    Fractional   0.00
      3 x          0.500000      0.500000     0.000000    Fractional   0.00
      3 y          0.500000      0.500000     0.000000    Fractional   0.00
      3 z          0.000000      0.000000     0.000000    Fractional   0.00
      4 x          0.000000      0.000000     0.000000    Fractional   0.00
      4 y          0.000000      0.000000     0.000000    Fractional   0.00
      4 z          0.000000      0.000000     0.000000    Fractional   0.00
      5 x          0.500000      0.500000     0.000000    Fractional   0.00
      5 y          0.500000      0.500000     0.000000    Fractional   0.00
      5 z          0.500000      0.500000     0.000000    Fractional   0.00
--------------------------------------------------------------------------------


  Born effective charge tensors : 

-------------------------------------------------------------------------------
  Atom             x           y             z
-------------------------------------------------------------------------------
    1 Cl    x      -0.9918     -0.0000     -0.0000
            y      -0.0000     -0.9918     -0.0000
            z      -0.0000     -0.0000     -0.9918
-------------------------------------------------------------------------------
    2 O     x      -2.2939      0.0000      0.0000
            y       0.0000     -2.2939      0.0000
            z       0.0000      0.0000     -2.2939
-------------------------------------------------------------------------------
    3 Na    x       1.2243      0.0000      0.0000
            y       0.0000      1.2243     -0.0000
            z       0.0000      0.0000      0.8372
-------------------------------------------------------------------------------




  Elastic Constant Matrix: (Units=GPa)

-------------------------------------------------------------------------------
  Indices      1         2         3         4         5         6    
-------------------------------------------------------------------------------
       1     82.7680   24.3534   24.3534   -0.0000    0.0000   -0.0000
       2     24.3534   82.7680   24.3534    0.0000   -0.0000   -0.0000
       3     24.3534   24.3534   82.7680    0.0000   -0.0000    0.0000
       4     -0.0000    0.0000    0.0000   24.3534   -0.0000    0.0000
       5      0.0000   -0.0000   -0.0000   -0.0000   24.3534    0.0000
       6     -0.0000   -0.0000    0.0000    0.0000    0.0000   24.3534
-------------------------------------------------------------------------------


  Elastic Compliance Matrix: (Units=1/GPa)

-------------------------------------------------------------------------------
  Indices      1         2         3         4         5         6    
-------------------------------------------------------------------------------
       1    0.013948 -0.003171 -0.003171  0.000000 -0.000000  0.000000
       2   -0.003171  0.013948 -0.003171 -0.000000  0.000000 -0.000000
       3   -0.003171 -0.003171  0.013948 -0.000000  0.000000 -0.000000
       4    0.000000 -0.000000 -0.000000  0.041062  0.000000 -0.000000
       5   -0.000000  0.000000  0.000000  0.000000  0.041062 -0.000000
       6    0.000000 -0.000000 -0.000000 -0.000000 -0.000000  0.041062
-------------------------------------------------------------------------------

  Mechanical properties :

-------------------------------------------------------------------------------
  Convention :                    Reuss         Voigt         Hill
-------------------------------------------------------------------------------
  Bulk  Modulus (GPa)     =      43.82493      43.82493      43.82493
  Shear Modulus (GPa)     =      26.08758      26.29496      26.19127
-------------------------------------------------------------------------------
  Velocity S-wave (km/s)  =       3.34035       3.35360       3.34698
  Velocity P-wave (km/s)  =       5.79842       5.80861       5.80351
-------------------------------------------------------------------------------
  Compressibility (1/GPa) =    0.02281806
-------------------------------------------------------------------------------
  Stress axis :                     x             y             z
-------------------------------------------------------------------------------
  Youngs Moduli (GPa)     =      71.69479      71.69479      71.69479
-------------------------------------------------------------------------------
  Poissons Ratio (x)      =                     0.22734       0.22734
  Poissons Ratio (y)      =       0.22734                     0.22734
  Poissons Ratio (z)      =       0.22734       0.22734
-------------------------------------------------------------------------------


  Piezoelectric Strain Matrix: (Units=C/m**2)

-------------------------------------------------------------------------------
  Indices      1         2         3         4         5         6    
-------------------------------------------------------------------------------
       x    -0.00000  -0.00000  -0.00000  -0.00000   0.00000  -0.00000
       y     0.00000  -0.00000   0.00000   0.00000  -0.00000   0.00000
       z    -0.00000  -0.00000   0.00000  -0.00000   0.00000  -0.00000
-------------------------------------------------------------------------------


  Piezoelectric Stress Matrix: (Units=10**-11 C/N)

-------------------------------------------------------------------------------
  Indices      1         2         3         4         5         6    
-------------------------------------------------------------------------------
       x     0.00000  -0.00000  -0.00000  -0.00000   0.00000  -0.00000
       y     0.00000  -0.00000   0.00000   0.00000  -0.00000   0.00000
       z    -0.00000  -0.00000   0.00000  -0.00000   0.00000  -0.00000
-------------------------------------------------------------------------------


  Static dielectric constant tensor : 

-------------------------------------------------------------------------------
              x         y         z
-------------------------------------------------------------------------------
       x    11.08357   0.00000   0.00000
       y     0.00000  11.08357   0.00000
       z     0.00000   0.00000  11.08357
--------------------------------------------------------------------------------

  High frequency dielectric constant tensor : 

-------------------------------------------------------------------------------
              x         y         z
-------------------------------------------------------------------------------
       x     1.50771   0.00000   0.00000
       y     0.00000   1.50771   0.00000
       z     0.00000   0.00000   1.50771
-------------------------------------------------------------------------------

  Static refractive indices : 

-------------------------------------------------------------------------------
    1 =    3.32920      2 =    3.32920      3 =    3.32920
-------------------------------------------------------------------------------

  High frequency refractive indices : 

-------------------------------------------------------------------------------
    1 =    1.22789      2 =    1.22789      3 =    1.22789
-------------------------------------------------------------------------------


  Time to end of optimisation =       0.0175 seconds

********************************************************************************
*  Defect calculation for configuration   1 :                                  *
********************************************************************************

  Total number of defects =      1

  Total charge on defect  =   1.00

  Defect centre is at   0.5000   0.5000   0.0000  Frac

  Region 1 radius =  14.0000      Number of ions =    928

  Number of symmetry inequivalent region 1 ions  =    102

  Region 2 radius =  24.0000      Number of ions =   3848

  Number of symmetry inequivalent region 2a ions =    313

  Region 2a mode = 4 : screened electrostatics due to region 1 
                       neglect correction to region 1 forces from 2a
                       region 2a displacements based on defects only

  Region 2a ions will only interact with defects in region 1

  Impurities:

--------------------------------------------------------------------------------
    Specification type     Symbol/Number         x          y          z
--------------------------------------------------------------------------------
    Frac/Symbol             Ca               0.500000   0.500000   0.000000
--------------------------------------------------------------------------------


  Symmetry reduced region 1 (Relative to defect centre) :

--------------------------------------------------------------------------------
   No.   Atomic       x            y             z       Radius  Multiplicity   
         Label      (Angs)       (Angs)        (Angs)    (Angs)     
--------------------------------------------------------------------------------
     1  Ca    c      0.0000       0.0000       0.0000    0.0000     1    Defect
     2  O     c      0.0000       0.0000      -2.2030 *  0.0000     2          
     3  Cl    c      2.2030 *     2.2030       0.0000    0.0000     4          
     4  Na    c      2.2030 *     0.0000      -2.2030 *  0.0000     8          
     5  Na    c      0.0000       0.0000       4.4059 *  0.0000     2          
     6  Na    c      0.0000       4.4059 *     0.0000    0.0000     4          
     7  O     c      0.0000       4.4059 *    -2.2030 *  0.0000     8          
     8  Na    c      2.2030 *     4.4059 *    -2.2030 *  0.0000    16          
     9  Cl    c      2.2030 *     2.2030       4.4059 *  0.0000     8          
    10  Na    c      0.0000       4.4059 *     4.4059 *  0.0000     8          
    11  Na    c      4.4059 *     4.4059       0.0000    0.0000     4          
    12  O     c      0.0000       0.0000       6.6089 *  0.0000     2          
    13  O     c      4.4059 *     4.4059      -2.2030 *  0.0000     8          
    14  Cl    c      2.2030 *     6.6089 *     0.0000    0.0000     8          
    15  Na    c      2.2030 *     0.0000       6.6089 *  0.0000     8          
    16  Na    c      6.6089 *     0.0000      -2.2030 *  0.0000     8          
    17  Na    c      4.4059 *     4.4059       4.4059 *  0.0000     8          
    18  O     c      0.0000       4.4059 *     6.6089 *  0.0000     8          
    19  Cl    c      2.2030 *     6.6089 *     4.4059 *  0.0000    16          
    20  Na    c      2.2030 *     4.4059 *     6.6089 *  0.0000    16          
    21  Na    c      6.6089 *     4.4059 *    -2.2030 *  0.0000    16          
    22  Na    c      0.0000       0.0000       8.8118 *  0.0000     2          
    23  Na    c      0.0000       8.8118 *     0.0000    0.0000     4          
    24  O     c      4.4059 *     4.4059       6.6089 *  0.0000     8          
    25  O     c      0.0000       8.8118 *    -2.2030 *  0.0000     8          
    26  Cl    c      2.2030 *     2.2030       8.8118 *  0.0000     8          
    27  Cl    c      6.6089 *     6.6089       0.0000    0.0000     4          
    28  Na    c      6.6089 *     0.0000       6.6089 *  0.0000     8          
    29  Na    c      2.2030 *     8.8118 *    -2.2030 *  0.0000    16          
    30  Na    c      0.0000       4.4059 *     8.8118 *  0.0000     8          
    31  Na    c      0.0000       8.8118 *     4.4059 *  0.0000     8          
    32  Na    c      4.4059 *     8.8118 *     0.0000    0.0000     8          
    33  O     c      4.4059 *     8.8118 *    -2.2030 *  0.0000    16          
    34  Cl    c      6.6089 *     6.6089       4.4059 *  0.0000     8          
    35  Na    c      6.6089 *     4.4059 *     6.6089 *  0.0000    16          
    36  Na    c      4.4059 *     8.8118 *     4.4059 *  0.0000    16          
    37  Na    c      4.4059 *     4.4059       8.8118 *  0.0000     8          
    38  O     c      0.0000       0.0000      11.0148 *  0.0000     2          
    39  O     c      0.0000       8.8118 *     6.6089 *  0.0000     8          
    40  Cl    c      2.2030 *     6.6089 *     8.8118 *  0.0000    16          
    41  Cl    c      2.2030 *    11.0148 *     0.0000    0.0000     8          
    42  Na    c      2.2030 *     0.0000      11.0148 *  0.0000     8          
    43  Na    c      2.2030 *     8.8118 *     6.6089 *  0.0000    16          
    44  Na    c     11.0148 *     0.0000      -2.2030 *  0.0000     8          
    45  Na    c      6.6089 *     8.8118 *    -2.2030 *  0.0000    16          
    46  O     c      0.0000       4.4059 *    11.0148 *  0.0000     8          
    47  O     c      4.4059 *     8.8118 *     6.6089 *  0.0000    16          
    48  Cl    c      2.2030 *    11.0148 *     4.4059 *  0.0000    16          
    49  Na    c      2.2030 *     4.4059 *    11.0148 *  0.0000    16          
    50  Na    c     11.0148 *     4.4059 *    -2.2030 *  0.0000    16          
    51  Na    c      0.0000       8.8118 *     8.8118 *  0.0000     8          
    52  Na    c      8.8118 *     8.8118       0.0000    0.0000     4          
    53  O     c      4.4059 *     4.4059      11.0148 *  0.0000     8          
    54  O     c      8.8118 *     8.8118      -2.2030 *  0.0000     8          
    55  Cl    c      6.6089 *     6.6089       8.8118 *  0.0000     8          
    56  Cl    c      6.6089 *    11.0148 *     0.0000    0.0000     8          
    57  Na    c      6.6089 *     0.0000      11.0148 *  0.0000     8          
    58  Na    c     11.0148 *     0.0000       6.6089 *  0.0000     8          
    59  Na    c      6.6089 *     8.8118 *     6.6089 *  0.0000    16          
    60  Na    c      0.0000       0.0000      13.2177 *  0.0000     2          
    61  Na    c      0.0000      13.2177 *     0.0000    0.0000     4          
    62  Na    c      4.4059 *     8.8118 *     8.8118 *  0.0000    16          
    63  Na    c      8.8118 *     8.8118       4.4059 *  0.0000     8          
    64  O     c      0.0000      13.2177 *    -2.2030 *  0.0000     8          
    65  Cl    c      6.6089 *    11.0148 *     4.4059 *  0.0000    16          
    66  Na    c      2.2030 *    13.2177 *    -2.2030 *  0.0000    16          
    67  Cl    c      2.2030 *     2.2030      13.2177 *  0.0000     8          
    68  Na    c      6.6089 *     4.4059 *    11.0148 *  0.0000    16          
    69  Na    c     11.0148 *     4.4059 *     6.6089 *  0.0000    16          
    70  Na    c      0.0000       4.4059 *    13.2177 *  0.0000     8          
    71  Na    c      0.0000      13.2177 *     4.4059 *  0.0000     8          
    72  Na    c      4.4059 *    13.2177 *     0.0000    0.0000     8          
    73  Ca    s      0.0000       0.0000       0.0000    0.0000     1    Defect
    74  O     s      0.0000       0.0000      -2.2030 *  0.0000     2          
    75  Cl    s      2.2030 *     2.2030       0.0000    0.0000     4          
    76  O     s      0.0000       4.4059 *    -2.2030 *  0.0000     8          
    77  Cl    s      2.2030 *     2.2030       4.4059 *  0.0000     8          
    78  O     s      0.0000       0.0000       6.6089 *  0.0000     2          
    79  O     s      4.4059 *     4.4059      -2.2030 *  0.0000     8          
    80  Cl    s      2.2030 *     6.6089 *     0.0000    0.0000     8          
    81  O     s      0.0000       4.4059 *     6.6089 *  0.0000     8          
    82  Cl    s      2.2030 *     6.6089 *     4.4059 *  0.0000    16          
    83  O     s      4.4059 *     4.4059       6.6089 *  0.0000     8          
    84  O     s      0.0000       8.8118 *    -2.2030 *  0.0000     8          
    85  Cl    s      2.2030 *     2.2030       8.8118 *  0.0000     8          
    86  Cl    s      6.6089 *     6.6089       0.0000    0.0000     4          
    87  O     s      4.4059 *     8.8118 *    -2.2030 *  0.0000    16          
    88  Cl    s      6.6089 *     6.6089       4.4059 *  0.0000     8          
    89  O     s      0.0000       0.0000      11.0148 *  0.0000     2          
    90  O     s      0.0000       8.8118 *     6.6089 *  0.0000     8          
    91  Cl    s      2.2030 *     6.6089 *     8.8118 *  0.0000    16          
    92  Cl    s      2.2030 *    11.0148 *     0.0000    0.0000     8          
    93  O     s      0.0000       4.4059 *    11.0148 *  0.0000     8          
    94  O     s      4.4059 *     8.8118 *     6.6089 *  0.0000    16          
    95  Cl    s      2.2030 *    11.0148 *     4.4059 *  0.0000    16          
    96  O     s      4.4059 *     4.4059      11.0148 *  0.0000     8          
    97  O     s      8.8118 *     8.8118      -2.2030 *  0.0000     8          
    98  Cl    s      6.6089 *     6.6089       8.8118 *  0.0000     8          
    99  Cl    s      6.6089 *    11.0148 *     0.0000    0.0000     8          
   100  O     s      0.0000      13.2177 *    -2.2030 *  0.0000     8          
   101  Cl    s      6.6089 *    11.0148 *     4.4059 *  0.0000    16          
   102  Cl    s      2.2030 *     2.2030      13.2177 *  0.0000     8          
--------------------------------------------------------------------------------


  Constraints on symmetry reduced coordinates :

--------------------------------------------------------------------------------
  Constraint no.      Unconstrained     Constrained    Coefficient    
                         Variable         Variable
--------------------------------------------------------------------------------
           1                 3 x             3 y         1.00000
           2                 9 x             9 y         1.00000
           3                11 x            11 y         1.00000
           4                13 x            13 y         1.00000
           5                17 x            17 y         1.00000
           6                24 x            24 y         1.00000
           7                26 x            26 y         1.00000
           8                27 x            27 y         1.00000
           9                34 x            34 y         1.00000
          10                37 x            37 y         1.00000
          11                52 x            52 y         1.00000
          12                53 x            53 y         1.00000
          13                54 x            54 y         1.00000
          14                55 x            55 y         1.00000
          15                63 x            63 y         1.00000
          16                67 x            67 y         1.00000
          17                75 x            75 y         1.00000
          18                77 x            77 y         1.00000
          19                79 x            79 y         1.00000
          20                83 x            83 y         1.00000
          21                85 x            85 y         1.00000
          22                86 x            86 y         1.00000
          23                88 x            88 y         1.00000
          24                96 x            96 y         1.00000
          25                97 x            97 y         1.00000
          26                98 x            98 y         1.00000
          27               102 x           102 y         1.00000
--------------------------------------------------------------------------------


  Components of defect energy : 

--------------------------------------------------------------------------------
  Region 1 - region 1                   =     40.60154395 eV
  Region 1 - region 2a (unrelaxed)      =    -48.56209416 eV
  Region 1 - 2a (relaxed - correction)  =     -0.38903601 eV
  Region 1 (Total)                      =     -8.34958622 eV
  Region 2a                             =      0.19455230 eV
  Region 2b                             =     -0.27216525 eV
--------------------------------------------------------------------------------
  Total defect energy                   =     -8.42719918 eV
--------------------------------------------------------------------------------

  Largest displacement in region 2 =   0.0116 Angstroms


  Number of variables =      209

  Maximum number of calculations  =        1000
  Maximum Hessian update interval =          10
  Maximum step size               =   1.0000000
  Maximum parameter tolerance     =   0.0000100
  Maximum function  tolerance     =   0.0000100
  Maximum gradient  tolerance     =   0.0010000

  Symmetry adapted optimisation

  Symmetry to be used for second derivatives

  Newton-Raphson optimiser to be used

  BFGS hessian update to be used

  Lower half triangular hessian to be used

  Start of defect optimisation :

  Cycle:      0 Defect Energy:  -8.427199  Gnorm:     0.189112  CPU:    7.713
  ** Hessian calculated **
  Cycle:      1 Defect Energy: -11.133732  Gnorm:     0.021809  CPU:   11.738
  Cycle:      2 Defect Energy: -11.181457  Gnorm:     0.002797  CPU:   14.755
  Cycle:      3 Defect Energy: -11.183871  Gnorm:     0.001754  CPU:   15.586
  Cycle:      4 Defect Energy: -11.184718  Gnorm:     0.001198  CPU:   16.489
  Cycle:      5 Defect Energy: -11.185131  Gnorm:     0.000845  CPU:   17.266
  Cycle:      6 Defect Energy: -11.185333  Gnorm:     0.000588  CPU:   18.035
  Cycle:      7 Defect Energy: -11.185430  Gnorm:     0.000413  CPU:   18.818
  Cycle:      8 Defect Energy: -11.185477  Gnorm:     0.000288  CPU:   19.607
  Cycle:      9 Defect Energy: -11.185500  Gnorm:     0.000202  CPU:   20.391
  Cycle:     10 Defect Energy: -11.185510  Gnorm:     0.000141  CPU:   21.248
  ** Hessian calculated **
  Cycle:     11 Defect Energy: -11.185516  Gnorm:     0.000099  CPU:   22.926


  **** Optimisation achieved ****


  Final defect energy  =      -11.18551784
  Final defect Gnorm   =        0.00006930

  Components of defect energy : 

--------------------------------------------------------------------------------
  Region 1 - region 1                   =     34.28824980 eV
  Region 1 - region 2a (unrelaxed)      =    -45.02978598 eV
  Region 1 - 2a (relaxed - correction)  =     -0.34358275 eV
  Region 1 (Total)                      =    -11.08511893 eV
  Region 2a                             =      0.17176635 eV
  Region 2b                             =     -0.27216525 eV
--------------------------------------------------------------------------------
  Total defect energy                   =    -11.18551784 eV
--------------------------------------------------------------------------------

  Largest displacement in region 2 =   0.0116 Angstroms

  Final coordinates of region 1 :

--------------------------------------------------------------------------------
   No.  Atomic        x           y           z          Radius      Charge
        Label       (Angs)      (Angs)      (Angs)       (Angs)       (e) 
--------------------------------------------------------------------------------
     1  Ca    c     2.202951    2.202951    0.000000    0.000000   -1.135000
     2  O     c     2.202951    2.202951   -2.095343    0.000000    0.183000
     3  O     c     2.202951    2.202951    2.095343    0.000000    0.183000
     4  Cl    c     4.377697    4.377697    0.000000    0.000000    1.485000
     5  Cl    c     4.377697    0.028206    0.000000    0.000000    1.485000
     6  Cl    c     0.028206    4.377697    0.000000    0.000000    1.485000
     7  Cl    c     0.028206    0.028206    0.000000    0.000000    1.485000
     8  Na    c     4.478935    2.202951   -2.416468    0.000000    1.000000
     9  Na    c     4.478935    2.202951    2.416468    0.000000    1.000000
    10  Na    c    -0.073032    2.202951   -2.416468    0.000000    1.000000
    11  Na    c    -0.073032    2.202951    2.416468    0.000000    1.000000
    12  Na    c     2.202951    4.478935   -2.416468    0.000000    1.000000
    13  Na    c     2.202951    4.478935    2.416468    0.000000    1.000000
    14  Na    c     2.202951   -0.073032   -2.416468    0.000000    1.000000
    15  Na    c     2.202951   -0.073032    2.416468    0.000000    1.000000
    16  Na    c     2.202951    2.202951    4.429386    0.000000    1.000000
    17  Na    c     2.202951    2.202951   -4.429386    0.000000    1.000000
    18  Na    c     2.202951    6.575067    0.000000    0.000000    1.000000
    19  Na    c     2.202951   -2.169165    0.000000    0.000000    1.000000
    20  Na    c     6.575067    2.202951    0.000000    0.000000    1.000000
    21  Na    c    -2.169165    2.202951    0.000000    0.000000    1.000000
    22  O     c     2.202951    6.630660   -2.211361    0.000000    0.183000
    23  O     c     2.202951    6.630660    2.211361    0.000000    0.183000
    24  O     c     2.202951   -2.224758   -2.211361    0.000000    0.183000
    25  O     c     2.202951   -2.224758    2.211361    0.000000    0.183000
    26  O     c     6.630660    2.202951   -2.211361    0.000000    0.183000
    27  O     c     6.630660    2.202951    2.211361    0.000000    0.183000
    28  O     c    -2.224758    2.202951   -2.211361    0.000000    0.183000
    29  O     c    -2.224758    2.202951    2.211361    0.000000    0.183000
    30  Na    c     4.412290    6.650646   -2.201341    0.000000    1.000000
    31  Na    c     4.412290    6.650646    2.201341    0.000000    1.000000
    32  Na    c     4.412290   -2.244744   -2.201341    0.000000    1.000000
    33  Na    c     4.412290   -2.244744    2.201341    0.000000    1.000000
    34  Na    c    -0.006387    6.650646   -2.201341    0.000000    1.000000
    35  Na    c    -0.006387    6.650646    2.201341    0.000000    1.000000
    36  Na    c    -0.006387   -2.244744   -2.201341    0.000000    1.000000
    37  Na    c    -0.006387   -2.244744    2.201341    0.000000    1.000000
    38  Na    c     6.650646    4.412290   -2.201341    0.000000    1.000000
    39  Na    c     6.650646    4.412290    2.201341    0.000000    1.000000
    40  Na    c     6.650646   -0.006387   -2.201341    0.000000    1.000000
    41  Na    c     6.650646   -0.006387    2.201341    0.000000    1.000000
    42  Na    c    -2.244744    4.412290   -2.201341    0.000000    1.000000
    43  Na    c    -2.244744    4.412290    2.201341    0.000000    1.000000
    44  Na    c    -2.244744   -0.006387   -2.201341    0.000000    1.000000
    45  Na    c    -2.244744   -0.006387    2.201341    0.000000    1.000000
    46  Cl    c     4.351267    4.351267    4.363429    0.000000    1.485000
    47  Cl    c     4.351267    4.351267   -4.363429    0.000000    1.485000
    48  Cl    c     4.351267    0.054636    4.363429    0.000000    1.485000
    49  Cl    c     4.351267    0.054636   -4.363429    0.000000    1.485000
    50  Cl    c     0.054636    4.351267    4.363429    0.000000    1.485000
    51  Cl    c     0.054636    4.351267   -4.363429    0.000000    1.485000
    52  Cl    c     0.054636    0.054636    4.363429    0.000000    1.485000
    53  Cl    c     0.054636    0.054636   -4.363429    0.000000    1.485000
    54  Na    c     2.202951    6.756967    4.424999    0.000000    1.000000
    55  Na    c     2.202951    6.756967   -4.424999    0.000000    1.000000
    56  Na    c     2.202951   -2.351065    4.424999    0.000000    1.000000
    57  Na    c     2.202951   -2.351065   -4.424999    0.000000    1.000000
    58  Na    c     6.756967    2.202951    4.424999    0.000000    1.000000
    59  Na    c     6.756967    2.202951   -4.424999    0.000000    1.000000
    60  Na    c    -2.351065    2.202951    4.424999    0.000000    1.000000
    61  Na    c    -2.351065    2.202951   -4.424999    0.000000    1.000000
    62  Na    c     6.645321    6.645321    0.000000    0.000000    1.000000
    63  Na    c     6.645321   -2.239419    0.000000    0.000000    1.000000
    64  Na    c    -2.239419    6.645321    0.000000    0.000000    1.000000
    65  Na    c    -2.239419   -2.239419    0.000000    0.000000    1.000000
    66  O     c     2.202951    2.202951    6.600866    0.000000    0.183000
    67  O     c     2.202951    2.202951   -6.600866    0.000000    0.183000
    68  O     c     6.609115    6.609115   -2.203264    0.000000    0.183000
    69  O     c     6.609115    6.609115    2.203264    0.000000    0.183000
    70  O     c     6.609115   -2.203212   -2.203264    0.000000    0.183000
    71  O     c     6.609115   -2.203212    2.203264    0.000000    0.183000
    72  O     c    -2.203212    6.609115   -2.203264    0.000000    0.183000
    73  O     c    -2.203212    6.609115    2.203264    0.000000    0.183000
    74  O     c    -2.203212   -2.203212   -2.203264    0.000000    0.183000
    75  O     c    -2.203212   -2.203212    2.203264    0.000000    0.183000
    76  Cl    c     4.402929    8.790847    0.000000    0.000000    1.485000
    77  Cl    c     4.402929   -4.384945    0.000000    0.000000    1.485000
    78  Cl    c     8.790847    4.402929    0.000000    0.000000    1.485000
    79  Cl    c     8.790847    0.002973    0.000000    0.000000    1.485000
    80  Cl    c     0.002973    8.790847    0.000000    0.000000    1.485000
    81  Cl    c     0.002973   -4.384945    0.000000    0.000000    1.485000
    82  Cl    c    -4.384945    4.402929    0.000000    0.000000    1.485000
    83  Cl    c    -4.384945    0.002973    0.000000    0.000000    1.485000
    84  Na    c     4.415267    2.202951    6.607816    0.000000    1.000000
    85  Na    c     4.415267    2.202951   -6.607816    0.000000    1.000000
    86  Na    c    -0.009364    2.202951    6.607816    0.000000    1.000000
    87  Na    c    -0.009364    2.202951   -6.607816    0.000000    1.000000
    88  Na    c     2.202951    4.415267    6.607816    0.000000    1.000000
    89  Na    c     2.202951    4.415267   -6.607816    0.000000    1.000000
    90  Na    c     2.202951   -0.009364    6.607816    0.000000    1.000000
    91  Na    c     2.202951   -0.009364   -6.607816    0.000000    1.000000
    92  Na    c     8.833730    2.202951   -2.131811    0.000000    1.000000
    93  Na    c     8.833730    2.202951    2.131811    0.000000    1.000000
    94  Na    c    -4.427828    2.202951   -2.131811    0.000000    1.000000
    95  Na    c    -4.427828    2.202951    2.131811    0.000000    1.000000
    96  Na    c     2.202951    8.833730   -2.131811    0.000000    1.000000
    97  Na    c     2.202951    8.833730    2.131811    0.000000    1.000000
    98  Na    c     2.202951   -4.427828   -2.131811    0.000000    1.000000
    99  Na    c     2.202951   -4.427828    2.131811    0.000000    1.000000
   100  Na    c     6.623221    6.623221    4.408482    0.000000    1.000000
   101  Na    c     6.623221    6.623221   -4.408482    0.000000    1.000000
   102  Na    c     6.623221   -2.217319    4.408482    0.000000    1.000000
   103  Na    c     6.623221   -2.217319   -4.408482    0.000000    1.000000
   104  Na    c    -2.217319    6.623221    4.408482    0.000000    1.000000
   105  Na    c    -2.217319    6.623221   -4.408482    0.000000    1.000000
   106  Na    c    -2.217319   -2.217319    4.408482    0.000000    1.000000
   107  Na    c    -2.217319   -2.217319   -4.408482    0.000000    1.000000
   108  O     c     2.202951    6.620676    6.615513    0.000000    0.183000
   109  O     c     2.202951    6.620676   -6.615513    0.000000    0.183000
   110  O     c     2.202951   -2.214774    6.615513    0.000000    0.183000
   111  O     c     2.202951   -2.214774   -6.615513    0.000000    0.183000
   112  O     c     6.620676    2.202951    6.615513    0.000000    0.183000
   113  O     c     6.620676    2.202951   -6.615513    0.000000    0.183000
   114  O     c    -2.214774    2.202951    6.615513    0.000000    0.183000
   115  O     c    -2.214774    2.202951   -6.615513    0.000000    0.183000
   116  Cl    c     4.404075    8.800249    4.402554    0.000000    1.485000
   117  Cl    c     4.404075    8.800249   -4.402554    0.000000    1.485000
   118  Cl    c     4.404075   -4.394347    4.402554    0.000000    1.485000
   119  Cl    c     4.404075   -4.394347   -4.402554    0.000000    1.485000
   120  Cl    c     8.800249    4.404075    4.402554    0.000000    1.485000
   121  Cl    c     8.800249    4.404075   -4.402554    0.000000    1.485000
   122  Cl    c     8.800249    0.001827    4.402554    0.000000    1.485000
   123  Cl    c     8.800249    0.001827   -4.402554    0.000000    1.485000
   124  Cl    c     0.001827    8.800249    4.402554    0.000000    1.485000
   125  Cl    c     0.001827    8.800249   -4.402554    0.000000    1.485000
   126  Cl    c     0.001827   -4.394347    4.402554    0.000000    1.485000
   127  Cl    c     0.001827   -4.394347   -4.402554    0.000000    1.485000
   128  Cl    c    -4.394347    4.404075    4.402554    0.000000    1.485000
   129  Cl    c    -4.394347    4.404075   -4.402554    0.000000    1.485000
   130  Cl    c    -4.394347    0.001827    4.402554    0.000000    1.485000
   131  Cl    c    -4.394347    0.001827   -4.402554    0.000000    1.485000
   132  Na    c     4.406251    6.624424    6.635892    0.000000    1.000000
   133  Na    c     4.406251    6.624424   -6.635892    0.000000    1.000000
   134  Na    c     4.406251   -2.218522    6.635892    0.000000    1.000000
   135  Na    c     4.406251   -2.218522   -6.635892    0.000000    1.000000
   136  Na    c    -0.000349    6.624424    6.635892    0.000000    1.000000
   137  Na    c    -0.000349    6.624424   -6.635892    0.000000    1.000000
   138  Na    c    -0.000349   -2.218522    6.635892    0.000000    1.000000
   139  Na    c    -0.000349   -2.218522   -6.635892    0.000000    1.000000
   140  Na    c     6.624424    4.406251    6.635892    0.000000    1.000000
   141  Na    c     6.624424    4.406251   -6.635892    0.000000    1.000000
   142  Na    c     6.624424   -0.000349    6.635892    0.000000    1.000000
   143  Na    c     6.624424   -0.000349   -6.635892    0.000000    1.000000
   144  Na    c    -2.218522    4.406251    6.635892    0.000000    1.000000
   145  Na    c    -2.218522    4.406251   -6.635892    0.000000    1.000000
   146  Na    c    -2.218522   -0.000349    6.635892    0.000000    1.000000
   147  Na    c    -2.218522   -0.000349   -6.635892    0.000000    1.000000
   148  Na    c     8.819918    6.621391   -2.215188    0.000000    1.000000
   149  Na    c     8.819918    6.621391    2.215188    0.000000    1.000000
   150  Na    c     8.819918   -2.215489   -2.215188    0.000000    1.000000
   151  Na    c     8.819918   -2.215489    2.215188    0.000000    1.000000
   152  Na    c    -4.414016    6.621391   -2.215188    0.000000    1.000000
   153  Na    c    -4.414016    6.621391    2.215188    0.000000    1.000000
   154  Na    c    -4.414016   -2.215489   -2.215188    0.000000    1.000000
   155  Na    c    -4.414016   -2.215489    2.215188    0.000000    1.000000
   156  Na    c     6.621391    8.819918   -2.215188    0.000000    1.000000
   157  Na    c     6.621391    8.819918    2.215188    0.000000    1.000000
   158  Na    c     6.621391   -4.414016   -2.215188    0.000000    1.000000
   159  Na    c     6.621391   -4.414016    2.215188    0.000000    1.000000
   160  Na    c    -2.215489    8.819918   -2.215188    0.000000    1.000000
   161  Na    c    -2.215489    8.819918    2.215188    0.000000    1.000000
   162  Na    c    -2.215489   -4.414016   -2.215188    0.000000    1.000000
   163  Na    c    -2.215489   -4.414016    2.215188    0.000000    1.000000
   164  Na    c     2.202951    2.202951    8.810458    0.000000    1.000000
   165  Na    c     2.202951    2.202951   -8.810458    0.000000    1.000000
   166  Na    c     2.202951   11.105310    0.000000    0.000000    1.000000
   167  Na    c     2.202951   -6.699407    0.000000    0.000000    1.000000
   168  Na    c    11.105310    2.202951    0.000000    0.000000    1.000000
   169  Na    c    -6.699407    2.202951    0.000000    0.000000    1.000000
   170  O     c     6.604702    6.604702    6.605110    0.000000    0.183000
   171  O     c     6.604702    6.604702   -6.605110    0.000000    0.183000
   172  O     c     6.604702   -2.198800    6.605110    0.000000    0.183000
   173  O     c     6.604702   -2.198800   -6.605110    0.000000    0.183000
   174  O     c    -2.198800    6.604702    6.605110    0.000000    0.183000
   175  O     c    -2.198800    6.604702   -6.605110    0.000000    0.183000
   176  O     c    -2.198800   -2.198800    6.605110    0.000000    0.183000
   177  O     c    -2.198800   -2.198800   -6.605110    0.000000    0.183000
   178  O     c     2.202951   11.023883   -2.201199    0.000000    0.183000
   179  O     c     2.202951   11.023883    2.201199    0.000000    0.183000
   180  O     c     2.202951   -6.617981   -2.201199    0.000000    0.183000
   181  O     c     2.202951   -6.617981    2.201199    0.000000    0.183000
   182  O     c    11.023883    2.202951   -2.201199    0.000000    0.183000
   183  O     c    11.023883    2.202951    2.201199    0.000000    0.183000
   184  O     c    -6.617981    2.202951   -2.201199    0.000000    0.183000
   185  O     c    -6.617981    2.202951    2.201199    0.000000    0.183000
   186  Cl    c     4.405717    4.405717    8.792470    0.000000    1.485000
   187  Cl    c     4.405717    4.405717   -8.792470    0.000000    1.485000
   188  Cl    c     4.405717    0.000185    8.792470    0.000000    1.485000
   189  Cl    c     4.405717    0.000185   -8.792470    0.000000    1.485000
   190  Cl    c     0.000185    4.405717    8.792470    0.000000    1.485000
   191  Cl    c     0.000185    4.405717   -8.792470    0.000000    1.485000
   192  Cl    c     0.000185    0.000185    8.792470    0.000000    1.485000
   193  Cl    c     0.000185    0.000185   -8.792470    0.000000    1.485000
   194  Cl    c     8.798604    8.798604    0.000000    0.000000    1.485000
   195  Cl    c     8.798604   -4.392702    0.000000    0.000000    1.485000
   196  Cl    c    -4.392702    8.798604    0.000000    0.000000    1.485000
   197  Cl    c    -4.392702   -4.392702    0.000000    0.000000    1.485000
   198  Na    c     8.826175    2.202951    6.686723    0.000000    1.000000
   199  Na    c     8.826175    2.202951   -6.686723    0.000000    1.000000
   200  Na    c    -4.420273    2.202951    6.686723    0.000000    1.000000
   201  Na    c    -4.420273    2.202951   -6.686723    0.000000    1.000000
   202  Na    c     2.202951    8.826175    6.686723    0.000000    1.000000
   203  Na    c     2.202951    8.826175   -6.686723    0.000000    1.000000
   204  Na    c     2.202951   -4.420273    6.686723    0.000000    1.000000
   205  Na    c     2.202951   -4.420273   -6.686723    0.000000    1.000000
   206  Na    c     4.407044   11.031393   -2.210114    0.000000    1.000000
   207  Na    c     4.407044   11.031393    2.210114    0.000000    1.000000
   208  Na    c     4.407044   -6.625491   -2.210114    0.000000    1.000000
   209  Na    c     4.407044   -6.625491    2.210114    0.000000    1.000000
   210  Na    c    -0.001141   11.031393   -2.210114    0.000000    1.000000
   211  Na    c    -0.001141   11.031393    2.210114    0.000000    1.000000
   212  Na    c    -0.001141   -6.625491   -2.210114    0.000000    1.000000
   213  Na    c    -0.001141   -6.625491    2.210114    0.000000    1.000000
   214  Na    c    11.031393    4.407044   -2.210114    0.000000    1.000000
   215  Na    c    11.031393    4.407044    2.210114    0.000000    1.000000
   216  Na    c    11.031393   -0.001141   -2.210114    0.000000    1.000000
   217  Na    c    11.031393   -0.001141    2.210114    0.000000    1.000000
   218  Na    c    -6.625491    4.407044   -2.210114    0.000000    1.000000
   219  Na    c    -6.625491    4.407044    2.210114    0.000000    1.000000
   220  Na    c    -6.625491   -0.001141   -2.210114    0.000000    1.000000
   221  Na    c    -6.625491   -0.001141    2.210114    0.000000    1.000000
   222  Na    c     2.202951    6.591757    8.822315    0.000000    1.000000
   223  Na    c     2.202951    6.591757   -8.822315    0.000000    1.000000
   224  Na    c     2.202951   -2.185855    8.822315    0.000000    1.000000
   225  Na    c     2.202951   -2.185855   -8.822315    0.000000    1.000000
   226  Na    c     6.591757    2.202951    8.822315    0.000000    1.000000
   227  Na    c     6.591757    2.202951   -8.822315    0.000000    1.000000
   228  Na    c    -2.185855    2.202951    8.822315    0.000000    1.000000
   229  Na    c    -2.185855    2.202951   -8.822315    0.000000    1.000000
   230  Na    c     2.202951   10.985759    4.409690    0.000000    1.000000
   231  Na    c     2.202951   10.985759   -4.409690    0.000000    1.000000
   232  Na    c     2.202951   -6.579857    4.409690    0.000000    1.000000
   233  Na    c     2.202951   -6.579857   -4.409690    0.000000    1.000000
   234  Na    c    10.985759    2.202951    4.409690    0.000000    1.000000
   235  Na    c    10.985759    2.202951   -4.409690    0.000000    1.000000
   236  Na    c    -6.579857    2.202951    4.409690    0.000000    1.000000
   237  Na    c    -6.579857    2.202951   -4.409690    0.000000    1.000000
   238  Na    c     6.610117   11.019041    0.000000    0.000000    1.000000
   239  Na    c     6.610117   -6.613139    0.000000    0.000000    1.000000
   240  Na    c    11.019041    6.610117    0.000000    0.000000    1.000000
   241  Na    c    11.019041   -2.204215    0.000000    0.000000    1.000000
   242  Na    c    -2.204215   11.019041    0.000000    0.000000    1.000000
   243  Na    c    -2.204215   -6.613139    0.000000    0.000000    1.000000
   244  Na    c    -6.613139    6.610117    0.000000    0.000000    1.000000
   245  Na    c    -6.613139   -2.204215    0.000000    0.000000    1.000000
   246  O     c     6.607757   11.015843   -2.203302    0.000000    0.183000
   247  O     c     6.607757   11.015843    2.203302    0.000000    0.183000
   248  O     c     6.607757   -6.609940   -2.203302    0.000000    0.183000
   249  O     c     6.607757   -6.609940    2.203302    0.000000    0.183000
   250  O     c    11.015843    6.607757   -2.203302    0.000000    0.183000
   251  O     c    11.015843    6.607757    2.203302    0.000000    0.183000
   252  O     c    11.015843   -2.201855   -2.203302    0.000000    0.183000
   253  O     c    11.015843   -2.201855    2.203302    0.000000    0.183000
   254  O     c    -2.201855   11.015843   -2.203302    0.000000    0.183000
   255  O     c    -2.201855   11.015843    2.203302    0.000000    0.183000
   256  O     c    -2.201855   -6.609940   -2.203302    0.000000    0.183000
   257  O     c    -2.201855   -6.609940    2.203302    0.000000    0.183000
   258  O     c    -6.609940    6.607757   -2.203302    0.000000    0.183000
   259  O     c    -6.609940    6.607757    2.203302    0.000000    0.183000
   260  O     c    -6.609940   -2.201855   -2.203302    0.000000    0.183000
   261  O     c    -6.609940   -2.201855    2.203302    0.000000    0.183000
   262  Cl    c     8.799951    8.799951    4.401224    0.000000    1.485000
   263  Cl    c     8.799951    8.799951   -4.401224    0.000000    1.485000
   264  Cl    c     8.799951   -4.394049    4.401224    0.000000    1.485000
   265  Cl    c     8.799951   -4.394049   -4.401224    0.000000    1.485000
   266  Cl    c    -4.394049    8.799951    4.401224    0.000000    1.485000
   267  Cl    c    -4.394049    8.799951   -4.401224    0.000000    1.485000
   268  Cl    c    -4.394049   -4.394049    4.401224    0.000000    1.485000
   269  Cl    c    -4.394049   -4.394049   -4.401224    0.000000    1.485000
   270  Na    c     8.815579    6.612960    6.611162    0.000000    1.000000
   271  Na    c     8.815579    6.612960   -6.611162    0.000000    1.000000
   272  Na    c     8.815579   -2.207058    6.611162    0.000000    1.000000
   273  Na    c     8.815579   -2.207058   -6.611162    0.000000    1.000000
   274  Na    c    -4.409677    6.612960    6.611162    0.000000    1.000000
   275  Na    c    -4.409677    6.612960   -6.611162    0.000000    1.000000
   276  Na    c    -4.409677   -2.207058    6.611162    0.000000    1.000000
   277  Na    c    -4.409677   -2.207058   -6.611162    0.000000    1.000000
   278  Na    c     6.612960    8.815579    6.611162    0.000000    1.000000
   279  Na    c     6.612960    8.815579   -6.611162    0.000000    1.000000
   280  Na    c     6.612960   -4.409677    6.611162    0.000000    1.000000
   281  Na    c     6.612960   -4.409677   -6.611162    0.000000    1.000000
   282  Na    c    -2.207058    8.815579    6.611162    0.000000    1.000000
   283  Na    c    -2.207058    8.815579   -6.611162    0.000000    1.000000
   284  Na    c    -2.207058   -4.409677    6.611162    0.000000    1.000000
   285  Na    c    -2.207058   -4.409677   -6.611162    0.000000    1.000000
   286  Na    c     6.616650   11.034459    4.408350    0.000000    1.000000
   287  Na    c     6.616650   11.034459   -4.408350    0.000000    1.000000
   288  Na    c     6.616650   -6.628557    4.408350    0.000000    1.000000
   289  Na    c     6.616650   -6.628557   -4.408350    0.000000    1.000000
   290  Na    c    11.034459    6.616650    4.408350    0.000000    1.000000
   291  Na    c    11.034459    6.616650   -4.408350    0.000000    1.000000
   292  Na    c    11.034459   -2.210748    4.408350    0.000000    1.000000
   293  Na    c    11.034459   -2.210748   -4.408350    0.000000    1.000000
   294  Na    c    -2.210748   11.034459    4.408350    0.000000    1.000000
   295  Na    c    -2.210748   11.034459   -4.408350    0.000000    1.000000
   296  Na    c    -2.210748   -6.628557    4.408350    0.000000    1.000000
   297  Na    c    -2.210748   -6.628557   -4.408350    0.000000    1.000000
   298  Na    c    -6.628557    6.616650    4.408350    0.000000    1.000000
   299  Na    c    -6.628557    6.616650   -4.408350    0.000000    1.000000
   300  Na    c    -6.628557   -2.210748    4.408350    0.000000    1.000000
   301  Na    c    -6.628557   -2.210748   -4.408350    0.000000    1.000000
   302  Na    c     6.619110    6.619110    8.815477    0.000000    1.000000
   303  Na    c     6.619110    6.619110   -8.815477    0.000000    1.000000
   304  Na    c     6.619110   -2.213207    8.815477    0.000000    1.000000
   305  Na    c     6.619110   -2.213207   -8.815477    0.000000    1.000000
   306  Na    c    -2.213207    6.619110    8.815477    0.000000    1.000000
   307  Na    c    -2.213207    6.619110   -8.815477    0.000000    1.000000
   308  Na    c    -2.213207   -2.213207    8.815477    0.000000    1.000000
   309  Na    c    -2.213207   -2.213207   -8.815477    0.000000    1.000000
   310  O     c     2.202951    2.202951   11.014990    0.000000    0.183000
   311  O     c     2.202951    2.202951  -11.014990    0.000000    0.183000
   312  O     c     2.202951   11.017886    6.614353    0.000000    0.183000
   313  O     c     2.202951   11.017886   -6.614353    0.000000    0.183000
   314  O     c     2.202951   -6.611984    6.614353    0.000000    0.183000
   315  O     c     2.202951   -6.611984   -6.614353    0.000000    0.183000
   316  O     c    11.017886    2.202951    6.614353    0.000000    0.183000
   317  O     c    11.017886    2.202951   -6.614353    0.000000    0.183000
   318  O     c    -6.611984    2.202951    6.614353    0.000000    0.183000
   319  O     c    -6.611984    2.202951   -6.614353    0.000000    0.183000
   320  Cl    c     4.402772    8.805811    8.804100    0.000000    1.485000
   321  Cl    c     4.402772    8.805811   -8.804100    0.000000    1.485000
   322  Cl    c     4.402772   -4.399909    8.804100    0.000000    1.485000
   323  Cl    c     4.402772   -4.399909   -8.804100    0.000000    1.485000
   324  Cl    c     8.805811    4.402772    8.804100    0.000000    1.485000
   325  Cl    c     8.805811    4.402772   -8.804100    0.000000    1.485000
   326  Cl    c     8.805811    0.003131    8.804100    0.000000    1.485000
   327  Cl    c     8.805811    0.003131   -8.804100    0.000000    1.485000
   328  Cl    c     0.003131    8.805811    8.804100    0.000000    1.485000
   329  Cl    c     0.003131    8.805811   -8.804100    0.000000    1.485000
   330  Cl    c     0.003131   -4.399909    8.804100    0.000000    1.485000
   331  Cl    c     0.003131   -4.399909   -8.804100    0.000000    1.485000
   332  Cl    c    -4.399909    4.402772    8.804100    0.000000    1.485000
   333  Cl    c    -4.399909    4.402772   -8.804100    0.000000    1.485000
   334  Cl    c    -4.399909    0.003131    8.804100    0.000000    1.485000
   335  Cl    c    -4.399909    0.003131   -8.804100    0.000000    1.485000
   336  Cl    c     4.405413   13.210761    0.000000    0.000000    1.485000
   337  Cl    c     4.405413   -8.804859    0.000000    0.000000    1.485000
   338  Cl    c    13.210761    4.405413    0.000000    0.000000    1.485000
   339  Cl    c    13.210761    0.000489    0.000000    0.000000    1.485000
   340  Cl    c     0.000489   13.210761    0.000000    0.000000    1.485000
   341  Cl    c     0.000489   -8.804859    0.000000    0.000000    1.485000
   342  Cl    c    -8.804859    4.405413    0.000000    0.000000    1.485000
   343  Cl    c    -8.804859    0.000489    0.000000    0.000000    1.485000
   344  Na    c     4.404994    2.202951   11.033858    0.000000    1.000000
   345  Na    c     4.404994    2.202951  -11.033858    0.000000    1.000000
   346  Na    c     0.000908    2.202951   11.033858    0.000000    1.000000
   347  Na    c     0.000908    2.202951  -11.033858    0.000000    1.000000
   348  Na    c     2.202951    4.404994   11.033858    0.000000    1.000000
   349  Na    c     2.202951    4.404994  -11.033858    0.000000    1.000000
   350  Na    c     2.202951    0.000908   11.033858    0.000000    1.000000
   351  Na    c     2.202951    0.000908  -11.033858    0.000000    1.000000
   352  Na    c     4.407793   11.028297    6.610528    0.000000    1.000000
   353  Na    c     4.407793   11.028297   -6.610528    0.000000    1.000000
   354  Na    c     4.407793   -6.622395    6.610528    0.000000    1.000000
   355  Na    c     4.407793   -6.622395   -6.610528    0.000000    1.000000
   356  Na    c    -0.001891   11.028297    6.610528    0.000000    1.000000
   357  Na    c    -0.001891   11.028297   -6.610528    0.000000    1.000000
   358  Na    c    -0.001891   -6.622395    6.610528    0.000000    1.000000
   359  Na    c    -0.001891   -6.622395   -6.610528    0.000000    1.000000
   360  Na    c    11.028297    4.407793    6.610528    0.000000    1.000000
   361  Na    c    11.028297    4.407793   -6.610528    0.000000    1.000000
   362  Na    c    11.028297   -0.001891    6.610528    0.000000    1.000000
   363  Na    c    11.028297   -0.001891   -6.610528    0.000000    1.000000
   364  Na    c    -6.622395    4.407793    6.610528    0.000000    1.000000
   365  Na    c    -6.622395    4.407793   -6.610528    0.000000    1.000000
   366  Na    c    -6.622395   -0.001891    6.610528    0.000000    1.000000
   367  Na    c    -6.622395   -0.001891   -6.610528    0.000000    1.000000
   368  Na    c    13.227152    2.202951   -2.247919    0.000000    1.000000
   369  Na    c    13.227152    2.202951    2.247919    0.000000    1.000000
   370  Na    c    -8.821249    2.202951   -2.247919    0.000000    1.000000
   371  Na    c    -8.821249    2.202951    2.247919    0.000000    1.000000
   372  Na    c     2.202951   13.227152   -2.247919    0.000000    1.000000
   373  Na    c     2.202951   13.227152    2.247919    0.000000    1.000000
   374  Na    c     2.202951   -8.821249   -2.247919    0.000000    1.000000
   375  Na    c     2.202951   -8.821249    2.247919    0.000000    1.000000
   376  Na    c     8.812976   11.024398   -2.204632    0.000000    1.000000
   377  Na    c     8.812976   11.024398    2.204632    0.000000    1.000000
   378  Na    c     8.812976   -6.618496   -2.204632    0.000000    1.000000
   379  Na    c     8.812976   -6.618496    2.204632    0.000000    1.000000
   380  Na    c    -4.407074   11.024398   -2.204632    0.000000    1.000000
   381  Na    c    -4.407074   11.024398    2.204632    0.000000    1.000000
   382  Na    c    -4.407074   -6.618496   -2.204632    0.000000    1.000000
   383  Na    c    -4.407074   -6.618496    2.204632    0.000000    1.000000
   384  Na    c    11.024398    8.812976   -2.204632    0.000000    1.000000
   385  Na    c    11.024398    8.812976    2.204632    0.000000    1.000000
   386  Na    c    11.024398   -4.407074   -2.204632    0.000000    1.000000
   387  Na    c    11.024398   -4.407074    2.204632    0.000000    1.000000
   388  Na    c    -6.618496    8.812976   -2.204632    0.000000    1.000000
   389  Na    c    -6.618496    8.812976    2.204632    0.000000    1.000000
   390  Na    c    -6.618496   -4.407074   -2.204632    0.000000    1.000000
   391  Na    c    -6.618496   -4.407074    2.204632    0.000000    1.000000
   392  O     c     2.202951    6.608077   11.016472    0.000000    0.183000
   393  O     c     2.202951    6.608077  -11.016472    0.000000    0.183000
   394  O     c     2.202951   -2.202175   11.016472    0.000000    0.183000
   395  O     c     2.202951   -2.202175  -11.016472    0.000000    0.183000
   396  O     c     6.608077    2.202951   11.016472    0.000000    0.183000
   397  O     c     6.608077    2.202951  -11.016472    0.000000    0.183000
   398  O     c    -2.202175    2.202951   11.016472    0.000000    0.183000
   399  O     c    -2.202175    2.202951  -11.016472    0.000000    0.183000
   400  O     c     6.609291   11.016769    6.610203    0.000000    0.183000
   401  O     c     6.609291   11.016769   -6.610203    0.000000    0.183000
   402  O     c     6.609291   -6.610867    6.610203    0.000000    0.183000
   403  O     c     6.609291   -6.610867   -6.610203    0.000000    0.183000
   404  O     c    11.016769    6.609291    6.610203    0.000000    0.183000
   405  O     c    11.016769    6.609291   -6.610203    0.000000    0.183000
   406  O     c    11.016769   -2.203388    6.610203    0.000000    0.183000
   407  O     c    11.016769   -2.203388   -6.610203    0.000000    0.183000
   408  O     c    -2.203388   11.016769    6.610203    0.000000    0.183000
   409  O     c    -2.203388   11.016769   -6.610203    0.000000    0.183000
   410  O     c    -2.203388   -6.610867    6.610203    0.000000    0.183000
   411  O     c    -2.203388   -6.610867   -6.610203    0.000000    0.183000
   412  O     c    -6.610867    6.609291    6.610203    0.000000    0.183000
   413  O     c    -6.610867    6.609291   -6.610203    0.000000    0.183000
   414  O     c    -6.610867   -2.203388    6.610203    0.000000    0.183000
   415  O     c    -6.610867   -2.203388   -6.610203    0.000000    0.183000
   416  Cl    c     4.404338   13.208196    4.404978    0.000000    1.485000
   417  Cl    c     4.404338   13.208196   -4.404978    0.000000    1.485000
   418  Cl    c     4.404338   -8.802294    4.404978    0.000000    1.485000
   419  Cl    c     4.404338   -8.802294   -4.404978    0.000000    1.485000
   420  Cl    c    13.208196    4.404338    4.404978    0.000000    1.485000
   421  Cl    c    13.208196    4.404338   -4.404978    0.000000    1.485000
   422  Cl    c    13.208196    0.001564    4.404978    0.000000    1.485000
   423  Cl    c    13.208196    0.001564   -4.404978    0.000000    1.485000
   424  Cl    c     0.001564   13.208196    4.404978    0.000000    1.485000
   425  Cl    c     0.001564   13.208196   -4.404978    0.000000    1.485000
   426  Cl    c     0.001564   -8.802294    4.404978    0.000000    1.485000
   427  Cl    c     0.001564   -8.802294   -4.404978    0.000000    1.485000
   428  Cl    c    -8.802294    4.404338    4.404978    0.000000    1.485000
   429  Cl    c    -8.802294    4.404338   -4.404978    0.000000    1.485000
   430  Cl    c    -8.802294    0.001564    4.404978    0.000000    1.485000
   431  Cl    c    -8.802294    0.001564   -4.404978    0.000000    1.485000
   432  Na    c     4.406976    6.611522   11.022668    0.000000    1.000000
   433  Na    c     4.406976    6.611522  -11.022668    0.000000    1.000000
   434  Na    c     4.406976   -2.205620   11.022668    0.000000    1.000000
   435  Na    c     4.406976   -2.205620  -11.022668    0.000000    1.000000
   436  Na    c    -0.001074    6.611522   11.022668    0.000000    1.000000
   437  Na    c    -0.001074    6.611522  -11.022668    0.000000    1.000000
   438  Na    c    -0.001074   -2.205620   11.022668    0.000000    1.000000
   439  Na    c    -0.001074   -2.205620  -11.022668    0.000000    1.000000
   440  Na    c     6.611522    4.406976   11.022668    0.000000    1.000000
   441  Na    c     6.611522    4.406976  -11.022668    0.000000    1.000000
   442  Na    c     6.611522   -0.001074   11.022668    0.000000    1.000000
   443  Na    c     6.611522   -0.001074  -11.022668    0.000000    1.000000
   444  Na    c    -2.205620    4.406976   11.022668    0.000000    1.000000
   445  Na    c    -2.205620    4.406976  -11.022668    0.000000    1.000000
   446  Na    c    -2.205620   -0.001074   11.022668    0.000000    1.000000
   447  Na    c    -2.205620   -0.001074  -11.022668    0.000000    1.000000
   448  Na    c    13.221743    6.609641   -2.196722    0.000000    1.000000
   449  Na    c    13.221743    6.609641    2.196722    0.000000    1.000000
   450  Na    c    13.221743   -2.203739   -2.196722    0.000000    1.000000
   451  Na    c    13.221743   -2.203739    2.196722    0.000000    1.000000
   452  Na    c    -8.815841    6.609641   -2.196722    0.000000    1.000000
   453  Na    c    -8.815841    6.609641    2.196722    0.000000    1.000000
   454  Na    c    -8.815841   -2.203739   -2.196722    0.000000    1.000000
   455  Na    c    -8.815841   -2.203739    2.196722    0.000000    1.000000
   456  Na    c     6.609641   13.221743   -2.196722    0.000000    1.000000
   457  Na    c     6.609641   13.221743    2.196722    0.000000    1.000000
   458  Na    c     6.609641   -8.815841   -2.196722    0.000000    1.000000
   459  Na    c     6.609641   -8.815841    2.196722    0.000000    1.000000
   460  Na    c    -2.203739   13.221743   -2.196722    0.000000    1.000000
   461  Na    c    -2.203739   13.221743    2.196722    0.000000    1.000000
   462  Na    c    -2.203739   -8.815841   -2.196722    0.000000    1.000000
   463  Na    c    -2.203739   -8.815841    2.196722    0.000000    1.000000
   464  Na    c     2.202951   11.051075    8.817611    0.000000    1.000000
   465  Na    c     2.202951   11.051075   -8.817611    0.000000    1.000000
   466  Na    c     2.202951   -6.645173    8.817611    0.000000    1.000000
   467  Na    c     2.202951   -6.645173   -8.817611    0.000000    1.000000
   468  Na    c    11.051075    2.202951    8.817611    0.000000    1.000000
   469  Na    c    11.051075    2.202951   -8.817611    0.000000    1.000000
   470  Na    c    -6.645173    2.202951    8.817611    0.000000    1.000000
   471  Na    c    -6.645173    2.202951   -8.817611    0.000000    1.000000
   472  Na    c    11.019917   11.019917    0.000000    0.000000    1.000000
   473  Na    c    11.019917   -6.614014    0.000000    0.000000    1.000000
   474  Na    c    -6.614014   11.019917    0.000000    0.000000    1.000000
   475  Na    c    -6.614014   -6.614014    0.000000    0.000000    1.000000
   476  O     c     6.609746    6.609746   11.014783    0.000000    0.183000
   477  O     c     6.609746    6.609746  -11.014783    0.000000    0.183000
   478  O     c     6.609746   -2.203844   11.014783    0.000000    0.183000
   479  O     c     6.609746   -2.203844  -11.014783    0.000000    0.183000
   480  O     c    -2.203844    6.609746   11.014783    0.000000    0.183000
   481  O     c    -2.203844    6.609746  -11.014783    0.000000    0.183000
   482  O     c    -2.203844   -2.203844   11.014783    0.000000    0.183000
   483  O     c    -2.203844   -2.203844  -11.014783    0.000000    0.183000
   484  O     c    11.012993   11.012993   -2.202049    0.000000    0.183000
   485  O     c    11.012993   11.012993    2.202049    0.000000    0.183000
   486  O     c    11.012993   -6.607091   -2.202049    0.000000    0.183000
   487  O     c    11.012993   -6.607091    2.202049    0.000000    0.183000
   488  O     c    -6.607091   11.012993   -2.202049    0.000000    0.183000
   489  O     c    -6.607091   11.012993    2.202049    0.000000    0.183000
   490  O     c    -6.607091   -6.607091   -2.202049    0.000000    0.183000
   491  O     c    -6.607091   -6.607091    2.202049    0.000000    0.183000
   492  Cl    c     8.804440    8.804440    8.802393    0.000000    1.485000
   493  Cl    c     8.804440    8.804440   -8.802393    0.000000    1.485000
   494  Cl    c     8.804440   -4.398538    8.802393    0.000000    1.485000
   495  Cl    c     8.804440   -4.398538   -8.802393    0.000000    1.485000
   496  Cl    c    -4.398538    8.804440    8.802393    0.000000    1.485000
   497  Cl    c    -4.398538    8.804440   -8.802393    0.000000    1.485000
   498  Cl    c    -4.398538   -4.398538    8.802393    0.000000    1.485000
   499  Cl    c    -4.398538   -4.398538   -8.802393    0.000000    1.485000
[...]
     22 y          2.202951      2.202951     0.000000    Cartesian    0.00
     22 z          8.811805      8.810458    -0.001347    Cartesian   -0.02
     23 x          2.202951      2.202951     0.000000    Cartesian    0.00
     23 y         11.014756     11.105310     0.090554    Cartesian    0.82
     23 z          0.000000      0.000000     0.000000    Cartesian    0.00
     24 x          6.608853      6.604702    -0.004151    Cartesian   -0.06
     24 y          6.608853      6.604702    -0.004151    Cartesian   -0.06
     24 z          6.608853      6.605110    -0.003744    Cartesian   -0.06
     25 x          2.202951      2.202951     0.000000    Cartesian    0.00
     25 y         11.014756     11.023883     0.009127    Cartesian    0.08
     25 z         -2.202951     -2.201199     0.001752    Cartesian   -0.08
     26 x          4.405902      4.405717    -0.000185    Cartesian   -0.00
     26 y          4.405902      4.405717    -0.000185    Cartesian   -0.00
     26 z          8.811805      8.792470    -0.019335    Cartesian   -0.22
     27 x          8.811805      8.798604    -0.013200    Cartesian   -0.15
     27 y          8.811805      8.798604    -0.013200    Cartesian   -0.15
     27 z          0.000000      0.000000     0.000000    Cartesian    0.00
     28 x          8.811805      8.826175     0.014370    Cartesian    0.16
     28 y          2.202951      2.202951     0.000000    Cartesian    0.00
     28 z          6.608853      6.686723     0.077870    Cartesian    1.18
     29 x          4.405902      4.407044     0.001141    Cartesian    0.03
     29 y         11.014756     11.031393     0.016637    Cartesian    0.15
     29 z         -2.202951     -2.210114    -0.007163    Cartesian    0.33
     30 x          2.202951      2.202951     0.000000    Cartesian    0.00
     30 y          6.608853      6.591757    -0.017097    Cartesian   -0.26
     30 z          8.811805      8.822315     0.010510    Cartesian    0.12
     31 x          2.202951      2.202951     0.000000    Cartesian    0.00
     31 y         11.014756     10.985759    -0.028997    Cartesian   -0.26
     31 z          4.405902      4.409690     0.003787    Cartesian    0.09
     32 x          6.608853      6.610117     0.001264    Cartesian    0.02
     32 y         11.014756     11.019041     0.004286    Cartesian    0.04
     32 z          0.000000      0.000000     0.000000    Cartesian    0.00
     33 x          6.608853      6.607757    -0.001097    Cartesian   -0.02
     33 y         11.014756     11.015843     0.001087    Cartesian    0.01
     33 z         -2.202951     -2.203302    -0.000351    Cartesian    0.02
     34 x          8.811805      8.799951    -0.011853    Cartesian   -0.13
     34 y          8.811805      8.799951    -0.011853    Cartesian   -0.13
     34 z          4.405902      4.401224    -0.004678    Cartesian   -0.11
     35 x          8.811805      8.815579     0.003775    Cartesian    0.04
     35 y          6.608853      6.612960     0.004106    Cartesian    0.06
     35 z          6.608853      6.611162     0.002308    Cartesian    0.03
     36 x          6.608853      6.616650     0.007796    Cartesian    0.12
     36 y         11.014756     11.034459     0.019703    Cartesian    0.18
     36 z          4.405902      4.408350     0.002447    Cartesian    0.06
     37 x          6.608853      6.619110     0.010256    Cartesian    0.16
     37 y          6.608853      6.619110     0.010256    Cartesian    0.16
     37 z          8.811805      8.815477     0.003673    Cartesian    0.04
     38 x          2.202951      2.202951     0.000000    Cartesian    0.00
     38 y          2.202951      2.202951     0.000000    Cartesian    0.00
     38 z         11.014756     11.014990     0.000235    Cartesian    0.00
     39 x          2.202951      2.202951     0.000000    Cartesian    0.00
     39 y         11.014756     11.017886     0.003130    Cartesian    0.03
     39 z          6.608853      6.614353     0.005499    Cartesian    0.08
     40 x          4.405902      4.402772    -0.003131    Cartesian   -0.07
     40 y          8.811805      8.805811    -0.005993    Cartesian   -0.07
     40 z          8.811805      8.804100    -0.007705    Cartesian   -0.09
     41 x          4.405902      4.405413    -0.000489    Cartesian   -0.01
     41 y         13.217707     13.210761    -0.006946    Cartesian   -0.05
     41 z          0.000000      0.000000     0.000000    Cartesian    0.00
     42 x          4.405902      4.404994    -0.000908    Cartesian   -0.02
     42 y          2.202951      2.202951     0.000000    Cartesian    0.00
     42 z         11.014756     11.033858     0.019102    Cartesian    0.17
     43 x          4.405902      4.407793     0.001891    Cartesian    0.04
     43 y         11.014756     11.028297     0.013542    Cartesian    0.12
     43 z          6.608853      6.610528     0.001674    Cartesian    0.03
     44 x         13.217707     13.227152     0.009445    Cartesian    0.07
     44 y          2.202951      2.202951     0.000000    Cartesian    0.00
     44 z         -2.202951     -2.247919    -0.044968    Cartesian    2.04
     45 x          8.811805      8.812976     0.001172    Cartesian    0.01
     45 y         11.014756     11.024398     0.009642    Cartesian    0.09
     45 z         -2.202951     -2.204632    -0.001680    Cartesian    0.08
     46 x          2.202951      2.202951     0.000000    Cartesian    0.00
     46 y          6.608853      6.608077    -0.000776    Cartesian   -0.01
     46 z         11.014756     11.016472     0.001717    Cartesian    0.02
     47 x          6.608853      6.609291     0.000437    Cartesian    0.01
     47 y         11.014756     11.016769     0.002013    Cartesian    0.02
     47 z          6.608853      6.610203     0.001350    Cartesian    0.02
     48 x          4.405902      4.404338    -0.001564    Cartesian   -0.04
     48 y         13.217707     13.208196    -0.009511    Cartesian   -0.07
     48 z          4.405902      4.404978    -0.000924    Cartesian   -0.02
     49 x          4.405902      4.406976     0.001074    Cartesian    0.02
     49 y          6.608853      6.611522     0.002669    Cartesian    0.04
     49 z         11.014756     11.022668     0.007912    Cartesian    0.07
     50 x         13.217707     13.221743     0.004036    Cartesian    0.03
     50 y          6.608853      6.609641     0.000788    Cartesian    0.01
     50 z         -2.202951     -2.196722     0.006230    Cartesian   -0.28
     51 x          2.202951      2.202951     0.000000    Cartesian    0.00
     51 y         11.014756     11.051075     0.036320    Cartesian    0.33
     51 z          8.811805      8.817611     0.005806    Cartesian    0.07
     52 x         11.014756     11.019917     0.005161    Cartesian    0.05
     52 y         11.014756     11.019917     0.005161    Cartesian    0.05
     52 z          0.000000      0.000000     0.000000    Cartesian    0.00
     53 x          6.608853      6.609746     0.000893    Cartesian    0.01
     53 y          6.608853      6.609746     0.000893    Cartesian    0.01
     53 z         11.014756     11.014783     0.000027    Cartesian    0.00
     54 x         11.014756     11.012993    -0.001763    Cartesian   -0.02
     54 y         11.014756     11.012993    -0.001763    Cartesian   -0.02
     54 z         -2.202951     -2.202049     0.000902    Cartesian   -0.04
     55 x          8.811805      8.804440    -0.007365    Cartesian   -0.08
     55 y          8.811805      8.804440    -0.007365    Cartesian   -0.08
     55 z          8.811805      8.802393    -0.009411    Cartesian   -0.11
     56 x          8.811805      8.806770    -0.005035    Cartesian   -0.06
     56 y         13.217707     13.208426    -0.009281    Cartesian   -0.07
     56 z          0.000000      0.000000     0.000000    Cartesian    0.00
     57 x          8.811805      8.814091     0.002287    Cartesian    0.03
     57 y          2.202951      2.202951     0.000000    Cartesian    0.00
     57 z         11.014756     11.015404     0.000649    Cartesian    0.01
     58 x         13.217707     13.222811     0.005104    Cartesian    0.04
     58 y          2.202951      2.202951     0.000000    Cartesian    0.00
     58 z          6.608853      6.593228    -0.015625    Cartesian   -0.24
     59 x          8.811805      8.813800     0.001995    Cartesian    0.02
     59 y         11.014756     11.020864     0.006109    Cartesian    0.06
     59 z          6.608853      6.612645     0.003792    Cartesian    0.06
     60 x          2.202951      2.202951     0.000000    Cartesian    0.00
     60 y          2.202951      2.202951     0.000000    Cartesian    0.00
     60 z         13.217707     13.222073     0.004366    Cartesian    0.03
     61 x          2.202951      2.202951     0.000000    Cartesian    0.00
     61 y         15.420658     15.410935    -0.009723    Cartesian   -0.06
     61 z          0.000000      0.000000     0.000000    Cartesian    0.00
     62 x          6.608853      6.612701     0.003848    Cartesian    0.06
     62 y         11.014756     11.019549     0.004793    Cartesian    0.04
     62 z          8.811805      8.814853     0.003048    Cartesian    0.03
     63 x         11.014756     11.021812     0.007056    Cartesian    0.06
     63 y         11.014756     11.021812     0.007056    Cartesian    0.06
     63 z          4.405902      4.406517     0.000615    Cartesian    0.01
     64 x          2.202951      2.202951     0.000000    Cartesian    0.00
     64 y         15.420658     15.421847     0.001189    Cartesian    0.01
     64 z         -2.202951     -2.207173    -0.004222    Cartesian    0.19
     65 x          8.811805      8.806203    -0.005601    Cartesian   -0.06
     65 y         13.217707     13.203940    -0.013766    Cartesian   -0.10
     65 z          4.405902      4.401564    -0.004338    Cartesian   -0.10
     66 x          4.405902      4.406766     0.000864    Cartesian    0.02
     66 y         15.420658     15.432212     0.011554    Cartesian    0.07
     66 z         -2.202951     -2.201760     0.001191    Cartesian   -0.05
     67 x          4.405902      4.403645    -0.002257    Cartesian   -0.05
     67 y          4.405902      4.403645    -0.002257    Cartesian   -0.05
     67 z         13.217707     13.202205    -0.015502    Cartesian   -0.12
     68 x          8.811805      8.814481     0.002676    Cartesian    0.03
     68 y          6.608853      6.612894     0.004041    Cartesian    0.06
     68 z         11.014756     11.027933     0.013177    Cartesian    0.12
     69 x         13.217707     13.222347     0.004640    Cartesian    0.04
     69 y          6.608853      6.613887     0.005033    Cartesian    0.08
     69 z          6.608853      6.619833     0.010980    Cartesian    0.17
     70 x          2.202951      2.202951     0.000000    Cartesian    0.00
     70 y          6.608853      6.619166     0.010312    Cartesian    0.16
     70 z         13.217707     13.222102     0.004395    Cartesian    0.03
     71 x          2.202951      2.202951     0.000000    Cartesian    0.00
     71 y         15.420658     15.448894     0.028236    Cartesian    0.18
     71 z          4.405902      4.409651     0.003749    Cartesian    0.09
     72 x          6.608853      6.614802     0.005949    Cartesian    0.09
     72 y         15.420658     15.436522     0.015864    Cartesian    0.10
     72 z          0.000000      0.000000     0.000000    Cartesian    0.00
     73 x          2.202951      2.202951     0.000000    Cartesian    0.00
     73 y          2.202951      2.202951     0.000000    Cartesian    0.00
     73 z          0.000000      0.000000     0.000000    Cartesian    0.00
     74 x          2.202951      2.202951     0.000000    Cartesian    0.00
     74 y          2.202951      2.202951     0.000000    Cartesian    0.00
     74 z         -2.202951     -2.094677     0.108275    Cartesian   -4.91
     75 x          4.405902      4.356239    -0.049663    Cartesian   -1.13
     75 y          4.405902      4.356239    -0.049663    Cartesian   -1.13
     75 z          0.000000      0.000000     0.000000    Cartesian    0.00
     76 x          2.202951      2.202951     0.000000    Cartesian    0.00
     76 y          6.608853      6.630627     0.021774    Cartesian    0.33
     76 z         -2.202951     -2.211379    -0.008428    Cartesian    0.38
     77 x          4.405902      4.338584    -0.067319    Cartesian   -1.53
     77 y          4.405902      4.338584    -0.067319    Cartesian   -1.53
     77 z          4.405902      4.350081    -0.055821    Cartesian   -1.27
     78 x          2.202951      2.202951     0.000000    Cartesian    0.00
     78 y          2.202951      2.202951     0.000000    Cartesian    0.00
     78 z          6.608853      6.600825    -0.008029    Cartesian   -0.12
     79 x          6.608853      6.609117     0.000264    Cartesian    0.00
     79 y          6.608853      6.609117     0.000264    Cartesian    0.00
     79 z         -2.202951     -2.203266    -0.000314    Cartesian    0.01
     80 x          4.405902      4.401118    -0.004784    Cartesian   -0.11
     80 y          8.811805      8.786070    -0.025735    Cartesian   -0.29
     80 z          0.000000      0.000000     0.000000    Cartesian    0.00
     81 x          2.202951      2.202951     0.000000    Cartesian    0.00
     81 y          6.608853      6.620696     0.011843    Cartesian    0.18
     81 z          6.608853      6.615518     0.006665    Cartesian    0.10
     82 x          4.405902      4.402122    -0.003780    Cartesian   -0.09
     82 y          8.811805      8.795969    -0.015835    Cartesian   -0.18
     82 z          4.405902      4.401185    -0.004717    Cartesian   -0.11
     83 x          6.608853      6.604699    -0.004155    Cartesian   -0.06
     83 y          6.608853      6.604699    -0.004155    Cartesian   -0.06
     83 z          6.608853      6.605107    -0.003747    Cartesian   -0.06
     84 x          2.202951      2.202951     0.000000    Cartesian    0.00
     84 y         11.014756     11.023879     0.009123    Cartesian    0.08
     84 z         -2.202951     -2.201191     0.001761    Cartesian   -0.08
     85 x          4.405902      4.405782    -0.000120    Cartesian   -0.00
     85 y          4.405902      4.405782    -0.000120    Cartesian   -0.00
     85 z          8.811805      8.789432    -0.022372    Cartesian   -0.25
     86 x          8.811805      8.795441    -0.016364    Cartesian   -0.19
     86 y          8.811805      8.795441    -0.016364    Cartesian   -0.19
     86 z          0.000000      0.000000     0.000000    Cartesian    0.00
     87 x          6.608853      6.607757    -0.001097    Cartesian   -0.02
     87 y         11.014756     11.015839     0.001083    Cartesian    0.01
     87 z         -2.202951     -2.203303    -0.000352    Cartesian    0.02
     88 x          8.811805      8.797353    -0.014452    Cartesian   -0.16
     88 y          8.811805      8.797353    -0.014452    Cartesian   -0.16
     88 z          4.405902      4.399928    -0.005975    Cartesian   -0.14
     89 x          2.202951      2.202951     0.000000    Cartesian    0.00
     89 y          2.202951      2.202951     0.000000    Cartesian    0.00
     89 z         11.014756     11.015001     0.000245    Cartesian    0.00
     90 x          2.202951      2.202951     0.000000    Cartesian    0.00
     90 y         11.014756     11.017876     0.003120    Cartesian    0.03
     90 z          6.608853      6.614363     0.005509    Cartesian    0.08
     91 x          4.405902      4.401398    -0.004505    Cartesian   -0.10
     91 y          8.811805      8.804019    -0.007785    Cartesian   -0.09
     91 z          8.811805      8.801241    -0.010563    Cartesian   -0.12
     92 x          4.405902      4.404802    -0.001100    Cartesian   -0.02
     92 y         13.217707     13.207856    -0.009851    Cartesian   -0.07
     92 z          0.000000      0.000000     0.000000    Cartesian    0.00
     93 x          2.202951      2.202951     0.000000    Cartesian    0.00
     93 y          6.608853      6.608074    -0.000779    Cartesian   -0.01
     93 z         11.014756     11.016464     0.001708    Cartesian    0.02
     94 x          6.608853      6.609291     0.000437    Cartesian    0.01
     94 y         11.014756     11.016771     0.002015    Cartesian    0.02
     94 z          6.608853      6.610202     0.001349    Cartesian    0.02
     95 x          4.405902      4.403897    -0.002005    Cartesian   -0.05
     95 y         13.217707     13.206364    -0.011343    Cartesian   -0.09
     95 z          4.405902      4.404317    -0.001585    Cartesian   -0.04
     96 x          6.608853      6.609746     0.000893    Cartesian    0.01
     96 y          6.608853      6.609746     0.000893    Cartesian    0.01
     96 z         11.014756     11.014786     0.000030    Cartesian    0.00
     97 x         11.014756     11.012993    -0.001763    Cartesian   -0.02
     97 y         11.014756     11.012993    -0.001763    Cartesian   -0.02
     97 z         -2.202951     -2.202047     0.000904    Cartesian   -0.04
     98 x          8.811805      8.803389    -0.008416    Cartesian   -0.10
     98 y          8.811805      8.803389    -0.008416    Cartesian   -0.10
     98 z          8.811805      8.801046    -0.010758    Cartesian   -0.12
     99 x          8.811805      8.806093    -0.005712    Cartesian   -0.06
     99 y         13.217707     13.207026    -0.010681    Cartesian   -0.08
     99 z          0.000000      0.000000     0.000000    Cartesian    0.00
    100 x          2.202951      2.202951     0.000000    Cartesian    0.00
    100 y         15.420658     15.421846     0.001188    Cartesian    0.01
    100 z         -2.202951     -2.207183    -0.004232    Cartesian    0.19
    101 x          8.811805      8.805348    -0.006456    Cartesian   -0.07
    101 y         13.217707     13.201836    -0.015870    Cartesian   -0.12
    101 z          4.405902      4.400956    -0.004946    Cartesian   -0.11
    102 x          4.405902      4.403170    -0.002732    Cartesian   -0.06
    102 y          4.405902      4.403170    -0.002732    Cartesian   -0.06
    102 z         13.217707     13.199837    -0.017869    Cartesian   -0.14
--------------------------------------------------------------------------------


  Time to end of optimisation  =       23.6952 seconds


  Peak dynamic memory used =     149.48 MB 


  Timing analysis for GULP :

--------------------------------------------------------------------------------
  Task / Subroutine                                          Time (Seconds)
--------------------------------------------------------------------------------
  Calculation of reciprocal space energy and derivatives          0.0004
  Calculation of reciprocal space energy using symmetry           0.0006
  Calculation of real space energy and derivatives                0.0021
  Calculation of real space energy using symmetry                 0.0066
  Calculation for region 1 energy and derivatives (2-b)          12.0346
  Calculation for region 2a energy                               11.1537
  Calculation for region 2b energy                                0.0003
  Calculation and manipulation of Hessian matrix                  0.2832
  Calculation of matrix inversion                                 0.0119
  Symmetry generation of equivalent positions                     0.0026
--------------------------------------------------------------------------------
  Total CPU time                                                 23.6953
--------------------------------------------------------------------------------


  Dump file written as Na3OCl.grs


  Job Finished at 13:17.41  2nd February   2021                               

