********************************************************************************
*                       GENERAL UTILITY LATTICE PROGRAM                        *
*                                 Julian Gale                                  *
*                       Curtin Institute for Computation                       *
*                    School of Molecular and Life Sciences                     *
*                    Curtin University, Western Australia                      *
********************************************************************************
* Version = 5.2.0 * Last modified =  10th September 2020                       *
********************************************************************************
*  optimise     - perform optimisation run                                     *
*  conp         - constant pressure calculation                                *
*  property     - calculate properties for final geometry                      *
*  defect       - perform defect calculation after bulk run                    *
*  compare      - compare initial and final structures                         *
********************************************************************************

  Job Started  at 13:17.28  2nd February   2021                               

  Number of CPUs =     1


  Total number of configurations input =      1

********************************************************************************
*  Input for Configuration =   1                                               *
********************************************************************************

  Formula = ClONa3                                                      

  Number of irreducible atoms/shells =       5


  Total number atoms/shells =       7

  Dimensionality = 3               :  Bulk   


  Symmetry :

  Crystal family                   :  Cubic       
  Crystal class  (Groth - 1921)    :  Cubic Hexakisoctahedral              

  Space group (centrosymmetric)    :  P M 3 M         

  Patterson group                  :  P m -3 m 

  Cartesian lattice vectors (Angstroms) :

        4.504000    0.000000    0.000000
        0.000000    4.504000    0.000000
        0.000000    0.000000    4.504000

  Cell parameters (Angstroms/Degrees):

  a =       4.5040    alpha =  90.0000
  b =       4.5040    beta  =  90.0000
  c =       4.5040    gamma =  90.0000

  Initial cell volume =          91.368216 Angs**3

  Temperature of configuration =   0.00     K 

  Pressure of configuration =         0.000 GPa 

  Fractional coordinates of asymmetric unit :

--------------------------------------------------------------------------------
   No.  Atomic       x           y          z         Charge      Occupancy
        Label      (Frac)      (Frac)     (Frac)        (e)         (Frac)  
--------------------------------------------------------------------------------
      1 Cl    c    0.000000    0.000000    0.000000     1.48500    1.000000    
      2 O     c    0.500000    0.500000    0.500000     0.18300    1.000000    
      3 Na    c    0.500000    0.500000    0.000000     1.00000    1.000000    
      4 Cl    s    0.000000    0.000000    0.000000    -2.48500    1.000000    
      5 O     s    0.500000    0.500000    0.500000    -2.18300    1.000000    
--------------------------------------------------------------------------------


  Constraints : 

--------------------------------------------------------------------------------
  Constraint no.      Unconstrained     Constrained    Coefficient    Offset
                         Variable         Variable
--------------------------------------------------------------------------------
           1              Strain 1        Strain 2       1.00000      0.0000
           2              Strain 1        Strain 3       1.00000      0.0000
--------------------------------------------------------------------------------


********************************************************************************
*  General input information                                                   *
********************************************************************************

  Species output for all configurations : 

--------------------------------------------------------------------------------
  Species    Type    Atomic    Atomic    Charge       Radii (Angs)     Library
                     Number     Mass       (e)     Cova   Ionic  VDW   Symbol
--------------------------------------------------------------------------------
    Na       Core       11      22.99   1.000000   0.970  0.000  2.300          
    O        Core        8      16.00   0.183000   0.730  0.000  1.360          
    O        Shell       8       0.00  -2.183000   0.730  0.000  1.360          
    Cl       Core       17      35.45   1.485000   0.990  0.000  1.650          
    Cl       Shell      17       0.00  -2.485000   0.990  0.000  1.650          
    Mg       Core       12      24.31   0.415000   1.100  0.000  0.000          
    Mg       Shell      12       0.00   1.585000   1.100  0.000  0.000          
    Ca       Core       20      40.08  -1.135000   0.990  0.000  0.000          
    Ca       Shell      20       0.00   3.135000   0.990  0.000  0.000          
    Sr       Core       38      87.62  -1.251000   1.120  0.000  0.000          
    Sr       Shell      38       0.00   3.251000   1.120  0.000  0.000          
    Ba       Core       56     137.33  -7.203000   1.340  0.000  0.000          
    Ba       Shell      56       0.00   9.203000   1.340  0.000  0.000          
--------------------------------------------------------------------------------


  Lattice summation method               =    Ewald          (3-D)
                                         =    Parry          (2-D)
                                         =    Saunders et al (1-D)
  Accuracy factor for lattice sums       =   12.000


  Analytic derivatives to be used

  Time limit = Infinity

  Maximum range for interatomic potentials =    100000.000000 Angstroms

  General interatomic potentials :

--------------------------------------------------------------------------------
Atom  Types   Potential      Parameter       Value         Units   Cutoffs(Ang)
  1     2                                                            Min /  Max 
--------------------------------------------------------------------------------
O    c O    s Spring (c-s)  Spring k 2       593.71600    eV*Ang^-2 0.000  0.800
                            Spring k 4       0.0000000    eV*Ang^-4 
--------------------------------------------------------------------------------
Cl   c Cl   s Spring (c-s)  Spring k 2       29.380000    eV*Ang^-2 0.000  0.800
                            Spring k 4       0.0000000    eV*Ang^-4 
--------------------------------------------------------------------------------
Mg   c Mg   s Spring (c-s)  Spring k 2       361.60000    eV*Ang^-2 0.000  0.800
                            Spring k 4       0.0000000    eV*Ang^-4 
--------------------------------------------------------------------------------
Ca   c Ca   s Spring (c-s)  Spring k 2       110.20000    eV*Ang^-2 0.000  0.800
                            Spring k 4       0.0000000    eV*Ang^-4 
--------------------------------------------------------------------------------
Sr   c Sr   s Spring (c-s)  Spring k 2       71.700000    eV*Ang^-2 0.000  0.800
                            Spring k 4       0.0000000    eV*Ang^-4 
--------------------------------------------------------------------------------
Ba   c Ba   s Spring (c-s)  Spring k 2       495.20000    eV*Ang^-2 0.000  0.800
                            Spring k 4       0.0000000    eV*Ang^-4 
--------------------------------------------------------------------------------
Na   c Na   c Buckingham    Buckingham A     1788.1900    eV        0.000 12.000
                            Buckingham rho  0.15900000    Ang       
                            Buckingham C     0.0000000    eV*Ang^6  
--------------------------------------------------------------------------------
Na   c O    s Buckingham    Buckingham A     588.38000    eV        0.000 12.000
                            Buckingham rho  0.33800000    Ang       
                            Buckingham C     0.0000000    eV*Ang^6  
--------------------------------------------------------------------------------
Na   c Cl   s Buckingham    Buckingham A     1170.4100    eV        0.000 12.000
                            Buckingham rho  0.31500000    Ang       
                            Buckingham C     0.0000000    eV*Ang^6  
--------------------------------------------------------------------------------
O    s O    s Buckingham    Buckingham A     22764.300    eV        0.000 12.000
                            Buckingham rho  0.14900000    Ang       
                            Buckingham C     13.190000    eV*Ang^6  
--------------------------------------------------------------------------------
O    s Cl   s Buckingham    Buckingham A     8286.9100    eV        0.000 12.000
                            Buckingham rho  0.25900000    Ang       
                            Buckingham C     62.200000    eV*Ang^6  
--------------------------------------------------------------------------------
Cl   s Cl   s Buckingham    Buckingham A     1227.2000    eV        0.000 12.000
                            Buckingham rho  0.32100000    Ang       
                            Buckingham C     14.530000    eV*Ang^6  
--------------------------------------------------------------------------------
O    s Mg   s Buckingham    Buckingham A     1428.5000    eV        0.000 12.000
                            Buckingham rho  0.29450000    Ang       
                            Buckingham C     0.0000000    eV*Ang^6  
--------------------------------------------------------------------------------
Mg   s Cl   s Buckingham    Buckingham A     4914.5400    eV        0.000 12.000
                            Buckingham rho  0.25700000    Ang       
                            Buckingham C     0.0000000    eV*Ang^6  
--------------------------------------------------------------------------------
O    s Ca   s Buckingham    Buckingham A     1090.4000    eV        0.000 12.000
                            Buckingham rho  0.34370000    Ang       
                            Buckingham C     0.0000000    eV*Ang^6  
--------------------------------------------------------------------------------
Cl   s Ca   s Buckingham    Buckingham A     2302.0000    eV        0.000 12.000
                            Buckingham rho  0.34020000    Ang       
                            Buckingham C     0.0000000    eV*Ang^6  
--------------------------------------------------------------------------------
O    s Sr   s Buckingham    Buckingham A     959.10000    eV        0.000 12.000
                            Buckingham rho  0.37210000    Ang       
                            Buckingham C     0.0000000    eV*Ang^6  
--------------------------------------------------------------------------------
Cl   s Sr   s Buckingham    Buckingham A     2191.0900    eV        0.000 12.000
                            Buckingham rho  0.34570000    Ang       
                            Buckingham C     0.0000000    eV*Ang^6  
--------------------------------------------------------------------------------
O    s Ba   s Buckingham    Buckingham A     905.70000    eV        0.000 12.000
                            Buckingham rho  0.39760000    Ang       
                            Buckingham C     0.0000000    eV*Ang^6  
--------------------------------------------------------------------------------
Cl   s Ba   s Buckingham    Buckingham A     2704.5500    eV        0.000 12.000
                            Buckingham rho  0.35280000    Ang       
                            Buckingham C     0.0000000    eV*Ang^6  
--------------------------------------------------------------------------------

********************************************************************************
*  Output for configuration   1                                                *
********************************************************************************


  Components of energy : 

--------------------------------------------------------------------------------
  Interatomic potentials     =           4.94315381 eV    
  Monopole - monopole (real) =         -10.03624526 eV    
  Monopole - monopole (recip)=         -29.53581274 eV    
  Monopole - monopole (total)=         -39.57205800 eV    
--------------------------------------------------------------------------------
  Total lattice energy       =         -34.62890419 eV    
--------------------------------------------------------------------------------
  Total lattice energy       =           -3341.1599 kJ/(mole unit cells)
--------------------------------------------------------------------------------


  Number of variables =        1

  Maximum number of calculations  =          1000
  Maximum Hessian update interval =            10
  Maximum step size               =   1.000000000
  Maximum parameter tolerance     =   0.000010000
  Maximum function  tolerance     =   0.000010000
  Maximum gradient  tolerance     =   0.001000000
  Maximum gradient  component     =   0.010000000

  Symmetry constrained optimisation

  Symmetry used for second derivatives

  Cell parameters to be optimised using strains

  Newton-Raphson optimiser to be used

  BFGS hessian update to be used

  Lower half triangular hessian to be used

  Start of bulk optimisation :

  Cycle:      0 Energy:       -34.628904  Gnorm:      4.328237  CPU:    0.018
  ** Hessian calculated **
  Cycle:      1 Energy:       -34.677667  Gnorm:      0.044008  CPU:    0.023
  Cycle:      2 Energy:       -34.677671  Gnorm:      0.003653  CPU:    0.027


  **** Optimisation achieved ****


  Final energy =     -34.67767136 eV
  Final Gnorm  =       0.00000010

  Components of energy : 

--------------------------------------------------------------------------------
  Interatomic potentials     =           5.77546103 eV    
  Monopole - monopole (real) =         -10.25970290 eV    
  Monopole - monopole (recip)=         -30.19342950 eV    
  Monopole - monopole (total)=         -40.45313239 eV    
--------------------------------------------------------------------------------
  Total lattice energy       =         -34.67767136 eV    
--------------------------------------------------------------------------------
  Total lattice energy       =           -3345.8652 kJ/(mole unit cells)
--------------------------------------------------------------------------------

  Final asymmetric unit coordinates :

--------------------------------------------------------------------------------
   No.  Atomic        x           y           z         Radius
        Label       (Frac)      (Frac)      (Frac)       (Angs) 
--------------------------------------------------------------------------------
     1  Cl    c     0.000000    0.000000    0.000000    0.000000
     2  O     c     0.500000    0.500000    0.500000    0.000000
     3  Na    c     0.500000    0.500000    0.000000    0.000000
     4  Cl    s     0.000000    0.000000    0.000000    0.000000
     5  O     s     0.500000    0.500000    0.500000    0.000000
--------------------------------------------------------------------------------

  Final Cartesian lattice vectors (Angstroms) :

        4.405902    0.000000    0.000000
        0.000000    4.405902    0.000000
        0.000000    0.000000    4.405902


  Final cell parameters and derivatives :

--------------------------------------------------------------------------------
       a            4.405902 Angstrom     dE/de1(xx)     0.000000 eV/strain
       b            4.405902 Angstrom     dE/de2(yy)     0.000000 eV/strain
       c            4.405902 Angstrom     dE/de3(zz)     0.000000 eV/strain
       alpha       90.000000 Degrees      dE/de4(yz)     0.000000 eV/strain
       beta        90.000000 Degrees      dE/de5(xz)     0.000000 eV/strain
       gamma       90.000000 Degrees      dE/de6(xy)     0.000000 eV/strain
--------------------------------------------------------------------------------

  Primitive cell volume =            85.527266 Angs**3

  Density of cell =      2.338030 g/cm**3

  Non-primitive cell volume =            85.527266 Angs**3


  Final internal derivatives :

--------------------------------------------------------------------------------
   No.  Atomic          a             b             c           Radius
        Label          (eV)          (eV)          (eV)        (eV/Angs)
--------------------------------------------------------------------------------
      1 Cl    c       0.000000      0.000000      0.000000      0.000000
      2 O     c       0.000000      0.000000      0.000000      0.000000
      3 Na    c       0.000000      0.000000      0.000000      0.000000
      4 Cl    s       0.000000      0.000000      0.000000      0.000000
      5 O     s       0.000000      0.000000      0.000000      0.000000
--------------------------------------------------------------------------------
  Maximum abs         0.000000      0.000000      0.000000      0.000000
--------------------------------------------------------------------------------

  Comparison of initial and final structures : 

--------------------------------------------------------------------------------
  Parameter   Initial value   Final value   Difference    Units      Percent
--------------------------------------------------------------------------------
    Volume        91.368216     85.527266    -5.840950    Angs**3     -6.39
    a              4.504000      4.405902    -0.098098    Angstroms   -2.18
    b              4.504000      4.405902    -0.098098    Angstroms   -2.18
    c              4.504000      4.405902    -0.098098    Angstroms   -2.18
    alpha         90.000000     90.000000     0.000000    Degrees      0.00
    beta          90.000000     90.000000     0.000000    Degrees      0.00
    gamma         90.000000     90.000000     0.000000    Degrees      0.00
      1 x          0.000000      0.000000     0.000000    Fractional   0.00
      1 y          0.000000      0.000000     0.000000    Fractional   0.00
      1 z          0.000000      0.000000     0.000000    Fractional   0.00
      2 x          0.500000      0.500000     0.000000    Fractional   0.00
      2 y          0.500000      0.500000     0.000000    Fractional   0.00
      2 z          0.500000      0.500000     0.000000    Fractional   0.00
      3 x          0.500000      0.500000     0.000000    Fractional   0.00
      3 y          0.500000      0.500000     0.000000    Fractional   0.00
      3 z          0.000000      0.000000     0.000000    Fractional   0.00
      4 x          0.000000      0.000000     0.000000    Fractional   0.00
      4 y          0.000000      0.000000     0.000000    Fractional   0.00
      4 z          0.000000      0.000000     0.000000    Fractional   0.00
      5 x          0.500000      0.500000     0.000000    Fractional   0.00
      5 y          0.500000      0.500000     0.000000    Fractional   0.00
      5 z          0.500000      0.500000     0.000000    Fractional   0.00
--------------------------------------------------------------------------------


  Born effective charge tensors : 

-------------------------------------------------------------------------------
  Atom             x           y             z
-------------------------------------------------------------------------------
    1 Cl    x      -0.9918     -0.0000     -0.0000
            y      -0.0000     -0.9918     -0.0000
            z      -0.0000     -0.0000     -0.9918
-------------------------------------------------------------------------------
    2 O     x      -2.2939      0.0000      0.0000
            y       0.0000     -2.2939      0.0000
            z       0.0000      0.0000     -2.2939
-------------------------------------------------------------------------------
    3 Na    x       1.2243      0.0000      0.0000
            y       0.0000      1.2243     -0.0000
            z       0.0000      0.0000      0.8372
-------------------------------------------------------------------------------




  Elastic Constant Matrix: (Units=GPa)

-------------------------------------------------------------------------------
  Indices      1         2         3         4         5         6    
-------------------------------------------------------------------------------
       1     82.7680   24.3534   24.3534   -0.0000    0.0000   -0.0000
       2     24.3534   82.7680   24.3534    0.0000   -0.0000   -0.0000
       3     24.3534   24.3534   82.7680    0.0000   -0.0000    0.0000
       4     -0.0000    0.0000    0.0000   24.3534   -0.0000    0.0000
       5      0.0000   -0.0000   -0.0000   -0.0000   24.3534    0.0000
       6     -0.0000   -0.0000    0.0000    0.0000    0.0000   24.3534
-------------------------------------------------------------------------------


  Elastic Compliance Matrix: (Units=1/GPa)

-------------------------------------------------------------------------------
  Indices      1         2         3         4         5         6    
-------------------------------------------------------------------------------
       1    0.013948 -0.003171 -0.003171  0.000000 -0.000000  0.000000
       2   -0.003171  0.013948 -0.003171 -0.000000  0.000000 -0.000000
       3   -0.003171 -0.003171  0.013948 -0.000000  0.000000 -0.000000
       4    0.000000 -0.000000 -0.000000  0.041062  0.000000 -0.000000
       5   -0.000000  0.000000  0.000000  0.000000  0.041062 -0.000000
       6    0.000000 -0.000000 -0.000000 -0.000000 -0.000000  0.041062
-------------------------------------------------------------------------------

  Mechanical properties :

-------------------------------------------------------------------------------
  Convention :                    Reuss         Voigt         Hill
-------------------------------------------------------------------------------
  Bulk  Modulus (GPa)     =      43.82493      43.82493      43.82493
  Shear Modulus (GPa)     =      26.08758      26.29496      26.19127
-------------------------------------------------------------------------------
  Velocity S-wave (km/s)  =       3.34035       3.35360       3.34698
  Velocity P-wave (km/s)  =       5.79842       5.80861       5.80351
-------------------------------------------------------------------------------
  Compressibility (1/GPa) =    0.02281806
-------------------------------------------------------------------------------
  Stress axis :                     x             y             z
-------------------------------------------------------------------------------
  Youngs Moduli (GPa)     =      71.69479      71.69479      71.69479
-------------------------------------------------------------------------------
  Poissons Ratio (x)      =                     0.22734       0.22734
  Poissons Ratio (y)      =       0.22734                     0.22734
  Poissons Ratio (z)      =       0.22734       0.22734
-------------------------------------------------------------------------------


  Piezoelectric Strain Matrix: (Units=C/m**2)

-------------------------------------------------------------------------------
  Indices      1         2         3         4         5         6    
-------------------------------------------------------------------------------
       x    -0.00000  -0.00000  -0.00000  -0.00000   0.00000  -0.00000
       y     0.00000  -0.00000   0.00000   0.00000  -0.00000   0.00000
       z    -0.00000  -0.00000   0.00000  -0.00000   0.00000  -0.00000
-------------------------------------------------------------------------------


  Piezoelectric Stress Matrix: (Units=10**-11 C/N)

-------------------------------------------------------------------------------
  Indices      1         2         3         4         5         6    
-------------------------------------------------------------------------------
       x     0.00000  -0.00000  -0.00000  -0.00000   0.00000  -0.00000
       y     0.00000  -0.00000   0.00000   0.00000  -0.00000   0.00000
       z    -0.00000  -0.00000   0.00000  -0.00000   0.00000  -0.00000
-------------------------------------------------------------------------------


  Static dielectric constant tensor : 

-------------------------------------------------------------------------------
              x         y         z
-------------------------------------------------------------------------------
       x    11.08357   0.00000   0.00000
       y     0.00000  11.08357   0.00000
       z     0.00000   0.00000  11.08357
--------------------------------------------------------------------------------

  High frequency dielectric constant tensor : 

-------------------------------------------------------------------------------
              x         y         z
-------------------------------------------------------------------------------
       x     1.50771   0.00000   0.00000
       y     0.00000   1.50771   0.00000
       z     0.00000   0.00000   1.50771
-------------------------------------------------------------------------------

  Static refractive indices : 

-------------------------------------------------------------------------------
    1 =    3.32920      2 =    3.32920      3 =    3.32920
-------------------------------------------------------------------------------

  High frequency refractive indices : 

-------------------------------------------------------------------------------
    1 =    1.22789      2 =    1.22789      3 =    1.22789
-------------------------------------------------------------------------------


  Time to end of optimisation =       0.0382 seconds

********************************************************************************
*  Defect calculation for configuration   1 :                                  *
********************************************************************************

  Total number of defects =      1

  Total charge on defect  =   1.00

  Defect centre is at   0.5000   0.5000   0.0000  Frac

  Region 1 radius =  18.0000      Number of ions =   2034

  Number of symmetry inequivalent region 1 ions  =    196

  Region 2 radius =  24.0000      Number of ions =   2742

  Number of symmetry inequivalent region 2a ions =    219

  Region 2a mode = 4 : screened electrostatics due to region 1 
                       neglect correction to region 1 forces from 2a
                       region 2a displacements based on defects only

  Region 2a ions will only interact with defects in region 1

  Impurities:

--------------------------------------------------------------------------------
    Specification type     Symbol/Number         x          y          z
--------------------------------------------------------------------------------
    Frac/Symbol             Ca               0.500000   0.500000   0.000000
--------------------------------------------------------------------------------


  Symmetry reduced region 1 (Relative to defect centre) :

--------------------------------------------------------------------------------
   No.   Atomic       x            y             z       Radius  Multiplicity   
         Label      (Angs)       (Angs)        (Angs)    (Angs)     
--------------------------------------------------------------------------------
     1  Ca    c      0.0000       0.0000       0.0000    0.0000     1    Defect
     2  O     c      0.0000       0.0000      -2.2030 *  0.0000     2          
     3  Cl    c      2.2030 *     2.2030       0.0000    0.0000     4          
     4  Na    c      2.2030 *     0.0000      -2.2030 *  0.0000     8          
     5  Na    c      0.0000       0.0000       4.4059 *  0.0000     2          
     6  Na    c      0.0000       4.4059 *     0.0000    0.0000     4          
     7  O     c      0.0000       4.4059 *    -2.2030 *  0.0000     8          
     8  Na    c      2.2030 *     4.4059 *    -2.2030 *  0.0000    16          
     9  Cl    c      2.2030 *     2.2030       4.4059 *  0.0000     8          
    10  Na    c      0.0000       4.4059 *     4.4059 *  0.0000     8          
    11  Na    c      4.4059 *     4.4059       0.0000    0.0000     4          
    12  O     c      0.0000       0.0000       6.6089 *  0.0000     2          
    13  O     c      4.4059 *     4.4059      -2.2030 *  0.0000     8          
    14  Cl    c      2.2030 *     6.6089 *     0.0000    0.0000     8          
    15  Na    c      2.2030 *     0.0000       6.6089 *  0.0000     8          
    16  Na    c      6.6089 *     0.0000      -2.2030 *  0.0000     8          
    17  Na    c      4.4059 *     4.4059       4.4059 *  0.0000     8          
    18  O     c      0.0000       4.4059 *     6.6089 *  0.0000     8          
    19  Cl    c      2.2030 *     6.6089 *     4.4059 *  0.0000    16          
    20  Na    c      2.2030 *     4.4059 *     6.6089 *  0.0000    16          
    21  Na    c      6.6089 *     4.4059 *    -2.2030 *  0.0000    16          
    22  Na    c      0.0000       0.0000       8.8118 *  0.0000     2          
    23  Na    c      0.0000       8.8118 *     0.0000    0.0000     4          
    24  O     c      4.4059 *     4.4059       6.6089 *  0.0000     8          
    25  O     c      0.0000       8.8118 *    -2.2030 *  0.0000     8          
    26  Cl    c      2.2030 *     2.2030       8.8118 *  0.0000     8          
    27  Cl    c      6.6089 *     6.6089       0.0000    0.0000     4          
    28  Na    c      6.6089 *     0.0000       6.6089 *  0.0000     8          
    29  Na    c      2.2030 *     8.8118 *    -2.2030 *  0.0000    16          
    30  Na    c      0.0000       4.4059 *     8.8118 *  0.0000     8          
    31  Na    c      0.0000       8.8118 *     4.4059 *  0.0000     8          
    32  Na    c      4.4059 *     8.8118 *     0.0000    0.0000     8          
    33  O     c      4.4059 *     8.8118 *    -2.2030 *  0.0000    16          
    34  Cl    c      6.6089 *     6.6089       4.4059 *  0.0000     8          
    35  Na    c      6.6089 *     4.4059 *     6.6089 *  0.0000    16          
    36  Na    c      4.4059 *     8.8118 *     4.4059 *  0.0000    16          
    37  Na    c      4.4059 *     4.4059       8.8118 *  0.0000     8          
    38  O     c      0.0000       0.0000      11.0148 *  0.0000     2          
    39  O     c      0.0000       8.8118 *     6.6089 *  0.0000     8          
    40  Cl    c      2.2030 *     6.6089 *     8.8118 *  0.0000    16          
    41  Cl    c      2.2030 *    11.0148 *     0.0000    0.0000     8          
    42  Na    c      2.2030 *     0.0000      11.0148 *  0.0000     8          
    43  Na    c      2.2030 *     8.8118 *     6.6089 *  0.0000    16          
    44  Na    c     11.0148 *     0.0000      -2.2030 *  0.0000     8          
    45  Na    c      6.6089 *     8.8118 *    -2.2030 *  0.0000    16          
    46  O     c      0.0000       4.4059 *    11.0148 *  0.0000     8          
    47  O     c      4.4059 *     8.8118 *     6.6089 *  0.0000    16          
    48  Cl    c      2.2030 *    11.0148 *     4.4059 *  0.0000    16          
    49  Na    c      2.2030 *     4.4059 *    11.0148 *  0.0000    16          
    50  Na    c     11.0148 *     4.4059 *    -2.2030 *  0.0000    16          
    51  Na    c      0.0000       8.8118 *     8.8118 *  0.0000     8          
    52  Na    c      8.8118 *     8.8118       0.0000    0.0000     4          
    53  O     c      4.4059 *     4.4059      11.0148 *  0.0000     8          
    54  O     c      8.8118 *     8.8118      -2.2030 *  0.0000     8          
    55  Cl    c      6.6089 *     6.6089       8.8118 *  0.0000     8          
    56  Cl    c      6.6089 *    11.0148 *     0.0000    0.0000     8          
    57  Na    c      6.6089 *     0.0000      11.0148 *  0.0000     8          
    58  Na    c     11.0148 *     0.0000       6.6089 *  0.0000     8          
    59  Na    c      6.6089 *     8.8118 *     6.6089 *  0.0000    16          
    60  Na    c      0.0000       0.0000      13.2177 *  0.0000     2          
    61  Na    c      0.0000      13.2177 *     0.0000    0.0000     4          
    62  Na    c      4.4059 *     8.8118 *     8.8118 *  0.0000    16          
    63  Na    c      8.8118 *     8.8118       4.4059 *  0.0000     8          
    64  O     c      0.0000      13.2177 *    -2.2030 *  0.0000     8          
    65  Cl    c      6.6089 *    11.0148 *     4.4059 *  0.0000    16          
    66  Na    c      2.2030 *    13.2177 *    -2.2030 *  0.0000    16          
    67  Cl    c      2.2030 *     2.2030      13.2177 *  0.0000     8          
    68  Na    c      6.6089 *     4.4059 *    11.0148 *  0.0000    16          
    69  Na    c     11.0148 *     4.4059 *     6.6089 *  0.0000    16          
    70  Na    c      0.0000       4.4059 *    13.2177 *  0.0000     8          
    71  Na    c      0.0000      13.2177 *     4.4059 *  0.0000     8          
    72  Na    c      4.4059 *    13.2177 *     0.0000    0.0000     8          
    73  O     c      4.4059 *    13.2177 *    -2.2030 *  0.0000    16          
    74  O     c      0.0000       8.8118 *    11.0148 *  0.0000     8          
    75  O     c      8.8118 *     8.8118       6.6089 *  0.0000     8          
    76  Cl    c      2.2030 *    11.0148 *     8.8118 *  0.0000    16          
    77  Na    c      2.2030 *     8.8118 *    11.0148 *  0.0000    16          
    78  Na    c     11.0148 *     8.8118 *    -2.2030 *  0.0000    16          
    79  Na    c      4.4059 *    13.2177 *     4.4059 *  0.0000    16          
    80  Na    c      4.4059 *     4.4059      13.2177 *  0.0000     8          
    81  O     c      4.4059 *     8.8118 *    11.0148 *  0.0000    16          
    82  O     c      0.0000      13.2177 *     6.6089 *  0.0000     8          
    83  Cl    c      2.2030 *     6.6089 *    13.2177 *  0.0000    16          
    84  Na    c      2.2030 *    13.2177 *     6.6089 *  0.0000    16          
    85  Na    c      6.6089 *    13.2177 *    -2.2030 *  0.0000    16          
    86  Na    c      8.8118 *     8.8118       8.8118 *  0.0000     8          
    87  O     c      0.0000       0.0000      15.4207 *  0.0000     2          
    88  O     c      4.4059 *    13.2177 *     6.6089 *  0.0000    16          
    89  Cl    c      2.2030 *    15.4207 *     0.0000    0.0000     8          
    90  Cl    c      6.6089 *    11.0148 *     8.8118 *  0.0000    16          
    91  Cl    c     11.0148 *    11.0148       0.0000    0.0000     4          
    92  Na    c      2.2030 *     0.0000      15.4207 *  0.0000     8          
    93  Na    c     11.0148 *     0.0000      11.0148 *  0.0000     8          
    94  Na    c     15.4207 *     0.0000      -2.2030 *  0.0000     8          
    95  Na    c      6.6089 *     8.8118 *    11.0148 *  0.0000    16          
    96  Na    c     11.0148 *     8.8118 *     6.6089 *  0.0000    16          
    97  Na    c      0.0000       8.8118 *    13.2177 *  0.0000     8          
    98  Na    c      0.0000      13.2177 *     8.8118 *  0.0000     8          
    99  Na    c      8.8118 *    13.2177 *     0.0000    0.0000     8          
   100  O     c      0.0000       4.4059 *    15.4207 *  0.0000     8          
   101  O     c      8.8118 *    13.2177 *    -2.2030 *  0.0000    16          
   102  Cl    c      2.2030 *    15.4207 *     4.4059 *  0.0000    16          
   103  Cl    c      6.6089 *     6.6089      13.2177 *  0.0000     8          
   104  Cl    c     11.0148 *    11.0148       4.4059 *  0.0000     8          
   105  Na    c      2.2030 *     4.4059 *    15.4207 *  0.0000    16          
   106  Na    c      6.6089 *    13.2177 *     6.6089 *  0.0000    16          
   107  Na    c     11.0148 *     4.4059 *    11.0148 *  0.0000    16          
   108  Na    c     15.4207 *     4.4059 *    -2.2030 *  0.0000    16          
   109  Na    c      4.4059 *     8.8118 *    13.2177 *  0.0000    16          
   110  Na    c      4.4059 *    13.2177 *     8.8118 *  0.0000    16          
   111  Na    c      8.8118 *    13.2177 *     4.4059 *  0.0000    16          
   112  O     c      4.4059 *     4.4059      15.4207 *  0.0000     8          
   113  O     c      8.8118 *     8.8118      11.0148 *  0.0000     8          
   114  Cl    c      6.6089 *    15.4207 *     0.0000    0.0000     8          
   115  Na    c      6.6089 *     0.0000      15.4207 *  0.0000     8          
   116  Na    c     15.4207 *     0.0000       6.6089 *  0.0000     8          
   117  O     c      0.0000      13.2177 *    11.0148 *  0.0000     8          
   118  O     c      8.8118 *    13.2177 *     6.6089 *  0.0000    16          
   119  Cl    c      2.2030 *    11.0148 *    13.2177 *  0.0000    16          
   120  Na    c      2.2030 *    13.2177 *    11.0148 *  0.0000    16          
   121  Na    c      6.6089 *     4.4059 *    15.4207 *  0.0000    16          
   122  Cl    c      6.6089 *    15.4207 *     4.4059 *  0.0000    16          
   123  Na    c     11.0148 *    13.2177 *    -2.2030 *  0.0000    16          
   124  Na    c     15.4207 *     4.4059 *     6.6089 *  0.0000    16          
   125  Na    c      0.0000       0.0000      17.6236 *  0.0000     2          
   126  Na    c      0.0000      17.6236 *     0.0000    0.0000     4          
   127  O     c      4.4059 *    13.2177 *    11.0148 *  0.0000    16          
   128  O     c      0.0000       8.8118 *    15.4207 *  0.0000     8          
   129  O     c      0.0000      17.6236 *    -2.2030 *  0.0000     8          
   130  Cl    c      2.2030 *     2.2030      17.6236 *  0.0000     8          
   131  Cl    c      2.2030 *    15.4207 *     8.8118 *  0.0000    16          
   132  Cl    c     11.0148 *    11.0148       8.8118 *  0.0000     8          
   133  Na    c      2.2030 *     8.8118 *    15.4207 *  0.0000    16          
   134  Na    c     11.0148 *     8.8118 *    11.0148 *  0.0000    16          
   135  Na    c      2.2030 *    17.6236 *    -2.2030 *  0.0000    16          
   136  Na    c     15.4207 *     8.8118 *    -2.2030 *  0.0000    16          
   137  Ca    s      0.0000       0.0000       0.0000    0.0000     1    Defect
   138  O     s      0.0000       0.0000      -2.2030 *  0.0000     2          
   139  Cl    s      2.2030 *     2.2030       0.0000    0.0000     4          
   140  O     s      0.0000       4.4059 *    -2.2030 *  0.0000     8          
   141  Cl    s      2.2030 *     2.2030       4.4059 *  0.0000     8          
   142  O     s      0.0000       0.0000       6.6089 *  0.0000     2          
   143  O     s      4.4059 *     4.4059      -2.2030 *  0.0000     8          
   144  Cl    s      2.2030 *     6.6089 *     0.0000    0.0000     8          
   145  O     s      0.0000       4.4059 *     6.6089 *  0.0000     8          
   146  Cl    s      2.2030 *     6.6089 *     4.4059 *  0.0000    16          
   147  O     s      4.4059 *     4.4059       6.6089 *  0.0000     8          
   148  O     s      0.0000       8.8118 *    -2.2030 *  0.0000     8          
   149  Cl    s      2.2030 *     2.2030       8.8118 *  0.0000     8          
   150  Cl    s      6.6089 *     6.6089       0.0000    0.0000     4          
   151  O     s      4.4059 *     8.8118 *    -2.2030 *  0.0000    16          
   152  Cl    s      6.6089 *     6.6089       4.4059 *  0.0000     8          
   153  O     s      0.0000       0.0000      11.0148 *  0.0000     2          
   154  O     s      0.0000       8.8118 *     6.6089 *  0.0000     8          
   155  Cl    s      2.2030 *     6.6089 *     8.8118 *  0.0000    16          
   156  Cl    s      2.2030 *    11.0148 *     0.0000    0.0000     8          
   157  O     s      0.0000       4.4059 *    11.0148 *  0.0000     8          
   158  O     s      4.4059 *     8.8118 *     6.6089 *  0.0000    16          
   159  Cl    s      2.2030 *    11.0148 *     4.4059 *  0.0000    16          
   160  O     s      4.4059 *     4.4059      11.0148 *  0.0000     8          
   161  O     s      8.8118 *     8.8118      -2.2030 *  0.0000     8          
   162  Cl    s      6.6089 *     6.6089       8.8118 *  0.0000     8          
   163  Cl    s      6.6089 *    11.0148 *     0.0000    0.0000     8          
   164  O     s      0.0000      13.2177 *    -2.2030 *  0.0000     8          
   165  Cl    s      6.6089 *    11.0148 *     4.4059 *  0.0000    16          
   166  Cl    s      2.2030 *     2.2030      13.2177 *  0.0000     8          
   167  O     s      4.4059 *    13.2177 *    -2.2030 *  0.0000    16          
   168  O     s      0.0000       8.8118 *    11.0148 *  0.0000     8          
   169  O     s      8.8118 *     8.8118       6.6089 *  0.0000     8          
   170  Cl    s      2.2030 *    11.0148 *     8.8118 *  0.0000    16          
   171  O     s      4.4059 *     8.8118 *    11.0148 *  0.0000    16          
   172  O     s      0.0000      13.2177 *     6.6089 *  0.0000     8          
   173  Cl    s      2.2030 *     6.6089 *    13.2177 *  0.0000    16          
   174  O     s      0.0000       0.0000      15.4207 *  0.0000     2          
   175  O     s      4.4059 *    13.2177 *     6.6089 *  0.0000    16          
   176  Cl    s      2.2030 *    15.4207 *     0.0000    0.0000     8          
   177  Cl    s      6.6089 *    11.0148 *     8.8118 *  0.0000    16          
   178  Cl    s     11.0148 *    11.0148       0.0000    0.0000     4          
   179  O     s      0.0000       4.4059 *    15.4207 *  0.0000     8          
   180  O     s      8.8118 *    13.2177 *    -2.2030 *  0.0000    16          
   181  Cl    s      2.2030 *    15.4207 *     4.4059 *  0.0000    16          
   182  Cl    s      6.6089 *     6.6089      13.2177 *  0.0000     8          
   183  Cl    s     11.0148 *    11.0148       4.4059 *  0.0000     8          
   184  O     s      4.4059 *     4.4059      15.4207 *  0.0000     8          
   185  O     s      8.8118 *     8.8118      11.0148 *  0.0000     8          
   186  Cl    s      6.6089 *    15.4207 *     0.0000    0.0000     8          
   187  O     s      0.0000      13.2177 *    11.0148 *  0.0000     8          
   188  O     s      8.8118 *    13.2177 *     6.6089 *  0.0000    16          
   189  Cl    s      2.2030 *    11.0148 *    13.2177 *  0.0000    16          
   190  Cl    s      6.6089 *    15.4207 *     4.4059 *  0.0000    16          
   191  O     s      4.4059 *    13.2177 *    11.0148 *  0.0000    16          
   192  O     s      0.0000       8.8118 *    15.4207 *  0.0000     8          
   193  O     s      0.0000      17.6236 *    -2.2030 *  0.0000     8          
   194  Cl    s      2.2030 *     2.2030      17.6236 *  0.0000     8          
   195  Cl    s      2.2030 *    15.4207 *     8.8118 *  0.0000    16          
   196  Cl    s     11.0148 *    11.0148       8.8118 *  0.0000     8          
--------------------------------------------------------------------------------


  Constraints on symmetry reduced coordinates :

--------------------------------------------------------------------------------
  Constraint no.      Unconstrained     Constrained    Coefficient    
                         Variable         Variable
--------------------------------------------------------------------------------
           1                 3 x             3 y         1.00000
           2                 9 x             9 y         1.00000
           3                11 x            11 y         1.00000
           4                13 x            13 y         1.00000
           5                17 x            17 y         1.00000
           6                24 x            24 y         1.00000
           7                26 x            26 y         1.00000
           8                27 x            27 y         1.00000
           9                34 x            34 y         1.00000
          10                37 x            37 y         1.00000
          11                52 x            52 y         1.00000
          12                53 x            53 y         1.00000
          13                54 x            54 y         1.00000
          14                55 x            55 y         1.00000
          15                63 x            63 y         1.00000
          16                67 x            67 y         1.00000
          17                75 x            75 y         1.00000
          18                80 x            80 y         1.00000
          19                86 x            86 y         1.00000
          20                91 x            91 y         1.00000
          21               103 x           103 y         1.00000
          22               104 x           104 y         1.00000
          23               112 x           112 y         1.00000
          24               113 x           113 y         1.00000
          25               130 x           130 y         1.00000
          26               132 x           132 y         1.00000
          27               139 x           139 y         1.00000
          28               141 x           141 y         1.00000
          29               143 x           143 y         1.00000
          30               147 x           147 y         1.00000
          31               149 x           149 y         1.00000
          32               150 x           150 y         1.00000
          33               152 x           152 y         1.00000
          34               160 x           160 y         1.00000
          35               161 x           161 y         1.00000
          36               162 x           162 y         1.00000
          37               166 x           166 y         1.00000
          38               169 x           169 y         1.00000
          39               178 x           178 y         1.00000
          40               182 x           182 y         1.00000
          41               183 x           183 y         1.00000
          42               184 x           184 y         1.00000
          43               185 x           185 y         1.00000
          44               194 x           194 y         1.00000
          45               196 x           196 y         1.00000
--------------------------------------------------------------------------------


  Components of defect energy : 

--------------------------------------------------------------------------------
  Region 1 - region 1                   =    -23.11789684 eV
  Region 1 - region 2a (unrelaxed)      =     15.15734830 eV
  Region 1 - 2a (relaxed - correction)  =     -0.17806131 eV
  Region 1 (Total)                      =     -8.13860985 eV
  Region 2a                             =      0.08903913 eV
  Region 2b                             =     -0.27216525 eV
--------------------------------------------------------------------------------
  Total defect energy                   =     -8.32173596 eV
--------------------------------------------------------------------------------

  Largest displacement in region 2 =   0.0070 Angstroms


  Number of variables =      439

  Maximum number of calculations  =        1000
  Maximum Hessian update interval =          10
  Maximum step size               =   1.0000000
  Maximum parameter tolerance     =   0.0000100
  Maximum function  tolerance     =   0.0000100
  Maximum gradient  tolerance     =   0.0010000

  Symmetry adapted optimisation

  Symmetry to be used for second derivatives

  Newton-Raphson optimiser to be used

  BFGS hessian update to be used

  Lower half triangular hessian to be used

  Start of defect optimisation :

  Cycle:      0 Defect Energy:  -8.321736  Gnorm:     0.093338  CPU:   13.512
  ** Hessian calculated **
  Cycle:      1 Defect Energy: -11.063960  Gnorm:     0.019213  CPU:   21.917
  Cycle:      2 Defect Energy: -11.187083  Gnorm:     0.001720  CPU:   25.582
  Cycle:      3 Defect Energy: -11.189553  Gnorm:     0.001161  CPU:   26.196
  Cycle:      4 Defect Energy: -11.190528  Gnorm:     0.000772  CPU:   30.887
  Cycle:      5 Defect Energy: -11.190988  Gnorm:     0.000544  CPU:   32.808
  Cycle:      6 Defect Energy: -11.191210  Gnorm:     0.000378  CPU:   33.985
  Cycle:      7 Defect Energy: -11.191316  Gnorm:     0.000267  CPU:   35.242
  Cycle:      8 Defect Energy: -11.191366  Gnorm:     0.000187  CPU:   36.428
  Cycle:      9 Defect Energy: -11.191389  Gnorm:     0.000134  CPU:   37.768
  Cycle:     10 Defect Energy: -11.191399  Gnorm:     0.000095  CPU:   38.974
  ** Hessian calculated **
  Cycle:     11 Defect Energy: -11.191403  Gnorm:     0.000065  CPU:   42.211
  Cycle:     12 Defect Energy: -11.191405  Gnorm:     0.000053  CPU:   43.275


  **** Optimisation achieved ****


  Final defect energy  =      -11.19140524
  Final defect Gnorm   =        0.00004175

  Components of defect energy : 

--------------------------------------------------------------------------------
  Region 1 - region 1                   =    -26.18092422 eV
  Region 1 - region 2a (unrelaxed)      =     15.33662690 eV
  Region 1 - 2a (relaxed - correction)  =     -0.14987584 eV
  Region 1 (Total)                      =    -10.99417316 eV
  Region 2a                             =      0.07493317 eV
  Region 2b                             =     -0.27216525 eV
--------------------------------------------------------------------------------
  Total defect energy                   =    -11.19140524 eV
--------------------------------------------------------------------------------

  Largest displacement in region 2 =   0.0070 Angstroms

  Final coordinates of region 1 :

--------------------------------------------------------------------------------
   No.  Atomic        x           y           z          Radius      Charge
        Label       (Angs)      (Angs)      (Angs)       (Angs)       (e) 
--------------------------------------------------------------------------------
     1  Ca    c     2.202951    2.202951    0.000000    0.000000   -1.135000
     2  O     c     2.202951    2.202951   -2.095765    0.000000    0.183000
     3  O     c     2.202951    2.202951    2.095765    0.000000    0.183000
     4  Cl    c     4.377801    4.377801    0.000000    0.000000    1.485000
     5  Cl    c     4.377801    0.028101    0.000000    0.000000    1.485000
     6  Cl    c     0.028101    4.377801    0.000000    0.000000    1.485000
     7  Cl    c     0.028101    0.028101    0.000000    0.000000    1.485000
     8  Na    c     4.480147    2.202951   -2.419872    0.000000    1.000000
     9  Na    c     4.480147    2.202951    2.419872    0.000000    1.000000
    10  Na    c    -0.074245    2.202951   -2.419872    0.000000    1.000000
    11  Na    c    -0.074245    2.202951    2.419872    0.000000    1.000000
    12  Na    c     2.202951    4.480147   -2.419872    0.000000    1.000000
    13  Na    c     2.202951    4.480147    2.419872    0.000000    1.000000
    14  Na    c     2.202951   -0.074245   -2.419872    0.000000    1.000000
    15  Na    c     2.202951   -0.074245    2.419872    0.000000    1.000000
    16  Na    c     2.202951    2.202951    4.425985    0.000000    1.000000
    17  Na    c     2.202951    2.202951   -4.425985    0.000000    1.000000
    18  Na    c     2.202951    6.563449    0.000000    0.000000    1.000000
    19  Na    c     2.202951   -2.157547    0.000000    0.000000    1.000000
    20  Na    c     6.563449    2.202951    0.000000    0.000000    1.000000
    21  Na    c    -2.157547    2.202951    0.000000    0.000000    1.000000
    22  O     c     2.202951    6.631987   -2.209787    0.000000    0.183000
    23  O     c     2.202951    6.631987    2.209787    0.000000    0.183000
    24  O     c     2.202951   -2.226085   -2.209787    0.000000    0.183000
    25  O     c     2.202951   -2.226085    2.209787    0.000000    0.183000
    26  O     c     6.631987    2.202951   -2.209787    0.000000    0.183000
    27  O     c     6.631987    2.202951    2.209787    0.000000    0.183000
    28  O     c    -2.226085    2.202951   -2.209787    0.000000    0.183000
    29  O     c    -2.226085    2.202951    2.209787    0.000000    0.183000
    30  Na    c     4.412734    6.652413   -2.204433    0.000000    1.000000
    31  Na    c     4.412734    6.652413    2.204433    0.000000    1.000000
    32  Na    c     4.412734   -2.246511   -2.204433    0.000000    1.000000
    33  Na    c     4.412734   -2.246511    2.204433    0.000000    1.000000
    34  Na    c    -0.006832    6.652413   -2.204433    0.000000    1.000000
    35  Na    c    -0.006832    6.652413    2.204433    0.000000    1.000000
    36  Na    c    -0.006832   -2.246511   -2.204433    0.000000    1.000000
    37  Na    c    -0.006832   -2.246511    2.204433    0.000000    1.000000
    38  Na    c     6.652413    4.412734   -2.204433    0.000000    1.000000
    39  Na    c     6.652413    4.412734    2.204433    0.000000    1.000000
    40  Na    c     6.652413   -0.006832   -2.204433    0.000000    1.000000
    41  Na    c     6.652413   -0.006832    2.204433    0.000000    1.000000
    42  Na    c    -2.246511    4.412734   -2.204433    0.000000    1.000000
    43  Na    c    -2.246511    4.412734    2.204433    0.000000    1.000000
    44  Na    c    -2.246511   -0.006832   -2.204433    0.000000    1.000000
    45  Na    c    -2.246511   -0.006832    2.204433    0.000000    1.000000
    46  Cl    c     4.351796    4.351796    4.362499    0.000000    1.485000
    47  Cl    c     4.351796    4.351796   -4.362499    0.000000    1.485000
    48  Cl    c     4.351796    0.054106    4.362499    0.000000    1.485000
    49  Cl    c     4.351796    0.054106   -4.362499    0.000000    1.485000
    50  Cl    c     0.054106    4.351796    4.362499    0.000000    1.485000
    51  Cl    c     0.054106    4.351796   -4.362499    0.000000    1.485000
    52  Cl    c     0.054106    0.054106    4.362499    0.000000    1.485000
    53  Cl    c     0.054106    0.054106   -4.362499    0.000000    1.485000
    54  Na    c     2.202951    6.770579    4.423409    0.000000    1.000000
    55  Na    c     2.202951    6.770579   -4.423409    0.000000    1.000000
    56  Na    c     2.202951   -2.364677    4.423409    0.000000    1.000000
    57  Na    c     2.202951   -2.364677   -4.423409    0.000000    1.000000
    58  Na    c     6.770579    2.202951    4.423409    0.000000    1.000000
    59  Na    c     6.770579    2.202951   -4.423409    0.000000    1.000000
    60  Na    c    -2.364677    2.202951    4.423409    0.000000    1.000000
    61  Na    c    -2.364677    2.202951   -4.423409    0.000000    1.000000
    62  Na    c     6.640678    6.640678    0.000000    0.000000    1.000000
    63  Na    c     6.640678   -2.234776    0.000000    0.000000    1.000000
    64  Na    c    -2.234776    6.640678    0.000000    0.000000    1.000000
    65  Na    c    -2.234776   -2.234776    0.000000    0.000000    1.000000
    66  O     c     2.202951    2.202951    6.596132    0.000000    0.183000
    67  O     c     2.202951    2.202951   -6.596132    0.000000    0.183000
    68  O     c     6.610010    6.610010   -2.202059    0.000000    0.183000
    69  O     c     6.610010    6.610010    2.202059    0.000000    0.183000
    70  O     c     6.610010   -2.204107   -2.202059    0.000000    0.183000
    71  O     c     6.610010   -2.204107    2.202059    0.000000    0.183000
    72  O     c    -2.204107    6.610010   -2.202059    0.000000    0.183000
    73  O     c    -2.204107    6.610010    2.202059    0.000000    0.183000
    74  O     c    -2.204107   -2.204107   -2.202059    0.000000    0.183000
    75  O     c    -2.204107   -2.204107    2.202059    0.000000    0.183000
    76  Cl    c     4.404680    8.792010    0.000000    0.000000    1.485000
    77  Cl    c     4.404680   -4.386108    0.000000    0.000000    1.485000
    78  Cl    c     8.792010    4.404680    0.000000    0.000000    1.485000
    79  Cl    c     8.792010    0.001222    0.000000    0.000000    1.485000
    80  Cl    c     0.001222    8.792010    0.000000    0.000000    1.485000
    81  Cl    c     0.001222   -4.386108    0.000000    0.000000    1.485000
    82  Cl    c    -4.386108    4.404680    0.000000    0.000000    1.485000
    83  Cl    c    -4.386108    0.001222    0.000000    0.000000    1.485000
    84  Na    c     4.415257    2.202951    6.599640    0.000000    1.000000
    85  Na    c     4.415257    2.202951   -6.599640    0.000000    1.000000
    86  Na    c    -0.009355    2.202951    6.599640    0.000000    1.000000
    87  Na    c    -0.009355    2.202951   -6.599640    0.000000    1.000000
    88  Na    c     2.202951    4.415257    6.599640    0.000000    1.000000
    89  Na    c     2.202951    4.415257   -6.599640    0.000000    1.000000
    90  Na    c     2.202951   -0.009355    6.599640    0.000000    1.000000
    91  Na    c     2.202951   -0.009355   -6.599640    0.000000    1.000000
    92  Na    c     8.835052    2.202951   -2.110953    0.000000    1.000000
    93  Na    c     8.835052    2.202951    2.110953    0.000000    1.000000
    94  Na    c    -4.429150    2.202951   -2.110953    0.000000    1.000000
    95  Na    c    -4.429150    2.202951    2.110953    0.000000    1.000000
    96  Na    c     2.202951    8.835052   -2.110953    0.000000    1.000000
    97  Na    c     2.202951    8.835052    2.110953    0.000000    1.000000
    98  Na    c     2.202951   -4.429150   -2.110953    0.000000    1.000000
    99  Na    c     2.202951   -4.429150    2.110953    0.000000    1.000000
   100  Na    c     6.628205    6.628205    4.406789    0.000000    1.000000
   101  Na    c     6.628205    6.628205   -4.406789    0.000000    1.000000
   102  Na    c     6.628205   -2.222303    4.406789    0.000000    1.000000
   103  Na    c     6.628205   -2.222303   -4.406789    0.000000    1.000000
   104  Na    c    -2.222303    6.628205    4.406789    0.000000    1.000000
   105  Na    c    -2.222303    6.628205   -4.406789    0.000000    1.000000
   106  Na    c    -2.222303   -2.222303    4.406789    0.000000    1.000000
   107  Na    c    -2.222303   -2.222303   -4.406789    0.000000    1.000000
   108  O     c     2.202951    6.621073    6.614076    0.000000    0.183000
   109  O     c     2.202951    6.621073   -6.614076    0.000000    0.183000
   110  O     c     2.202951   -2.215171    6.614076    0.000000    0.183000
   111  O     c     2.202951   -2.215171   -6.614076    0.000000    0.183000
   112  O     c     6.621073    2.202951    6.614076    0.000000    0.183000
   113  O     c     6.621073    2.202951   -6.614076    0.000000    0.183000
   114  O     c    -2.215171    2.202951    6.614076    0.000000    0.183000
   115  O     c    -2.215171    2.202951   -6.614076    0.000000    0.183000
   116  Cl    c     4.405875    8.800741    4.399968    0.000000    1.485000
   117  Cl    c     4.405875    8.800741   -4.399968    0.000000    1.485000
   118  Cl    c     4.405875   -4.394839    4.399968    0.000000    1.485000
   119  Cl    c     4.405875   -4.394839   -4.399968    0.000000    1.485000
   120  Cl    c     8.800741    4.405875    4.399968    0.000000    1.485000
   121  Cl    c     8.800741    4.405875   -4.399968    0.000000    1.485000
   122  Cl    c     8.800741    0.000027    4.399968    0.000000    1.485000
   123  Cl    c     8.800741    0.000027   -4.399968    0.000000    1.485000
   124  Cl    c     0.000027    8.800741    4.399968    0.000000    1.485000
   125  Cl    c     0.000027    8.800741   -4.399968    0.000000    1.485000
   126  Cl    c     0.000027   -4.394839    4.399968    0.000000    1.485000
   127  Cl    c     0.000027   -4.394839   -4.399968    0.000000    1.485000
   128  Cl    c    -4.394839    4.405875    4.399968    0.000000    1.485000
   129  Cl    c    -4.394839    4.405875   -4.399968    0.000000    1.485000
   130  Cl    c    -4.394839    0.000027    4.399968    0.000000    1.485000
   131  Cl    c    -4.394839    0.000027   -4.399968    0.000000    1.485000
   132  Na    c     4.405751    6.624187    6.630122    0.000000    1.000000
   133  Na    c     4.405751    6.624187   -6.630122    0.000000    1.000000
   134  Na    c     4.405751   -2.218285    6.630122    0.000000    1.000000
   135  Na    c     4.405751   -2.218285   -6.630122    0.000000    1.000000
   136  Na    c     0.000151    6.624187    6.630122    0.000000    1.000000
   137  Na    c     0.000151    6.624187   -6.630122    0.000000    1.000000
   138  Na    c     0.000151   -2.218285    6.630122    0.000000    1.000000
   139  Na    c     0.000151   -2.218285   -6.630122    0.000000    1.000000
   140  Na    c     6.624187    4.405751    6.630122    0.000000    1.000000
   141  Na    c     6.624187    4.405751   -6.630122    0.000000    1.000000
   142  Na    c     6.624187    0.000151    6.630122    0.000000    1.000000
   143  Na    c     6.624187    0.000151   -6.630122    0.000000    1.000000
   144  Na    c    -2.218285    4.405751    6.630122    0.000000    1.000000
   145  Na    c    -2.218285    4.405751   -6.630122    0.000000    1.000000
   146  Na    c    -2.218285    0.000151    6.630122    0.000000    1.000000
   147  Na    c    -2.218285    0.000151   -6.630122    0.000000    1.000000
   148  Na    c     8.821299    6.623176   -2.208359    0.000000    1.000000
   149  Na    c     8.821299    6.623176    2.208359    0.000000    1.000000
   150  Na    c     8.821299   -2.217274   -2.208359    0.000000    1.000000
   151  Na    c     8.821299   -2.217274    2.208359    0.000000    1.000000
   152  Na    c    -4.415397    6.623176   -2.208359    0.000000    1.000000
   153  Na    c    -4.415397    6.623176    2.208359    0.000000    1.000000
   154  Na    c    -4.415397   -2.217274   -2.208359    0.000000    1.000000
   155  Na    c    -4.415397   -2.217274    2.208359    0.000000    1.000000
   156  Na    c     6.623176    8.821299   -2.208359    0.000000    1.000000
   157  Na    c     6.623176    8.821299    2.208359    0.000000    1.000000
   158  Na    c     6.623176   -4.415397   -2.208359    0.000000    1.000000
   159  Na    c     6.623176   -4.415397    2.208359    0.000000    1.000000
   160  Na    c    -2.217274    8.821299   -2.208359    0.000000    1.000000
   161  Na    c    -2.217274    8.821299    2.208359    0.000000    1.000000
   162  Na    c    -2.217274   -4.415397   -2.208359    0.000000    1.000000
   163  Na    c    -2.217274   -4.415397    2.208359    0.000000    1.000000
   164  Na    c     2.202951    2.202951    8.807432    0.000000    1.000000
   165  Na    c     2.202951    2.202951   -8.807432    0.000000    1.000000
   166  Na    c     2.202951   11.131360    0.000000    0.000000    1.000000
   167  Na    c     2.202951   -6.725458    0.000000    0.000000    1.000000
   168  Na    c    11.131360    2.202951    0.000000    0.000000    1.000000
   169  Na    c    -6.725458    2.202951    0.000000    0.000000    1.000000
   170  O     c     6.604019    6.604019    6.603568    0.000000    0.183000
   171  O     c     6.604019    6.604019   -6.603568    0.000000    0.183000
   172  O     c     6.604019   -2.198117    6.603568    0.000000    0.183000
   173  O     c     6.604019   -2.198117   -6.603568    0.000000    0.183000
   174  O     c    -2.198117    6.604019    6.603568    0.000000    0.183000
   175  O     c    -2.198117    6.604019   -6.603568    0.000000    0.183000
   176  O     c    -2.198117   -2.198117    6.603568    0.000000    0.183000
   177  O     c    -2.198117   -2.198117   -6.603568    0.000000    0.183000
   178  O     c     2.202951   11.025086   -2.201075    0.000000    0.183000
   179  O     c     2.202951   11.025086    2.201075    0.000000    0.183000
   180  O     c     2.202951   -6.619184   -2.201075    0.000000    0.183000
   181  O     c     2.202951   -6.619184    2.201075    0.000000    0.183000
   182  O     c    11.025086    2.202951   -2.201075    0.000000    0.183000
   183  O     c    11.025086    2.202951    2.201075    0.000000    0.183000
   184  O     c    -6.619184    2.202951   -2.201075    0.000000    0.183000
   185  O     c    -6.619184    2.202951    2.201075    0.000000    0.183000
   186  Cl    c     4.404093    4.404093    8.790401    0.000000    1.485000
   187  Cl    c     4.404093    4.404093   -8.790401    0.000000    1.485000
   188  Cl    c     4.404093    0.001809    8.790401    0.000000    1.485000
   189  Cl    c     4.404093    0.001809   -8.790401    0.000000    1.485000
   190  Cl    c     0.001809    4.404093    8.790401    0.000000    1.485000
   191  Cl    c     0.001809    4.404093   -8.790401    0.000000    1.485000
   192  Cl    c     0.001809    0.001809    8.790401    0.000000    1.485000
   193  Cl    c     0.001809    0.001809   -8.790401    0.000000    1.485000
   194  Cl    c     8.800782    8.800782    0.000000    0.000000    1.485000
   195  Cl    c     8.800782   -4.394880    0.000000    0.000000    1.485000
   196  Cl    c    -4.394880    8.800782    0.000000    0.000000    1.485000
   197  Cl    c    -4.394880   -4.394880    0.000000    0.000000    1.485000
   198  Na    c     8.826449    2.202951    6.707455    0.000000    1.000000
   199  Na    c     8.826449    2.202951   -6.707455    0.000000    1.000000
   200  Na    c    -4.420547    2.202951    6.707455    0.000000    1.000000
   201  Na    c    -4.420547    2.202951   -6.707455    0.000000    1.000000
   202  Na    c     2.202951    8.826449    6.707455    0.000000    1.000000
   203  Na    c     2.202951    8.826449   -6.707455    0.000000    1.000000
   204  Na    c     2.202951   -4.420547    6.707455    0.000000    1.000000
   205  Na    c     2.202951   -4.420547   -6.707455    0.000000    1.000000
   206  Na    c     4.407999   11.033495   -2.209615    0.000000    1.000000
   207  Na    c     4.407999   11.033495    2.209615    0.000000    1.000000
   208  Na    c     4.407999   -6.627593   -2.209615    0.000000    1.000000
   209  Na    c     4.407999   -6.627593    2.209615    0.000000    1.000000
   210  Na    c    -0.002097   11.033495   -2.209615    0.000000    1.000000
   211  Na    c    -0.002097   11.033495    2.209615    0.000000    1.000000
   212  Na    c    -0.002097   -6.627593   -2.209615    0.000000    1.000000
   213  Na    c    -0.002097   -6.627593    2.209615    0.000000    1.000000
   214  Na    c    11.033495    4.407999   -2.209615    0.000000    1.000000
   215  Na    c    11.033495    4.407999    2.209615    0.000000    1.000000
   216  Na    c    11.033495   -0.002097   -2.209615    0.000000    1.000000
   217  Na    c    11.033495   -0.002097    2.209615    0.000000    1.000000
   218  Na    c    -6.627593    4.407999   -2.209615    0.000000    1.000000
   219  Na    c    -6.627593    4.407999    2.209615    0.000000    1.000000
   220  Na    c    -6.627593   -0.002097   -2.209615    0.000000    1.000000
   221  Na    c    -6.627593   -0.002097    2.209615    0.000000    1.000000
   222  Na    c     2.202951    6.576775    8.820404    0.000000    1.000000
   223  Na    c     2.202951    6.576775   -8.820404    0.000000    1.000000
   224  Na    c     2.202951   -2.170873    8.820404    0.000000    1.000000
   225  Na    c     2.202951   -2.170873   -8.820404    0.000000    1.000000
   226  Na    c     6.576775    2.202951    8.820404    0.000000    1.000000
   227  Na    c     6.576775    2.202951   -8.820404    0.000000    1.000000
   228  Na    c    -2.170873    2.202951    8.820404    0.000000    1.000000
   229  Na    c    -2.170873    2.202951   -8.820404    0.000000    1.000000
   230  Na    c     2.202951   10.958857    4.408237    0.000000    1.000000
   231  Na    c     2.202951   10.958857   -4.408237    0.000000    1.000000
   232  Na    c     2.202951   -6.552955    4.408237    0.000000    1.000000
   233  Na    c     2.202951   -6.552955   -4.408237    0.000000    1.000000
   234  Na    c    10.958857    2.202951    4.408237    0.000000    1.000000
   235  Na    c    10.958857    2.202951   -4.408237    0.000000    1.000000
   236  Na    c    -6.552955    2.202951    4.408237    0.000000    1.000000
   237  Na    c    -6.552955    2.202951   -4.408237    0.000000    1.000000
   238  Na    c     6.609782   11.028125    0.000000    0.000000    1.000000
   239  Na    c     6.609782   -6.622223    0.000000    0.000000    1.000000
   240  Na    c    11.028125    6.609782    0.000000    0.000000    1.000000
   241  Na    c    11.028125   -2.203879    0.000000    0.000000    1.000000
   242  Na    c    -2.203879   11.028125    0.000000    0.000000    1.000000
   243  Na    c    -2.203879   -6.622223    0.000000    0.000000    1.000000
   244  Na    c    -6.622223    6.609782    0.000000    0.000000    1.000000
   245  Na    c    -6.622223   -2.203879    0.000000    0.000000    1.000000
   246  O     c     6.609785   11.017743   -2.202697    0.000000    0.183000
   247  O     c     6.609785   11.017743    2.202697    0.000000    0.183000
   248  O     c     6.609785   -6.611841   -2.202697    0.000000    0.183000
   249  O     c     6.609785   -6.611841    2.202697    0.000000    0.183000
   250  O     c    11.017743    6.609785   -2.202697    0.000000    0.183000
   251  O     c    11.017743    6.609785    2.202697    0.000000    0.183000
   252  O     c    11.017743   -2.203883   -2.202697    0.000000    0.183000
   253  O     c    11.017743   -2.203883    2.202697    0.000000    0.183000
   254  O     c    -2.203883   11.017743   -2.202697    0.000000    0.183000
   255  O     c    -2.203883   11.017743    2.202697    0.000000    0.183000
   256  O     c    -2.203883   -6.611841   -2.202697    0.000000    0.183000
   257  O     c    -2.203883   -6.611841    2.202697    0.000000    0.183000
   258  O     c    -6.611841    6.609785   -2.202697    0.000000    0.183000
   259  O     c    -6.611841    6.609785    2.202697    0.000000    0.183000
   260  O     c    -6.611841   -2.203883   -2.202697    0.000000    0.183000
   261  O     c    -6.611841   -2.203883    2.202697    0.000000    0.183000
   262  Cl    c     8.801049    8.801049    4.399279    0.000000    1.485000
   263  Cl    c     8.801049    8.801049   -4.399279    0.000000    1.485000
   264  Cl    c     8.801049   -4.395146    4.399279    0.000000    1.485000
   265  Cl    c     8.801049   -4.395146   -4.399279    0.000000    1.485000
   266  Cl    c    -4.395146    8.801049    4.399279    0.000000    1.485000
   267  Cl    c    -4.395146    8.801049   -4.399279    0.000000    1.485000
   268  Cl    c    -4.395146   -4.395146    4.399279    0.000000    1.485000
   269  Cl    c    -4.395146   -4.395146   -4.399279    0.000000    1.485000
   270  Na    c     8.814306    6.611618    6.614573    0.000000    1.000000
   271  Na    c     8.814306    6.611618   -6.614573    0.000000    1.000000
   272  Na    c     8.814306   -2.205715    6.614573    0.000000    1.000000
   273  Na    c     8.814306   -2.205715   -6.614573    0.000000    1.000000
   274  Na    c    -4.408403    6.611618    6.614573    0.000000    1.000000
   275  Na    c    -4.408403    6.611618   -6.614573    0.000000    1.000000
   276  Na    c    -4.408403   -2.205715    6.614573    0.000000    1.000000
   277  Na    c    -4.408403   -2.205715   -6.614573    0.000000    1.000000
   278  Na    c     6.611618    8.814306    6.614573    0.000000    1.000000
   279  Na    c     6.611618    8.814306   -6.614573    0.000000    1.000000
   280  Na    c     6.611618   -4.408403    6.614573    0.000000    1.000000
   281  Na    c     6.611618   -4.408403   -6.614573    0.000000    1.000000
   282  Na    c    -2.205715    8.814306    6.614573    0.000000    1.000000
   283  Na    c    -2.205715    8.814306   -6.614573    0.000000    1.000000
   284  Na    c    -2.205715   -4.408403    6.614573    0.000000    1.000000
   285  Na    c    -2.205715   -4.408403   -6.614573    0.000000    1.000000
   286  Na    c     6.618500   11.026510    4.407309    0.000000    1.000000
   287  Na    c     6.618500   11.026510   -4.407309    0.000000    1.000000
   288  Na    c     6.618500   -6.620608    4.407309    0.000000    1.000000
   289  Na    c     6.618500   -6.620608   -4.407309    0.000000    1.000000
   290  Na    c    11.026510    6.618500    4.407309    0.000000    1.000000
   291  Na    c    11.026510    6.618500   -4.407309    0.000000    1.000000
   292  Na    c    11.026510   -2.212598    4.407309    0.000000    1.000000
   293  Na    c    11.026510   -2.212598   -4.407309    0.000000    1.000000
   294  Na    c    -2.212598   11.026510    4.407309    0.000000    1.000000
   295  Na    c    -2.212598   11.026510   -4.407309    0.000000    1.000000
   296  Na    c    -2.212598   -6.620608    4.407309    0.000000    1.000000
   297  Na    c    -2.212598   -6.620608   -4.407309    0.000000    1.000000
   298  Na    c    -6.620608    6.618500    4.407309    0.000000    1.000000
   299  Na    c    -6.620608    6.618500   -4.407309    0.000000    1.000000
   300  Na    c    -6.620608   -2.212598    4.407309    0.000000    1.000000
   301  Na    c    -6.620608   -2.212598   -4.407309    0.000000    1.000000
   302  Na    c     6.612357    6.612357    8.814379    0.000000    1.000000
   303  Na    c     6.612357    6.612357   -8.814379    0.000000    1.000000
   304  Na    c     6.612357   -2.206455    8.814379    0.000000    1.000000
   305  Na    c     6.612357   -2.206455   -8.814379    0.000000    1.000000
   306  Na    c    -2.206455    6.612357    8.814379    0.000000    1.000000
   307  Na    c    -2.206455    6.612357   -8.814379    0.000000    1.000000
   308  Na    c    -2.206455   -2.206455    8.814379    0.000000    1.000000
   309  Na    c    -2.206455   -2.206455   -8.814379    0.000000    1.000000
   310  O     c     2.202951    2.202951   11.015533    0.000000    0.183000
   311  O     c     2.202951    2.202951  -11.015533    0.000000    0.183000
   312  O     c     2.202951   11.017380    6.610879    0.000000    0.183000
   313  O     c     2.202951   11.017380   -6.610879    0.000000    0.183000
   314  O     c     2.202951   -6.611478    6.610879    0.000000    0.183000
   315  O     c     2.202951   -6.611478   -6.610879    0.000000    0.183000
   316  O     c    11.017380    2.202951    6.610879    0.000000    0.183000
   317  O     c    11.017380    2.202951   -6.610879    0.000000    0.183000
   318  O     c    -6.611478    2.202951    6.610879    0.000000    0.183000
   319  O     c    -6.611478    2.202951   -6.610879    0.000000    0.183000
   320  Cl    c     4.404011    8.803840    8.803387    0.000000    1.485000
   321  Cl    c     4.404011    8.803840   -8.803387    0.000000    1.485000
   322  Cl    c     4.404011   -4.397937    8.803387    0.000000    1.485000
   323  Cl    c     4.404011   -4.397937   -8.803387    0.000000    1.485000
   324  Cl    c     8.803840    4.404011    8.803387    0.000000    1.485000
   325  Cl    c     8.803840    4.404011   -8.803387    0.000000    1.485000
   326  Cl    c     8.803840    0.001891    8.803387    0.000000    1.485000
   327  Cl    c     8.803840    0.001891   -8.803387    0.000000    1.485000
   328  Cl    c     0.001891    8.803840    8.803387    0.000000    1.485000
   329  Cl    c     0.001891    8.803840   -8.803387    0.000000    1.485000
   330  Cl    c     0.001891   -4.397937    8.803387    0.000000    1.485000
   331  Cl    c     0.001891   -4.397937   -8.803387    0.000000    1.485000
   332  Cl    c    -4.397937    4.404011    8.803387    0.000000    1.485000
   333  Cl    c    -4.397937    4.404011   -8.803387    0.000000    1.485000
   334  Cl    c    -4.397937    0.001891    8.803387    0.000000    1.485000
   335  Cl    c    -4.397937    0.001891   -8.803387    0.000000    1.485000
   336  Cl    c     4.406792   13.211862    0.000000    0.000000    1.485000
   337  Cl    c     4.406792   -8.805960    0.000000    0.000000    1.485000
   338  Cl    c    13.211862    4.406792    0.000000    0.000000    1.485000
   339  Cl    c    13.211862   -0.000889    0.000000    0.000000    1.485000
   340  Cl    c    -0.000889   13.211862    0.000000    0.000000    1.485000
   341  Cl    c    -0.000889   -8.805960    0.000000    0.000000    1.485000
   342  Cl    c    -8.805960    4.406792    0.000000    0.000000    1.485000
   343  Cl    c    -8.805960   -0.000889    0.000000    0.000000    1.485000
   344  Na    c     4.404117    2.202951   11.035041    0.000000    1.000000
   345  Na    c     4.404117    2.202951  -11.035041    0.000000    1.000000
   346  Na    c     0.001785    2.202951   11.035041    0.000000    1.000000
   347  Na    c     0.001785    2.202951  -11.035041    0.000000    1.000000
   348  Na    c     2.202951    4.404117   11.035041    0.000000    1.000000
   349  Na    c     2.202951    4.404117  -11.035041    0.000000    1.000000
   350  Na    c     2.202951    0.001785   11.035041    0.000000    1.000000
   351  Na    c     2.202951    0.001785  -11.035041    0.000000    1.000000
   352  Na    c     4.407153   11.029203    6.609863    0.000000    1.000000
   353  Na    c     4.407153   11.029203   -6.609863    0.000000    1.000000
   354  Na    c     4.407153   -6.623301    6.609863    0.000000    1.000000
   355  Na    c     4.407153   -6.623301   -6.609863    0.000000    1.000000
   356  Na    c    -0.001251   11.029203    6.609863    0.000000    1.000000
   357  Na    c    -0.001251   11.029203   -6.609863    0.000000    1.000000
   358  Na    c    -0.001251   -6.623301    6.609863    0.000000    1.000000
   359  Na    c    -0.001251   -6.623301   -6.609863    0.000000    1.000000
   360  Na    c    11.029203    4.407153    6.609863    0.000000    1.000000
   361  Na    c    11.029203    4.407153   -6.609863    0.000000    1.000000
   362  Na    c    11.029203   -0.001251    6.609863    0.000000    1.000000
   363  Na    c    11.029203   -0.001251   -6.609863    0.000000    1.000000
   364  Na    c    -6.623301    4.407153    6.609863    0.000000    1.000000
   365  Na    c    -6.623301    4.407153   -6.609863    0.000000    1.000000
   366  Na    c    -6.623301   -0.001251    6.609863    0.000000    1.000000
   367  Na    c    -6.623301   -0.001251   -6.609863    0.000000    1.000000
   368  Na    c    13.227745    2.202951   -2.276486    0.000000    1.000000
   369  Na    c    13.227745    2.202951    2.276486    0.000000    1.000000
   370  Na    c    -8.821842    2.202951   -2.276486    0.000000    1.000000
   371  Na    c    -8.821842    2.202951    2.276486    0.000000    1.000000
   372  Na    c     2.202951   13.227745   -2.276486    0.000000    1.000000
   373  Na    c     2.202951   13.227745    2.276486    0.000000    1.000000
   374  Na    c     2.202951   -8.821842   -2.276486    0.000000    1.000000
   375  Na    c     2.202951   -8.821842    2.276486    0.000000    1.000000
   376  Na    c     8.815421   11.027415   -2.199894    0.000000    1.000000
   377  Na    c     8.815421   11.027415    2.199894    0.000000    1.000000
   378  Na    c     8.815421   -6.621513   -2.199894    0.000000    1.000000
   379  Na    c     8.815421   -6.621513    2.199894    0.000000    1.000000
   380  Na    c    -4.409519   11.027415   -2.199894    0.000000    1.000000
   381  Na    c    -4.409519   11.027415    2.199894    0.000000    1.000000
   382  Na    c    -4.409519   -6.621513   -2.199894    0.000000    1.000000
   383  Na    c    -4.409519   -6.621513    2.199894    0.000000    1.000000
   384  Na    c    11.027415    8.815421   -2.199894    0.000000    1.000000
   385  Na    c    11.027415    8.815421    2.199894    0.000000    1.000000
[...]
    116 y          2.202951      2.202951     0.000000    Cartesian    0.00
    116 z          6.608853      6.630110     0.021256    Cartesian    0.32
    117 x          2.202951      2.202951     0.000000    Cartesian    0.00
    117 y         15.420658     15.418125    -0.002533    Cartesian   -0.02
    117 z         11.014756     11.015167     0.000411    Cartesian    0.00
    118 x         11.014756     11.013461    -0.001294    Cartesian   -0.01
    118 y         15.420658     15.418846    -0.001812    Cartesian   -0.01
    118 z          6.608853      6.607178    -0.001675    Cartesian   -0.03
    119 x          4.405902      4.403568    -0.002334    Cartesian   -0.05
    119 y         13.217707     13.212570    -0.005137    Cartesian   -0.04
    119 z         13.217707     13.212317    -0.005390    Cartesian   -0.04
    120 x          4.405902      4.405710    -0.000192    Cartesian   -0.00
    120 y         15.420658     15.426818     0.006160    Cartesian    0.04
    120 z         11.014756     11.014604    -0.000152    Cartesian   -0.00
    121 x          8.811805      8.812932     0.001128    Cartesian    0.01
    121 y          6.608853      6.609450     0.000596    Cartesian    0.01
    121 z         15.420658     15.427783     0.007125    Cartesian    0.05
    122 x          8.811805      8.809296    -0.002509    Cartesian   -0.03
    122 y         17.623609     17.615604    -0.008006    Cartesian   -0.05
    122 z          4.405902      4.404515    -0.001387    Cartesian   -0.03
    123 x         13.217707     13.219915     0.002208    Cartesian    0.02
    123 y         15.420658     15.426334     0.005676    Cartesian    0.04
    123 z         -2.202951     -2.202666     0.000285    Cartesian   -0.01
    124 x         17.623609     17.625497     0.001888    Cartesian    0.01
    124 y          6.608853      6.610401     0.001548    Cartesian    0.02
    124 z          6.608853      6.611901     0.003047    Cartesian    0.05
    125 x          2.202951      2.202951     0.000000    Cartesian    0.00
    125 y          2.202951      2.202951     0.000000    Cartesian    0.00
    125 z         17.623609     17.623738     0.000129    Cartesian    0.00
    126 x          2.202951      2.202951     0.000000    Cartesian    0.00
    126 y         19.826560     19.846789     0.020229    Cartesian    0.10
    126 z          0.000000      0.000000     0.000000    Cartesian    0.00
    127 x          6.608853      6.607431    -0.001422    Cartesian   -0.02
    127 y         15.420658     15.418552    -0.002106    Cartesian   -0.01
    127 z         11.014756     11.012519    -0.002237    Cartesian   -0.02
    128 x          2.202951      2.202951     0.000000    Cartesian    0.00
    128 y         11.014756     11.012586    -0.002170    Cartesian   -0.02
    128 z         15.420658     15.419928    -0.000730    Cartesian   -0.00
    129 x          2.202951      2.202951     0.000000    Cartesian    0.00
    129 y         19.826560     19.827466     0.000906    Cartesian    0.00
    129 z         -2.202951     -2.200129     0.002822    Cartesian   -0.13
    130 x          4.405902      4.404926    -0.000976    Cartesian   -0.02
    130 y          4.405902      4.404926    -0.000976    Cartesian   -0.02
    130 z         17.623609     17.612643    -0.010966    Cartesian   -0.06
    131 x          4.405902      4.404363    -0.001539    Cartesian   -0.03
    131 y         17.623609     17.615807    -0.007803    Cartesian   -0.04
    131 z          8.811805      8.807314    -0.004491    Cartesian   -0.05
    132 x         13.217707     13.210779    -0.006928    Cartesian   -0.05
    132 y         13.217707     13.210779    -0.006928    Cartesian   -0.05
    132 z          8.811805      8.807310    -0.004494    Cartesian   -0.05
    133 x          4.405902      4.406238     0.000336    Cartesian    0.01
    133 y         11.014756     11.019980     0.005225    Cartesian    0.05
    133 z         15.420658     15.426988     0.006330    Cartesian    0.04
    134 x         13.217707     13.219650     0.001943    Cartesian    0.01
    134 y         11.014756     11.018645     0.003889    Cartesian    0.04
    134 z         11.014756     11.021934     0.007178    Cartesian    0.07
    135 x          4.405902      4.406468     0.000566    Cartesian    0.01
    135 y         19.826560     19.834718     0.008157    Cartesian    0.04
    135 z         -2.202951     -2.206041    -0.003090    Cartesian    0.14
    136 x         17.623609     17.626610     0.003001    Cartesian    0.02
    136 y         11.014756     11.020783     0.006027    Cartesian    0.05
    136 z         -2.202951     -2.203064    -0.000113    Cartesian    0.01
    137 x          2.202951      2.202951     0.000000    Cartesian    0.00
    137 y          2.202951      2.202951     0.000000    Cartesian    0.00
    137 z          0.000000      0.000000     0.000000    Cartesian    0.00
    138 x          2.202951      2.202951     0.000000    Cartesian    0.00
    138 y          2.202951      2.202951     0.000000    Cartesian    0.00
    138 z         -2.202951     -2.095104     0.107847    Cartesian   -4.90
    139 x          4.405902      4.356373    -0.049530    Cartesian   -1.12
    139 y          4.405902      4.356373    -0.049530    Cartesian   -1.12
    139 z          0.000000      0.000000     0.000000    Cartesian    0.00
    140 x          2.202951      2.202951     0.000000    Cartesian    0.00
    140 y          6.608853      6.631954     0.023101    Cartesian    0.35
    140 z         -2.202951     -2.209802    -0.006851    Cartesian    0.31
    141 x          4.405902      4.338908    -0.066995    Cartesian   -1.52
    141 y          4.405902      4.338908    -0.066995    Cartesian   -1.52
    141 z          4.405902      4.349238    -0.056665    Cartesian   -1.29
    142 x          2.202951      2.202951     0.000000    Cartesian    0.00
    142 y          2.202951      2.202951     0.000000    Cartesian    0.00
    142 z          6.608853      6.596085    -0.012769    Cartesian   -0.19
    143 x          6.608853      6.610013     0.001159    Cartesian    0.02
    143 y          6.608853      6.610013     0.001159    Cartesian    0.02
    143 z         -2.202951     -2.202059     0.000892    Cartesian   -0.04
    144 x          4.405902      4.402738    -0.003164    Cartesian   -0.07
    144 y          8.811805      8.787133    -0.024672    Cartesian   -0.28
    144 z          0.000000      0.000000     0.000000    Cartesian    0.00
    145 x          2.202951      2.202951     0.000000    Cartesian    0.00
    145 y          6.608853      6.621092     0.012238    Cartesian    0.19
    145 z          6.608853      6.614083     0.005230    Cartesian    0.08
    146 x          4.405902      4.403792    -0.002110    Cartesian   -0.05
    146 y          8.811805      8.796534    -0.015270    Cartesian   -0.17
    146 z          4.405902      4.398463    -0.007439    Cartesian   -0.17
    147 x          6.608853      6.604016    -0.004837    Cartesian   -0.07
    147 y          6.608853      6.604016    -0.004837    Cartesian   -0.07
    147 z          6.608853      6.603565    -0.005288    Cartesian   -0.08
    148 x          2.202951      2.202951     0.000000    Cartesian    0.00
    148 y         11.014756     11.025082     0.010326    Cartesian    0.09
    148 z         -2.202951     -2.201069     0.001882    Cartesian   -0.09
    149 x          4.405902      4.404116    -0.001786    Cartesian   -0.04
    149 y          4.405902      4.404116    -0.001786    Cartesian   -0.04
    149 z          8.811805      8.787335    -0.024469    Cartesian   -0.28
    150 x          8.811805      8.797676    -0.014128    Cartesian   -0.16
    150 y          8.811805      8.797676    -0.014128    Cartesian   -0.16
    150 z          0.000000      0.000000     0.000000    Cartesian    0.00
    151 x          6.608853      6.609785     0.000932    Cartesian    0.01
    151 y         11.014756     11.017740     0.002985    Cartesian    0.03
    151 z         -2.202951     -2.202697     0.000254    Cartesian   -0.01
    152 x          8.811805      8.798531    -0.013274    Cartesian   -0.15
    152 y          8.811805      8.798531    -0.013274    Cartesian   -0.15
    152 z          4.405902      4.397939    -0.007963    Cartesian   -0.18
    153 x          2.202951      2.202951     0.000000    Cartesian    0.00
    153 y          2.202951      2.202951     0.000000    Cartesian    0.00
    153 z         11.014756     11.015548     0.000793    Cartesian    0.01
    154 x          2.202951      2.202951     0.000000    Cartesian    0.00
    154 y         11.014756     11.017369     0.002614    Cartesian    0.02
    154 z          6.608853      6.610884     0.002031    Cartesian    0.03
    155 x          4.405902      4.402866    -0.003037    Cartesian   -0.07
    155 y          8.811805      8.801702    -0.010103    Cartesian   -0.11
    155 z          8.811805      8.800437    -0.011367    Cartesian   -0.13
    156 x          4.405902      4.405927     0.000025    Cartesian    0.00
    156 y         13.217707     13.209140    -0.008567    Cartesian   -0.06
    156 z          0.000000      0.000000     0.000000    Cartesian    0.00
    157 x          2.202951      2.202951     0.000000    Cartesian    0.00
    157 y          6.608853      6.606060    -0.002794    Cartesian   -0.04
    157 z         11.014756     11.013754    -0.001002    Cartesian   -0.01
    158 x          6.608853      6.608899     0.000046    Cartesian    0.00
    158 y         11.014756     11.014934     0.000178    Cartesian    0.00
    158 z          6.608853      6.608436    -0.000417    Cartesian   -0.01
    159 x          4.405902      4.404998    -0.000904    Cartesian   -0.02
    159 y         13.217707     13.207774    -0.009933    Cartesian   -0.08
    159 z          4.405902      4.402868    -0.003034    Cartesian   -0.07
    160 x          6.608853      6.609033     0.000179    Cartesian    0.00
    160 y          6.608853      6.609033     0.000179    Cartesian    0.00
    160 z         11.014756     11.014416    -0.000340    Cartesian   -0.00
    161 x         11.014756     11.015760     0.001004    Cartesian    0.01
    161 y         11.014756     11.015760     0.001004    Cartesian    0.01
    161 z         -2.202951     -2.202282     0.000669    Cartesian   -0.03
    162 x          8.811805      8.802341    -0.009464    Cartesian   -0.11
    162 y          8.811805      8.802341    -0.009464    Cartesian   -0.11
    162 z          8.811805      8.801818    -0.009986    Cartesian   -0.11
    163 x          8.811805      8.808695    -0.003110    Cartesian   -0.04
    163 y         13.217707     13.209280    -0.008427    Cartesian   -0.06
    163 z          0.000000      0.000000     0.000000    Cartesian    0.00
    164 x          2.202951      2.202951     0.000000    Cartesian    0.00
    164 y         15.420658     15.423504     0.002846    Cartesian    0.02
    164 z         -2.202951     -2.205258    -0.002307    Cartesian    0.10
    165 x          8.811805      8.807477    -0.004328    Cartesian   -0.05
    165 y         13.217707     13.209097    -0.008610    Cartesian   -0.07
    165 z          4.405902      4.402164    -0.003739    Cartesian   -0.08
    166 x          4.405902      4.403770    -0.002133    Cartesian   -0.05
    166 y          4.405902      4.403770    -0.002133    Cartesian   -0.05
    166 z         13.217707     13.206469    -0.011238    Cartesian   -0.09
    167 x          6.608853      6.609275     0.000422    Cartesian    0.01
    167 y         15.420658     15.422320     0.001662    Cartesian    0.01
    167 z         -2.202951     -2.202639     0.000312    Cartesian   -0.01
    168 x          2.202951      2.202951     0.000000    Cartesian    0.00
    168 y         11.014756     11.016825     0.002070    Cartesian    0.02
    168 z         11.014756     11.014187    -0.000569    Cartesian   -0.01
    169 x         11.014756     11.013303    -0.001453    Cartesian   -0.01
    169 y         11.014756     11.013303    -0.001453    Cartesian   -0.01
    169 z          6.608853      6.608285    -0.000569    Cartesian   -0.01
    170 x          4.405902      4.404294    -0.001609    Cartesian   -0.04
    170 y         13.217707     13.209158    -0.008549    Cartesian   -0.06
    170 z          8.811805      8.806079    -0.005726    Cartesian   -0.06
    171 x          6.608853      6.608661    -0.000193    Cartesian   -0.00
    171 y         11.014756     11.013945    -0.000810    Cartesian   -0.01
    171 z         11.014756     11.014445    -0.000311    Cartesian   -0.00
    172 x          2.202951      2.202951     0.000000    Cartesian    0.00
    172 y         15.420658     15.423538     0.002880    Cartesian    0.02
    172 z          6.608853      6.605506    -0.003347    Cartesian   -0.05
    173 x          4.405902      4.405563    -0.000339    Cartesian   -0.01
    173 y          8.811805      8.807387    -0.004418    Cartesian   -0.05
    173 z         13.217707     13.209026    -0.008681    Cartesian   -0.07
    174 x          2.202951      2.202951     0.000000    Cartesian    0.00
    174 y          2.202951      2.202951     0.000000    Cartesian    0.00
    174 z         15.420658     15.418958    -0.001700    Cartesian   -0.01
    175 x          6.608853      6.609186     0.000332    Cartesian    0.01
    175 y         15.420658     15.420721     0.000063    Cartesian    0.00
    175 z          6.608853      6.608981     0.000127    Cartesian    0.00
    176 x          4.405902      4.406233     0.000330    Cartesian    0.01
    176 y         17.623609     17.617286    -0.006323    Cartesian   -0.04
    176 z          0.000000      0.000000     0.000000    Cartesian    0.00
    177 x          8.811805      8.807569    -0.004236    Cartesian   -0.05
    177 y         13.217707     13.211068    -0.006639    Cartesian   -0.05
    177 z          8.811805      8.807471    -0.004334    Cartesian   -0.05
    178 x         13.217707     13.213057    -0.004650    Cartesian   -0.04
    178 y         13.217707     13.213057    -0.004650    Cartesian   -0.04
    178 z          0.000000      0.000000     0.000000    Cartesian    0.00
    179 x          2.202951      2.202951     0.000000    Cartesian    0.00
    179 y          6.608853      6.610614     0.001761    Cartesian    0.03
    179 z         15.420658     15.419762    -0.000896    Cartesian   -0.01
    180 x         11.014756     11.016110     0.001354    Cartesian    0.01
    180 y         15.420658     15.422145     0.001487    Cartesian    0.01
    180 z         -2.202951     -2.203110    -0.000159    Cartesian    0.01
    181 x          4.405902      4.406449     0.000547    Cartesian    0.01
    181 y         17.623609     17.617010    -0.006600    Cartesian   -0.04
    181 z          4.405902      4.404531    -0.001371    Cartesian   -0.03
    182 x          8.811805      8.808828    -0.002977    Cartesian   -0.03
    182 y          8.811805      8.808828    -0.002977    Cartesian   -0.03
    182 z         13.217707     13.210924    -0.006783    Cartesian   -0.05
    183 x         13.217707     13.212875    -0.004832    Cartesian   -0.04
    183 y         13.217707     13.212875    -0.004832    Cartesian   -0.04
    183 z          4.405902      4.403951    -0.001952    Cartesian   -0.04
    184 x          6.608853      6.609094     0.000241    Cartesian    0.00
    184 y          6.608853      6.609094     0.000241    Cartesian    0.00
    184 z         15.420658     15.420099    -0.000559    Cartesian   -0.00
    185 x         11.014756     11.014791     0.000035    Cartesian    0.00
    185 y         11.014756     11.014791     0.000035    Cartesian    0.00
    185 z         11.014756     11.014504    -0.000252    Cartesian   -0.00
    186 x          8.811805      8.809032    -0.002773    Cartesian   -0.03
    186 y         17.623609     17.615776    -0.007833    Cartesian   -0.04
    186 z          0.000000      0.000000     0.000000    Cartesian    0.00
    187 x          2.202951      2.202951     0.000000    Cartesian    0.00
    187 y         15.420658     15.418117    -0.002541    Cartesian   -0.02
    187 z         11.014756     11.015174     0.000418    Cartesian    0.00
    188 x         11.014756     11.013460    -0.001296    Cartesian   -0.01
    188 y         15.420658     15.418845    -0.001813    Cartesian   -0.01
    188 z          6.608853      6.607175    -0.001678    Cartesian   -0.03
    189 x          4.405902      4.403076    -0.002826    Cartesian   -0.06
    189 y         13.217707     13.212047    -0.005660    Cartesian   -0.04
    189 z         13.217707     13.211185    -0.006522    Cartesian   -0.05
    190 x          8.811805      8.808910    -0.002894    Cartesian   -0.03
    190 y         17.623609     17.614351    -0.009258    Cartesian   -0.05
    190 z          4.405902      4.404323    -0.001579    Cartesian   -0.04
    191 x          6.608853      6.607429    -0.001425    Cartesian   -0.02
    191 y         15.420658     15.418550    -0.002108    Cartesian   -0.01
    191 z         11.014756     11.012515    -0.002240    Cartesian   -0.02
    192 x          2.202951      2.202951     0.000000    Cartesian    0.00
    192 y         11.014756     11.012581    -0.002175    Cartesian   -0.02
    192 z         15.420658     15.419929    -0.000729    Cartesian   -0.00
    193 x          2.202951      2.202951     0.000000    Cartesian    0.00
    193 y         19.826560     19.827469     0.000909    Cartesian    0.00
    193 z         -2.202951     -2.200120     0.002831    Cartesian   -0.13
    194 x          4.405902      4.404815    -0.001087    Cartesian   -0.02
    194 y          4.405902      4.404815    -0.001087    Cartesian   -0.02
    194 z         17.623609     17.611302    -0.012307    Cartesian   -0.07
    195 x          4.405902      4.404191    -0.001712    Cartesian   -0.04
    195 y         17.623609     17.615003    -0.008607    Cartesian   -0.05
    195 z          8.811805      8.806426    -0.005378    Cartesian   -0.06
    196 x         13.217707     13.209788    -0.007919    Cartesian   -0.06
    196 y         13.217707     13.209788    -0.007919    Cartesian   -0.06
    196 z          8.811805      8.806714    -0.005090    Cartesian   -0.06
--------------------------------------------------------------------------------


  Time to end of optimisation  =       44.3385 seconds


  Peak dynamic memory used =     694.00 MB 


  Timing analysis for GULP :

--------------------------------------------------------------------------------
  Task / Subroutine                                          Time (Seconds)
--------------------------------------------------------------------------------
  Calculation of reciprocal space energy and derivatives          0.0010
  Calculation of reciprocal space energy using symmetry           0.0014
  Calculation of real space energy and derivatives                0.0045
  Calculation of real space energy using symmetry                 0.0144
  Calculation for region 1 energy and derivatives (2-b)          28.5155
  Calculation for region 2a energy                               13.1222
  Calculation for region 2b energy                                0.0003
  Calculation and manipulation of Hessian matrix                  1.7418
  Calculation of matrix inversion                                 0.0906
  Symmetry generation of equivalent positions                     0.0060
--------------------------------------------------------------------------------
  Total CPU time                                                 44.3386
--------------------------------------------------------------------------------


  Dump file written as Na3OCl.grs


  Job Finished at 13:18.12  2nd February   2021                               

