********************************************************************************
*                       GENERAL UTILITY LATTICE PROGRAM                        *
*                                 Julian Gale                                  *
*                       Curtin Institute for Computation                       *
*                    School of Molecular and Life Sciences                     *
*                    Curtin University, Western Australia                      *
********************************************************************************
* Version = 5.2.0 * Last modified =  10th September 2020                       *
********************************************************************************
*  optimise     - perform optimisation run                                     *
*  conp         - constant pressure calculation                                *
*  property     - calculate properties for final geometry                      *
*  defect       - perform defect calculation after bulk run                    *
*  compare      - compare initial and final structures                         *
********************************************************************************

  Job Started  at 20:37.45 30th November   2020                               

  Number of CPUs =     1


  Total number of configurations input =      1

********************************************************************************
*  Input for Configuration =   1                                               *
********************************************************************************

  Formula = ClONa3                                                      

  Number of irreducible atoms/shells =       5


  Total number atoms/shells =       7

  Dimensionality = 3               :  Bulk   


  Symmetry :

  Crystal family                   :  Cubic       
  Crystal class  (Groth - 1921)    :  Cubic Hexakisoctahedral              

  Space group (centrosymmetric)    :  P M 3 M         

  Patterson group                  :  P m -3 m 

  Cartesian lattice vectors (Angstroms) :

        4.504000    0.000000    0.000000
        0.000000    4.504000    0.000000
        0.000000    0.000000    4.504000

  Cell parameters (Angstroms/Degrees):

  a =       4.5040    alpha =  90.0000
  b =       4.5040    beta  =  90.0000
  c =       4.5040    gamma =  90.0000

  Initial cell volume =          91.368216 Angs**3

  Temperature of configuration =   0.00     K 

  Pressure of configuration =         0.000 GPa 

  Fractional coordinates of asymmetric unit :

--------------------------------------------------------------------------------
   No.  Atomic       x           y          z         Charge      Occupancy
        Label      (Frac)      (Frac)     (Frac)        (e)         (Frac)  
--------------------------------------------------------------------------------
      1 Cl    c    0.000000    0.000000    0.000000     1.48500    1.000000    
      2 O     c    0.500000    0.500000    0.500000     0.18300    1.000000    
      3 Na    c    0.500000    0.500000    0.000000     1.00000    1.000000    
      4 Cl    s    0.000000    0.000000    0.000000    -2.48500    1.000000    
      5 O     s    0.500000    0.500000    0.500000    -2.18300    1.000000    
--------------------------------------------------------------------------------


  Constraints : 

--------------------------------------------------------------------------------
  Constraint no.      Unconstrained     Constrained    Coefficient    Offset
                         Variable         Variable
--------------------------------------------------------------------------------
           1              Strain 1        Strain 2       1.00000      0.0000
           2              Strain 1        Strain 3       1.00000      0.0000
--------------------------------------------------------------------------------


********************************************************************************
*  General input information                                                   *
********************************************************************************

  Species output for all configurations : 

--------------------------------------------------------------------------------
  Species    Type    Atomic    Atomic    Charge       Radii (Angs)     Library
                     Number     Mass       (e)     Cova   Ionic  VDW   Symbol
--------------------------------------------------------------------------------
    Na       Core       11      22.99   1.000000   0.970  0.000  2.300          
    O        Core        8      16.00   0.183000   0.730  0.000  1.360          
    O        Shell       8       0.00  -2.183000   0.730  0.000  1.360          
    Cl       Core       17      35.45   1.485000   0.990  0.000  1.650          
    Cl       Shell      17       0.00  -2.485000   0.990  0.000  1.650          
    Mg       Core       12      24.31   0.415000   1.100  0.000  0.000          
    Mg       Shell      12       0.00   1.585000   1.100  0.000  0.000          
    Ca       Core       20      40.08  -1.135000   0.990  0.000  0.000          
    Ca       Shell      20       0.00   3.135000   0.990  0.000  0.000          
    Sr       Core       38      87.62  -1.251000   1.120  0.000  0.000          
    Sr       Shell      38       0.00   3.251000   1.120  0.000  0.000          
    Ba       Core       56     137.33  -7.203000   1.340  0.000  0.000          
    Ba       Shell      56       0.00   9.203000   1.340  0.000  0.000          
--------------------------------------------------------------------------------


  Lattice summation method               =    Ewald          (3-D)
                                         =    Parry          (2-D)
                                         =    Saunders et al (1-D)
  Accuracy factor for lattice sums       =   12.000


  Analytic derivatives to be used

  Time limit = Infinity

  Maximum range for interatomic potentials =    100000.000000 Angstroms

  General interatomic potentials :

--------------------------------------------------------------------------------
Atom  Types   Potential      Parameter       Value         Units   Cutoffs(Ang)
  1     2                                                            Min /  Max 
--------------------------------------------------------------------------------
O    c O    s Spring (c-s)  Spring k 2       593.71600    eV*Ang^-2 0.000  0.800
                            Spring k 4       0.0000000    eV*Ang^-4 
--------------------------------------------------------------------------------
Cl   c Cl   s Spring (c-s)  Spring k 2       29.380000    eV*Ang^-2 0.000  0.800
                            Spring k 4       0.0000000    eV*Ang^-4 
--------------------------------------------------------------------------------
Mg   c Mg   s Spring (c-s)  Spring k 2       361.60000    eV*Ang^-2 0.000  0.800
                            Spring k 4       0.0000000    eV*Ang^-4 
--------------------------------------------------------------------------------
Ca   c Ca   s Spring (c-s)  Spring k 2       110.20000    eV*Ang^-2 0.000  0.800
                            Spring k 4       0.0000000    eV*Ang^-4 
--------------------------------------------------------------------------------
Sr   c Sr   s Spring (c-s)  Spring k 2       71.700000    eV*Ang^-2 0.000  0.800
                            Spring k 4       0.0000000    eV*Ang^-4 
--------------------------------------------------------------------------------
Ba   c Ba   s Spring (c-s)  Spring k 2       495.20000    eV*Ang^-2 0.000  0.800
                            Spring k 4       0.0000000    eV*Ang^-4 
--------------------------------------------------------------------------------
Na   c Na   c Buckingham    Buckingham A     1788.1900    eV        0.000 12.000
                            Buckingham rho  0.15900000    Ang       
                            Buckingham C     0.0000000    eV*Ang^6  
--------------------------------------------------------------------------------
Na   c O    s Buckingham    Buckingham A     1226.8400    eV        0.000 12.000
                            Buckingham rho  0.30700000    Ang       
                            Buckingham C     0.0000000    eV*Ang^6  
--------------------------------------------------------------------------------
Na   c Cl   s Buckingham    Buckingham A     2314.7000    eV        0.000 12.000
                            Buckingham rho  0.29000000    Ang       
                            Buckingham C     0.0000000    eV*Ang^6  
--------------------------------------------------------------------------------
O    s O    s Buckingham    Buckingham A     22764.300    eV        0.000 12.000
                            Buckingham rho  0.14900000    Ang       
                            Buckingham C     13.190000    eV*Ang^6  
--------------------------------------------------------------------------------
O    s Cl   s Buckingham    Buckingham A     8286.9100    eV        0.000 12.000
                            Buckingham rho  0.25900000    Ang       
                            Buckingham C     62.200000    eV*Ang^6  
--------------------------------------------------------------------------------
Cl   s Cl   s Buckingham    Buckingham A     1227.2000    eV        0.000 12.000
                            Buckingham rho  0.32100000    Ang       
                            Buckingham C     14.530000    eV*Ang^6  
--------------------------------------------------------------------------------
O    s Mg   s Buckingham    Buckingham A     1428.5000    eV        0.000 12.000
                            Buckingham rho  0.29450000    Ang       
                            Buckingham C     0.0000000    eV*Ang^6  
--------------------------------------------------------------------------------
Mg   s Cl   s Buckingham    Buckingham A     4914.5400    eV        0.000 12.000
                            Buckingham rho  0.25700000    Ang       
                            Buckingham C     0.0000000    eV*Ang^6  
--------------------------------------------------------------------------------
O    s Ca   s Buckingham    Buckingham A     1090.4000    eV        0.000 12.000
                            Buckingham rho  0.34370000    Ang       
                            Buckingham C     0.0000000    eV*Ang^6  
--------------------------------------------------------------------------------
Cl   s Ca   s Buckingham    Buckingham A     2302.0000    eV        0.000 12.000
                            Buckingham rho  0.34020000    Ang       
                            Buckingham C     0.0000000    eV*Ang^6  
--------------------------------------------------------------------------------
O    s Sr   s Buckingham    Buckingham A     959.10000    eV        0.000 12.000
                            Buckingham rho  0.37210000    Ang       
                            Buckingham C     0.0000000    eV*Ang^6  
--------------------------------------------------------------------------------
Cl   s Sr   s Buckingham    Buckingham A     2191.0900    eV        0.000 12.000
                            Buckingham rho  0.34570000    Ang       
                            Buckingham C     0.0000000    eV*Ang^6  
--------------------------------------------------------------------------------
O    s Ba   s Buckingham    Buckingham A     905.70000    eV        0.000 12.000
                            Buckingham rho  0.39760000    Ang       
                            Buckingham C     0.0000000    eV*Ang^6  
--------------------------------------------------------------------------------
Cl   s Ba   s Buckingham    Buckingham A     2704.5500    eV        0.000 12.000
                            Buckingham rho  0.35280000    Ang       
                            Buckingham C     0.0000000    eV*Ang^6  
--------------------------------------------------------------------------------

********************************************************************************
*  Output for configuration   1                                                *
********************************************************************************


  Components of energy : 

--------------------------------------------------------------------------------
  Interatomic potentials     =           5.13022605 eV    
  Monopole - monopole (real) =         -10.03624526 eV    
  Monopole - monopole (recip)=         -29.53581274 eV    
  Monopole - monopole (total)=         -39.57205800 eV    
--------------------------------------------------------------------------------
  Total lattice energy       =         -34.44183194 eV    
--------------------------------------------------------------------------------
  Total lattice energy       =           -3323.1103 kJ/(mole unit cells)
--------------------------------------------------------------------------------


  Number of variables =        1

  Maximum number of calculations  =          1000
  Maximum Hessian update interval =            10
  Maximum step size               =   1.000000000
  Maximum parameter tolerance     =   0.000010000
  Maximum function  tolerance     =   0.000010000
  Maximum gradient  tolerance     =   0.001000000
  Maximum gradient  component     =   0.010000000

  Symmetry constrained optimisation

  Symmetry used for second derivatives

  Cell parameters to be optimised using strains

  Newton-Raphson optimiser to be used

  BFGS hessian update to be used

  Lower half triangular hessian to be used

  Start of bulk optimisation :

  Cycle:      0 Energy:       -34.441832  Gnorm:      0.196570  CPU:    0.008
  ** Hessian calculated **
  Cycle:      1 Energy:       -34.441914  Gnorm:      0.000103  CPU:    0.010


  **** Optimisation achieved ****


  Final energy =     -34.44191447 eV
  Final Gnorm  =       0.00000000

  Components of energy : 

--------------------------------------------------------------------------------
  Interatomic potentials     =           5.09689708 eV    
  Monopole - monopole (real) =         -10.02781331 eV    
  Monopole - monopole (recip)=         -29.51099824 eV    
  Monopole - monopole (total)=         -39.53881155 eV    
--------------------------------------------------------------------------------
  Total lattice energy       =         -34.44191447 eV    
--------------------------------------------------------------------------------
  Total lattice energy       =           -3323.1183 kJ/(mole unit cells)
--------------------------------------------------------------------------------

  Final asymmetric unit coordinates :

--------------------------------------------------------------------------------
   No.  Atomic        x           y           z         Radius
        Label       (Frac)      (Frac)      (Frac)       (Angs) 
--------------------------------------------------------------------------------
     1  Cl    c     0.000000    0.000000    0.000000    0.000000
     2  O     c     0.500000    0.500000    0.500000    0.000000
     3  Na    c     0.500000    0.500000    0.000000    0.000000
     4  Cl    s     0.000000    0.000000    0.000000    0.000000
     5  O     s     0.500000    0.500000    0.500000    0.000000
--------------------------------------------------------------------------------

  Final Cartesian lattice vectors (Angstroms) :

        4.507787    0.000000    0.000000
        0.000000    4.507787    0.000000
        0.000000    0.000000    4.507787


  Final cell parameters and derivatives :

--------------------------------------------------------------------------------
       a            4.507787 Angstrom     dE/de1(xx)     0.000000 eV/strain
       b            4.507787 Angstrom     dE/de2(yy)     0.000000 eV/strain
       c            4.507787 Angstrom     dE/de3(zz)     0.000000 eV/strain
       alpha       90.000000 Degrees      dE/de4(yz)     0.000000 eV/strain
       beta        90.000000 Degrees      dE/de5(xz)     0.000000 eV/strain
       gamma       90.000000 Degrees      dE/de6(xy)     0.000000 eV/strain
--------------------------------------------------------------------------------

  Primitive cell volume =            91.598892 Angs**3

  Density of cell =      2.183054 g/cm**3

  Non-primitive cell volume =            91.598892 Angs**3


  Final internal derivatives :

--------------------------------------------------------------------------------
   No.  Atomic          a             b             c           Radius
        Label          (eV)          (eV)          (eV)        (eV/Angs)
--------------------------------------------------------------------------------
      1 Cl    c       0.000000      0.000000      0.000000      0.000000
      2 O     c       0.000000      0.000000      0.000000      0.000000
      3 Na    c       0.000000      0.000000      0.000000      0.000000
      4 Cl    s       0.000000      0.000000      0.000000      0.000000
      5 O     s       0.000000      0.000000      0.000000      0.000000
--------------------------------------------------------------------------------
  Maximum abs         0.000000      0.000000      0.000000      0.000000
--------------------------------------------------------------------------------

  Comparison of initial and final structures : 

--------------------------------------------------------------------------------
  Parameter   Initial value   Final value   Difference    Units      Percent
--------------------------------------------------------------------------------
    Volume        91.368216     91.598892     0.230676    Angs**3      0.25
    a              4.504000      4.507787     0.003787    Angstroms    0.08
    b              4.504000      4.507787     0.003787    Angstroms    0.08
    c              4.504000      4.507787     0.003787    Angstroms    0.08
    alpha         90.000000     90.000000     0.000000    Degrees      0.00
    beta          90.000000     90.000000     0.000000    Degrees      0.00
    gamma         90.000000     90.000000     0.000000    Degrees      0.00
      1 x          0.000000      0.000000     0.000000    Fractional   0.00
      1 y          0.000000      0.000000     0.000000    Fractional   0.00
      1 z          0.000000      0.000000     0.000000    Fractional   0.00
      2 x          0.500000      0.500000     0.000000    Fractional   0.00
      2 y          0.500000      0.500000     0.000000    Fractional   0.00
      2 z          0.500000      0.500000     0.000000    Fractional   0.00
      3 x          0.500000      0.500000     0.000000    Fractional   0.00
      3 y          0.500000      0.500000     0.000000    Fractional   0.00
      3 z          0.000000      0.000000     0.000000    Fractional   0.00
      4 x          0.000000      0.000000     0.000000    Fractional   0.00
      4 y          0.000000      0.000000     0.000000    Fractional   0.00
      4 z          0.000000      0.000000     0.000000    Fractional   0.00
      5 x          0.500000      0.500000     0.000000    Fractional   0.00
      5 y          0.500000      0.500000     0.000000    Fractional   0.00
      5 z          0.500000      0.500000     0.000000    Fractional   0.00
--------------------------------------------------------------------------------


  Born effective charge tensors : 

-------------------------------------------------------------------------------
  Atom             x           y             z
-------------------------------------------------------------------------------
    1 Cl    x      -1.0181     -0.0000      0.0000
            y      -0.0000     -1.0181      0.0000
            z       0.0000      0.0000     -1.0181
-------------------------------------------------------------------------------
    2 O     x      -2.2647      0.0000     -0.0000
            y       0.0000     -2.2647     -0.0000
            z      -0.0000     -0.0000     -2.2647
-------------------------------------------------------------------------------
    3 Na    x       1.2258     -0.0000      0.0000
            y      -0.0000      1.2258     -0.0000
            z       0.0000     -0.0000      0.8313
-------------------------------------------------------------------------------




  Elastic Constant Matrix: (Units=GPa)

-------------------------------------------------------------------------------
  Indices      1         2         3         4         5         6    
-------------------------------------------------------------------------------
       1     95.8177   20.0737   20.0737   -0.0000   -0.0000    0.0000
       2     20.0737   95.8177   20.0737   -0.0000   -0.0000    0.0000
       3     20.0737   20.0737   95.8177   -0.0000   -0.0000    0.0000
       4     -0.0000   -0.0000   -0.0000   20.0737   -0.0000    0.0000
       5     -0.0000   -0.0000   -0.0000   -0.0000   20.0737    0.0000
       6      0.0000    0.0000    0.0000    0.0000    0.0000   20.0737
-------------------------------------------------------------------------------


  Elastic Compliance Matrix: (Units=1/GPa)

-------------------------------------------------------------------------------
  Indices      1         2         3         4         5         6    
-------------------------------------------------------------------------------
       1    0.011253 -0.001949 -0.001949  0.000000  0.000000 -0.000000
       2   -0.001949  0.011253 -0.001949  0.000000  0.000000  0.000000
       3   -0.001949 -0.001949  0.011253  0.000000  0.000000 -0.000000
       4    0.000000  0.000000  0.000000  0.049816  0.000000 -0.000000
       5    0.000000  0.000000  0.000000  0.000000  0.049816 -0.000000
       6   -0.000000  0.000000 -0.000000 -0.000000 -0.000000  0.049816
-------------------------------------------------------------------------------

  Mechanical properties :

-------------------------------------------------------------------------------
  Convention :                    Reuss         Voigt         Hill
-------------------------------------------------------------------------------
  Bulk  Modulus (GPa)     =      45.32174      45.32174      45.32174
  Shear Modulus (GPa)     =      24.72085      27.19304      25.95695
-------------------------------------------------------------------------------
  Velocity S-wave (km/s)  =       3.36511       3.52937       3.44822
  Velocity P-wave (km/s)  =       5.98827       6.11304       6.05098
-------------------------------------------------------------------------------
  Compressibility (1/GPa) =    0.02206447
-------------------------------------------------------------------------------
  Stress axis :                     x             y             z
-------------------------------------------------------------------------------
  Youngs Moduli (GPa)     =      88.86373      88.86373      88.86373
-------------------------------------------------------------------------------
  Poissons Ratio (x)      =                     0.17321       0.17321
  Poissons Ratio (y)      =       0.17321                     0.17321
  Poissons Ratio (z)      =       0.17321       0.17321
-------------------------------------------------------------------------------


  Piezoelectric Strain Matrix: (Units=C/m**2)

-------------------------------------------------------------------------------
  Indices      1         2         3         4         5         6    
-------------------------------------------------------------------------------
       x    -0.00000  -0.00000  -0.00000   0.00000  -0.00000  -0.00000
       y    -0.00000  -0.00000   0.00000  -0.00000   0.00000   0.00000
       z    -0.00000  -0.00000  -0.00000  -0.00000   0.00000   0.00000
-------------------------------------------------------------------------------


  Piezoelectric Stress Matrix: (Units=10**-11 C/N)

-------------------------------------------------------------------------------
  Indices      1         2         3         4         5         6    
-------------------------------------------------------------------------------
       x    -0.00000   0.00000   0.00000   0.00000  -0.00000  -0.00000
       y    -0.00000  -0.00000   0.00000  -0.00000   0.00000   0.00000
       z     0.00000   0.00000  -0.00000  -0.00000   0.00000   0.00000
-------------------------------------------------------------------------------


  Static dielectric constant tensor : 

-------------------------------------------------------------------------------
              x         y         z
-------------------------------------------------------------------------------
       x    22.84729   0.00000   0.00000
       y     0.00000  22.84729  -0.00000
       z     0.00000  -0.00000  22.84729
--------------------------------------------------------------------------------

  High frequency dielectric constant tensor : 

-------------------------------------------------------------------------------
              x         y         z
-------------------------------------------------------------------------------
       x     1.47557   0.00000  -0.00000
       y     0.00000   1.47557  -0.00000
       z    -0.00000  -0.00000   1.47557
-------------------------------------------------------------------------------

  Static refractive indices : 

-------------------------------------------------------------------------------
    1 =    4.77988      2 =    4.77988      3 =    4.77988
-------------------------------------------------------------------------------

  High frequency refractive indices : 

-------------------------------------------------------------------------------
    1 =    1.21473      2 =    1.21473      3 =    1.21473
-------------------------------------------------------------------------------


  Time to end of optimisation =       0.0154 seconds

********************************************************************************
*  Defect calculation for configuration   1 :                                  *
********************************************************************************

  Total number of defects =      3

  Total charge on defect  =  -1.00

  Defect centre is at   0.5000   0.1100   0.3900  Frac

  Region 1 radius =  16.0000      Number of ions =   1309

  Number of symmetry inequivalent region 1 ions  =    733

  Region 2 radius =  20.0000      Number of ions =   1253

  Number of symmetry inequivalent region 2a ions =    672

  Region 2a mode = 4 : screened electrostatics due to region 1 
                       neglect correction to region 1 forces from 2a
                       region 2a displacements based on defects only

  Region 2a ions will only interact with defects in region 1

  Vacancies:

--------------------------------------------------------------------------------
    Specification type     Symbol/Number         x          y          z
--------------------------------------------------------------------------------
    Fractional                               0.500000   0.500000   0.000000
    Fractional                               0.500000   0.000000   0.500000
--------------------------------------------------------------------------------

  Interstitials:

--------------------------------------------------------------------------------
    Specification type     Symbol/Number         x          y          z
--------------------------------------------------------------------------------
    Atom/Fractional         Na               0.500000   0.110000   0.390000
--------------------------------------------------------------------------------


  Symmetry reduced region 1 (Relative to defect centre) :

--------------------------------------------------------------------------------
   No.   Atomic       x            y             z       Radius  Multiplicity   
         Label      (Angs)       (Angs)        (Angs)    (Angs)     
--------------------------------------------------------------------------------
     1  Na    c      0.0000       0.0000       0.0000    0.0000     1    Defect
     2  O     c      0.0000       1.7580 *     0.4959 *  0.0000     1          
     3  O     c      0.0000      -2.7498 *     0.4959 *  0.0000     1          
     4  Cl    c      2.2539 *    -0.4959 *    -1.7580 *  0.0000     2          
     5  Na    c      2.2539 *     1.7580 *     0.4959 *  0.0000     2          
     6  Na    c      0.0000       1.7580 *     2.7498 *  0.0000     1          
     7  Na    c      0.0000      -2.7498 *    -1.7580 *  0.0000     1          
     8  Cl    c      2.2539 *    -0.4959 *     2.7498 *  0.0000     2          
     9  Na    c      2.2539 *    -2.7498 *     0.4959 *  0.0000     2          
    10  Na    c      0.0000      -2.7498 *     2.7498 *  0.0000     1          
    11  Na    c      0.0000      -0.4959 *    -4.0119 *  0.0000     1          
    12  Na    c      0.0000       4.0119 *     0.4959 *  0.0000     1          
    13  O     c      0.0000       1.7580 *    -4.0119 *  0.0000     1          
    14  Na    c     -4.5078 *    -0.4959 *     0.4959 *  0.0000     2          
    15  O     c      0.0000      -2.7498 *    -4.0119 *  0.0000     1          
    16  O     c     -4.5078 *     1.7580 *     0.4959 *  0.0000     2          
    17  Cl    c      2.2539 *     4.0119 *    -1.7580 *  0.0000     2          
    18  Na    c      2.2539 *     1.7580 *    -4.0119 *  0.0000     2          
    19  Na    c      0.0000      -0.4959 *     5.0036 *  0.0000     1          
    20  Na    c      0.0000      -5.0036 *     0.4959 *  0.0000     1          
    21  Na    c     -4.5078 *     1.7580 *    -1.7580 *  0.0000     2          
    22  O     c     -4.5078 *    -2.7498 *     0.4959 *  0.0000     2          
    23  O     c      0.0000       1.7580 *     5.0036 *  0.0000     1          
    24  Cl    c      2.2539 *     4.0119 *     2.7498 *  0.0000     2          
    25  Na    c      2.2539 *    -2.7498 *    -4.0119 *  0.0000     2          
    26  Na    c     -4.5078 *    -2.7498 *    -1.7580 *  0.0000     2          
    27  Na    c     -4.5078 *     1.7580 *     2.7498 *  0.0000     2          
    28  Na    c      0.0000       4.0119 *    -4.0119 *  0.0000     1          
    29  O     c      0.0000      -2.7498 *     5.0036 *  0.0000     1          
    30  Cl    c      2.2539 *    -5.0036 *    -1.7580 *  0.0000     2          
    31  Na    c      2.2539 *     1.7580 *     5.0036 *  0.0000     2          
    32  Na    c      4.5078 *    -2.7498 *     2.7498 *  0.0000     2          
    33  Na    c     -4.5078 *    -0.4959 *    -4.0119 *  0.0000     2          
    34  Na    c     -4.5078 *     4.0119 *     0.4959 *  0.0000     2          
    35  Cl    c      2.2539 *    -5.0036 *     2.7498 *  0.0000     2          
    36  Na    c      2.2539 *    -2.7498 *     5.0036 *  0.0000     2          
    37  O     c      0.0000       6.2658 *     0.4959 *  0.0000     1          
    38  O     c     -4.5078 *     1.7580 *    -4.0119 *  0.0000     2          
    39  Na    c      0.0000       4.0119 *     5.0036 *  0.0000     1          
    40  Na    c      0.0000      -5.0036 *    -4.0119 *  0.0000     1          
    41  Na    c      0.0000       6.2658 *    -1.7580 *  0.0000     1          
    42  Na    c      0.0000       1.7580 *    -6.2658 *  0.0000     1          
    43  O     c     -4.5078 *    -2.7498 *    -4.0119 *  0.0000     2          
    44  Na    c      2.2539 *     6.2658 *     0.4959 *  0.0000     2          
    45  Cl    c      2.2539 *    -0.4959 *    -6.2658 *  0.0000     2          
    46  Na    c     -4.5078 *    -0.4959 *     5.0036 *  0.0000     2          
    47  Na    c     -4.5078 *    -5.0036 *     0.4959 *  0.0000     2          
    48  Na    c      0.0000       6.2658 *     2.7498 *  0.0000     1          
    49  Na    c      0.0000      -2.7498 *    -6.2658 *  0.0000     1          
    50  O     c     -4.5078 *     1.7580 *     5.0036 *  0.0000     2          
    51  Cl    c      6.7617 *    -0.4959 *    -1.7580 *  0.0000     2          
    52  Na    c      6.7617 *     1.7580 *     0.4959 *  0.0000     2          
    53  Na    c      0.0000      -5.0036 *     5.0036 *  0.0000     1          
    54  Na    c     -4.5078 *     4.0119 *    -4.0119 *  0.0000     2          
    55  O     c      0.0000      -7.2575 *     0.4959 *  0.0000     1          
    56  O     c     -4.5078 *    -2.7498 *     5.0036 *  0.0000     2          
    57  Cl    c      6.7617 *    -0.4959 *     2.7498 *  0.0000     2          
    58  Na    c      6.7617 *    -2.7498 *     0.4959 *  0.0000     2          
    59  O     c      0.0000       6.2658 *    -4.0119 *  0.0000     1          
    60  Na    c      0.0000       1.7580 *     7.2575 *  0.0000     1          
    61  Na    c      0.0000      -7.2575 *    -1.7580 *  0.0000     1          
    62  Cl    c      2.2539 *    -0.4959 *     7.2575 *  0.0000     2          
    63  Na    c      2.2539 *    -7.2575 *     0.4959 *  0.0000     2          
    64  O     c     -4.5078 *     6.2658 *     0.4959 *  0.0000     2          
    65  Na    c      0.0000      -2.7498 *     7.2575 *  0.0000     1          
    66  Na    c      0.0000      -7.2575 *     2.7498 *  0.0000     1          
    67  Na    c      2.2539 *     6.2658 *    -4.0119 *  0.0000     2          
    68  Cl    c      2.2539 *     4.0119 *    -6.2658 *  0.0000     2          
    69  Na    c     -4.5078 *     4.0119 *     5.0036 *  0.0000     2          
    70  Na    c     -4.5078 *    -5.0036 *    -4.0119 *  0.0000     2          
    71  Na    c     -4.5078 *     6.2658 *    -1.7580 *  0.0000     2          
    72  Na    c      4.5078 *     1.7580 *    -6.2658 *  0.0000     2          
    73  O     c      0.0000       6.2658 *     5.0036 *  0.0000     1          
    74  Cl    c      6.7617 *     4.0119 *    -1.7580 *  0.0000     2          
    75  Na    c      6.7617 *     1.7580 *    -4.0119 *  0.0000     2          
    76  Na    c     -4.5078 *    -2.7498 *    -6.2658 *  0.0000     2          
    77  Na    c     -4.5078 *     6.2658 *     2.7498 *  0.0000     2          
    78  O     c      0.0000      -7.2575 *    -4.0119 *  0.0000     1          
    79  Cl    c      2.2539 *    -5.0036 *    -6.2658 *  0.0000     2          
    80  Na    c      2.2539 *     6.2658 *     5.0036 *  0.0000     2          
    81  Cl    c      6.7617 *     4.0119 *     2.7498 *  0.0000     2          
    82  Na    c      6.7617 *    -2.7498 *    -4.0119 *  0.0000     2          
    83  Na    c     -4.5078 *    -5.0036 *     5.0036 *  0.0000     2          
    84  Na    c      0.0000      -0.4959 *    -8.5197 *  0.0000     1          
    85  Na    c      0.0000       8.5197 *     0.4959 *  0.0000     1          
    86  O     c     -4.5078 *    -7.2575 *     0.4959 *  0.0000     2          
    87  Cl    c      2.2539 *     4.0119 *     7.2575 *  0.0000     2          
    88  Na    c      2.2539 *    -7.2575 *    -4.0119 *  0.0000     2          
    89  Cl    c      6.7617 *    -5.0036 *    -1.7580 *  0.0000     2          
    90  Na    c      6.7617 *     1.7580 *     5.0036 *  0.0000     2          
    91  O     c     -4.5078 *     6.2658 *    -4.0119 *  0.0000     2          
    92  O     c      0.0000       1.7580 *    -8.5197 *  0.0000     1          
    93  Na    c     -4.5078 *     1.7580 *     7.2575 *  0.0000     2          
    94  Na    c     -4.5078 *    -7.2575 *    -1.7580 *  0.0000     2          
    95  O     c      0.0000      -7.2575 *     5.0036 *  0.0000     1          
    96  Cl    c      6.7617 *    -5.0036 *     2.7498 *  0.0000     2          
    97  Na    c      6.7617 *    -2.7498 *     5.0036 *  0.0000     2          
    98  Na    c      0.0000       6.2658 *    -6.2658 *  0.0000     1          
    99  O     c      0.0000      -2.7498 *    -8.5197 *  0.0000     1          
   100  Na    c      4.5078 *    -2.7498 *     7.2575 *  0.0000     2          
   101  Na    c     -4.5078 *    -7.2575 *     2.7498 *  0.0000     2          
   102  Cl    c      2.2539 *     8.5197 *    -1.7580 *  0.0000     2          
   103  Na    c      2.2539 *     1.7580 *    -8.5197 *  0.0000     2          
   104  Na    c      9.0156 *    -0.4959 *     0.4959 *  0.0000     2          
   105  Cl    c      2.2539 *    -5.0036 *     7.2575 *  0.0000     2          
   106  Na    c      2.2539 *    -7.2575 *     5.0036 *  0.0000     2          
   107  O     c     -4.5078 *     6.2658 *     5.0036 *  0.0000     2          
   108  O     c      9.0156 *     1.7580 *     0.4959 *  0.0000     2          
   109  Na    c      6.7617 *     6.2658 *     0.4959 *  0.0000     2          
   110  Cl    c      2.2539 *     8.5197 *     2.7498 *  0.0000     2          
   111  Cl    c      6.7617 *    -0.4959 *    -6.2658 *  0.0000     2          
   112  Na    c      2.2539 *    -2.7498 *    -8.5197 *  0.0000     2          
   113  Na    c      9.0156 *     1.7580 *    -1.7580 *  0.0000     2          
   114  Na    c      0.0000       4.0119 *    -8.5197 *  0.0000     1          
   115  Na    c      0.0000       8.5197 *    -4.0119 *  0.0000     1          
   116  O     c     -4.5078 *    -7.2575 *    -4.0119 *  0.0000     2          
   117  O     c      9.0156 *    -2.7498 *     0.4959 *  0.0000     2          
   118  Na    c      0.0000      -0.4959 *     9.5114 *  0.0000     1          
   119  Na    c      0.0000      -9.5114 *     0.4959 *  0.0000     1          
   120  Na    c      0.0000       6.2658 *     7.2575 *  0.0000     1          
   121  Na    c      0.0000      -7.2575 *    -6.2658 *  0.0000     1          
   122  Na    c      9.0156 *    -2.7498 *    -1.7580 *  0.0000     2          
   123  Na    c      9.0156 *     1.7580 *     2.7498 *  0.0000     2          
   124  Na    c      4.5078 *    -0.4959 *    -8.5197 *  0.0000     2          
   125  Na    c     -4.5078 *     8.5197 *     0.4959 *  0.0000     2          
   126  O     c      0.0000       1.7580 *     9.5114 *  0.0000     1          
   127  O     c     -4.5078 *     1.7580 *    -8.5197 *  0.0000     2          
   128  Na    c      9.0156 *    -2.7498 *     2.7498 *  0.0000     2          
   129  Na    c      9.0156 *    -0.4959 *    -4.0119 *  0.0000     2          
   130  Na    c      9.0156 *     4.0119 *     0.4959 *  0.0000     2          
   131  Na    c      0.0000       8.5197 *     5.0036 *  0.0000     1          
   132  Na    c      0.0000      -5.0036 *    -8.5197 *  0.0000     1          
   133  O     c      0.0000      -2.7498 *     9.5114 *  0.0000     1          
   134  O     c     -4.5078 *    -7.2575 *     5.0036 *  0.0000     2          
   135  Cl    c      2.2539 *    -9.5114 *    -1.7580 *  0.0000     2          
   136  Na    c      2.2539 *     1.7580 *     9.5114 *  0.0000     2          
   137  Cl    c      6.7617 *    -0.4959 *     7.2575 *  0.0000     2          
   138  Na    c      6.7617 *    -7.2575 *     0.4959 *  0.0000     2          
   139  Na    c     -4.5078 *     6.2658 *    -6.2658 *  0.0000     2          
   140  O     c      9.0156 *     1.7580 *    -4.0119 *  0.0000     2          
   141  O     c      4.5078 *    -2.7498 *    -8.5197 *  0.0000     2          
   142  Na    c      6.7617 *     6.2658 *    -4.0119 *  0.0000     2          
   143  Cl    c      6.7617 *     4.0119 *    -6.2658 *  0.0000     2          
   144  Cl    c      2.2539 *    -9.5114 *     2.7498 *  0.0000     2          
   145  Na    c      2.2539 *    -2.7498 *     9.5114 *  0.0000     2          
   146  O     c      9.0156 *    -2.7498 *    -4.0119 *  0.0000     2          
   147  Na    c      0.0000      -7.2575 *     7.2575 *  0.0000     1          
   148  Na    c      0.0000       4.0119 *     9.5114 *  0.0000     1          
   149  Na    c      0.0000      -9.5114 *    -4.0119 *  0.0000     1          
   150  Na    c      9.0156 *    -0.4959 *     5.0036 *  0.0000     2          
   151  Na    c      9.0156 *    -5.0036 *     0.4959 *  0.0000     2          
   152  Na    c     -4.5078 *     4.0119 *    -8.5197 *  0.0000     2          
   153  Na    c     -4.5078 *     8.5197 *    -4.0119 *  0.0000     2          
   154  O     c      9.0156 *     1.7580 *     5.0036 *  0.0000     2          
   155  Na    c      6.7617 *     6.2658 *     5.0036 *  0.0000     2          
   156  Cl    c      6.7617 *    -5.0036 *    -6.2658 *  0.0000     2          
   157  Na    c     -4.5078 *    -0.4959 *     9.5114 *  0.0000     2          
   158  Na    c     -4.5078 *    -9.5114 *     0.4959 *  0.0000     2          
   159  O     c      0.0000       6.2658 *    -8.5197 *  0.0000     1          
   160  Na    c     -4.5078 *     6.2658 *     7.2575 *  0.0000     2          
   161  Na    c     -4.5078 *    -7.2575 *    -6.2658 *  0.0000     2          
   162  Na    c      9.0156 *     4.0119 *    -4.0119 *  0.0000     2          
   163  O     c     -4.5078 *     1.7580 *     9.5114 *  0.0000     2          
   164  O     c      9.0156 *    -2.7498 *     5.0036 *  0.0000     2          
   165  Cl    c      6.7617 *     4.0119 *     7.2575 *  0.0000     2          
   166  Na    c      6.7617 *    -7.2575 *    -4.0119 *  0.0000     2          
   167  Na    c      0.0000      -5.0036 *     9.5114 *  0.0000     1          
   168  Na    c      0.0000      -9.5114 *     5.0036 *  0.0000     1          
   169  O     c      0.0000      10.7736 *     0.4959 *  0.0000     1          
   170  Cl    c      2.2539 *     8.5197 *    -6.2658 *  0.0000     2          
   171  Na    c      2.2539 *     6.2658 *    -8.5197 *  0.0000     2          
   172  Na    c     -4.5078 *     8.5197 *     5.0036 *  0.0000     2          
   173  Na    c     -4.5078 *    -5.0036 *    -8.5197 *  0.0000     2          
   174  O     c     -4.5078 *    -2.7498 *     9.5114 *  0.0000     2          
   175  Na    c      0.0000      10.7736 *    -1.7580 *  0.0000     1          
   176  Na    c      0.0000       1.7580 *   -10.7736 *  0.0000     1          
   177  O     c      9.0156 *     6.2658 *     0.4959 *  0.0000     2          
   178  Na    c      2.2539 *    10.7736 *     0.4959 *  0.0000     2          
   179  Cl    c      2.2539 *    -0.4959 *   -10.7736 *  0.0000     2          
   180  Cl    c      6.7617 *     8.5197 *    -1.7580 *  0.0000     2          
   181  Na    c      6.7617 *     1.7580 *    -8.5197 *  0.0000     2          
   182  Na    c      9.0156 *     4.0119 *     5.0036 *  0.0000     2          
   183  Na    c      9.0156 *    -5.0036 *    -4.0119 *  0.0000     2          
   184  Cl    c      6.7617 *    -5.0036 *     7.2575 *  0.0000     2          
   185  Na    c      6.7617 *    -7.2575 *     5.0036 *  0.0000     2          
   186  Na    c      0.0000      10.7736 *     2.7498 *  0.0000     1          
   187  Na    c      9.0156 *     6.2658 *    -1.7580 *  0.0000     2          
   188  Na    c      0.0000      -2.7498 *   -10.7736 *  0.0000     1          
   189  Na    c      9.0156 *     1.7580 *    -6.2658 *  0.0000     2          
   190  O     c      0.0000      -7.2575 *    -8.5197 *  0.0000     1          
   191  Na    c     -4.5078 *    -7.2575 *     7.2575 *  0.0000     2          
   192  Cl    c      6.7617 *     8.5197 *     2.7498 *  0.0000     2          
   193  Na    c      6.7617 *    -2.7498 *    -8.5197 *  0.0000     2          
   194  Na    c     -4.5078 *     4.0119 *     9.5114 *  0.0000     2          
   195  Na    c     -4.5078 *    -9.5114 *    -4.0119 *  0.0000     2          
   196  Na    c      9.0156 *     6.2658 *     2.7498 *  0.0000     2          
   197  Na    c      9.0156 *    -2.7498 *    -6.2658 *  0.0000     2          
   198  O     c      0.0000       6.2658 *     9.5114 *  0.0000     1          
   199  Cl    c     11.2695 *    -0.4959 *    -1.7580 *  0.0000     2          
   200  Na    c     11.2695 *     1.7580 *     0.4959 *  0.0000     2          
   201  Cl    c      2.2539 *     8.5197 *     7.2575 *  0.0000     2          
   202  Na    c      2.2539 *    -7.2575 *    -8.5197 *  0.0000     2          
   203  Na    c      9.0156 *    -5.0036 *     5.0036 *  0.0000     2          
   204  O     c      0.0000      10.7736 *    -4.0119 *  0.0000     1          
   205  O     c      4.5078 *     6.2658 *    -8.5197 *  0.0000     2          
   206  O     c      9.0156 *    -7.2575 *     0.4959 *  0.0000     2          
   207  Cl    c      2.2539 *    -9.5114 *    -6.2658 *  0.0000     2          
   208  Cl    c     11.2695 *    -0.4959 *     2.7498 *  0.0000     2          
   209  Na    c      2.2539 *     6.2658 *     9.5114 *  0.0000     2          
   210  Na    c     11.2695 *    -2.7498 *     0.4959 *  0.0000     2          
   211  Na    c      4.5078 *    -5.0036 *     9.5114 *  0.0000     2          
   212  Na    c      4.5078 *    -9.5114 *     5.0036 *  0.0000     2          
   213  O     c      4.5078 *    10.7736 *     0.4959 *  0.0000     2          
   214  O     c      9.0156 *     6.2658 *    -4.0119 *  0.0000     2          
   215  Na    c      9.0156 *     1.7580 *     7.2575 *  0.0000     2          
   216  Na    c      9.0156 *    -7.2575 *    -1.7580 *  0.0000     2          
   217  Na    c      2.2539 *    10.7736 *    -4.0119 *  0.0000     2          
   218  Cl    c      2.2539 *     4.0119 *   -10.7736 *  0.0000     2          
   219  O     c      0.0000     -11.7653 *     0.4959 *  0.0000     1          
   220  Cl    c      6.7617 *    -9.5114 *    -1.7580 *  0.0000     2          
   221  Na    c      6.7617 *     1.7580 *     9.5114 *  0.0000     2          
   222  Na    c      4.5078 *    10.7736 *    -1.7580 *  0.0000     2          
   223  Na    c      4.5078 *     1.7580 *   -10.7736 *  0.0000     2          
   224  O     c      0.0000      10.7736 *     5.0036 *  0.0000     1          
   225  Na    c      9.0156 *    -2.7498 *     7.2575 *  0.0000     2          
   226  Na    c      9.0156 *    -7.2575 *     2.7498 *  0.0000     2          
   227  Na    c      0.0000       1.7580 *    11.7653 *  0.0000     1          
   228  Na    c      0.0000     -11.7653 *    -1.7580 *  0.0000     1          
   229  O     c      0.0000      -7.2575 *     9.5114 *  0.0000     1          
   230  Cl    c      6.7617 *    -9.5114 *     2.7498 *  0.0000     2          
   231  Na    c      6.7617 *    -2.7498 *     9.5114 *  0.0000     2          
   232  Cl    c      2.2539 *    -0.4959 *    11.7653 *  0.0000     2          
   233  Na    c      2.2539 *   -11.7653 *     0.4959 *  0.0000     2          
   234  Na    c      4.5078 *    10.7736 *     2.7498 *  0.0000     2          
   235  Na    c      4.5078 *    -2.7498 *   -10.7736 *  0.0000     2          
   236  Na    c      0.0000       8.5197 *    -8.5197 *  0.0000     1          
   237  O     c      4.5078 *    -7.2575 *    -8.5197 *  0.0000     2          
   238  O     c      9.0156 *     6.2658 *     5.0036 *  0.0000     2          
   239  Na    c      0.0000      -2.7498 *    11.7653 *  0.0000     1          
   240  Na    c      0.0000     -11.7653 *     2.7498 *  0.0000     1          
   241  Cl    c     11.2695 *     4.0119 *    -1.7580 *  0.0000     2          
   242  Na    c      2.2539 *    10.7736 *     5.0036 *  0.0000     2          
   243  Na    c     11.2695 *     1.7580 *    -4.0119 *  0.0000     2          
   244  Cl    c      2.2539 *    -5.0036 *   -10.7736 *  0.0000     2          
   245  Cl    c      2.2539 *    -9.5114 *     7.2575 *  0.0000     2          
   246  Na    c      2.2539 *    -7.2575 *     9.5114 *  0.0000     2          
   247  O     c     -4.5078 *     6.2658 *     9.5114 *  0.0000     2          
   248  O     c      9.0156 *    -7.2575 *    -4.0119 *  0.0000     2          
   249  Cl    c     11.2695 *     4.0119 *     2.7498 *  0.0000     2          
   250  Na    c     11.2695 *    -2.7498 *    -4.0119 *  0.0000     2          
   251  O     c      4.5078 *    10.7736 *    -4.0119 *  0.0000     2          
   252  Na    c      9.0156 *     8.5197 *     0.4959 *  0.0000     2          
   253  Na    c      9.0156 *    -0.4959 *    -8.5197 *  0.0000     2          
   254  O     c      0.0000     -11.7653 *    -4.0119 *  0.0000     1          
   255  Cl    c     11.2695 *    -5.0036 *    -1.7580 *  0.0000     2          
   256  Na    c     11.2695 *     1.7580 *     5.0036 *  0.0000     2          
   257  Na    c      0.0000      10.7736 *    -6.2658 *  0.0000     1          
   258  Na    c      0.0000       6.2658 *   -10.7736 *  0.0000     1          
   259  O     c      9.0156 *     1.7580 *    -8.5197 *  0.0000     2          
   260  Cl    c      6.7617 *     8.5197 *    -6.2658 *  0.0000     2          
   261  Na    c      6.7617 *     6.2658 *    -8.5197 *  0.0000     2          
   262  O     c      9.0156 *    -7.2575 *     5.0036 *  0.0000     2          
   263  O     c      4.5078 *   -11.7653 *     0.4959 *  0.0000     2          
   264  Cl    c     11.2695 *    -5.0036 *     2.7498 *  0.0000     2          
   265  Na    c     11.2695 *    -2.7498 *     5.0036 *  0.0000     2          
   266  Cl    c      2.2539 *     4.0119 *    11.7653 *  0.0000     2          
   267  Na    c      2.2539 *   -11.7653 *    -4.0119 *  0.0000     2          
   268  Na    c      9.0156 *     6.2658 *    -6.2658 *  0.0000     2          
   269  O     c      4.5078 *    10.7736 *     5.0036 *  0.0000     2          
   270  O     c      9.0156 *    -2.7498 *    -8.5197 *  0.0000     2          
   271  Na    c      4.5078 *     1.7580 *    11.7653 *  0.0000     2          
   272  Na    c      4.5078 *   -11.7653 *    -1.7580 *  0.0000     2          
   273  Na    c      6.7617 *    10.7736 *     0.4959 *  0.0000     2          
   274  Cl    c      6.7617 *    -0.4959 *   -10.7736 *  0.0000     2          
   275  Na    c      0.0000       8.5197 *     9.5114 *  0.0000     1          
   276  Na    c      0.0000      -9.5114 *    -8.5197 *  0.0000     1          
   277  O     c     -4.5078 *    -7.2575 *     9.5114 *  0.0000     2          
   278  O     c      0.0000     -11.7653 *     5.0036 *  0.0000     1          
   279  Na    c      4.5078 *     8.5197 *    -8.5197 *  0.0000     2          
   280  Na    c      4.5078 *    -2.7498 *    11.7653 *  0.0000     2          
   281  Na    c      4.5078 *   -11.7653 *     2.7498 *  0.0000     2          
   282  Cl    c     11.2695 *    -0.4959 *    -6.2658 *  0.0000     2          
   283  Na    c     11.2695 *     6.2658 *     0.4959 *  0.0000     2          
   284  Cl    c      2.2539 *    -5.0036 *    11.7653 *  0.0000     2          
   285  Na    c      2.2539 *   -11.7653 *     5.0036 *  0.0000     2          
   286  Na    c      0.0000      10.7736 *     7.2575 *  0.0000     1          
   287  Na    c      0.0000      -7.2575 *   -10.7736 *  0.0000     1          
   288  Na    c      0.0000      -0.4959 *   -13.0275 *  0.0000     1          
   289  Na    c      0.0000      13.0275 *     0.4959 *  0.0000     1          
   290  Na    c      9.0156 *     8.5197 *    -4.0119 *  0.0000     2          
   291  Na    c      9.0156 *     4.0119 *    -8.5197 *  0.0000     2          
   292  Cl    c      6.7617 *     8.5197 *     7.2575 *  0.0000     2          
   293  Na    c      6.7617 *    -7.2575 *    -8.5197 *  0.0000     2          
   294  Na    c      9.0156 *    -0.4959 *     9.5114 *  0.0000     2          
   295  Na    c      9.0156 *    -9.5114 *     0.4959 *  0.0000     2          
   296  O     c      0.0000       1.7580 *   -13.0275 *  0.0000     1          
   297  Na    c      9.0156 *     6.2658 *     7.2575 *  0.0000     2          
   298  Na    c      9.0156 *    -7.2575 *    -6.2658 *  0.0000     2          
   299  O     c      9.0156 *     1.7580 *     9.5114 *  0.0000     2          
   300  O     c      4.5078 *   -11.7653 *    -4.0119 *  0.0000     2          
   301  Cl    c      6.7617 *    -9.5114 *    -6.2658 *  0.0000     2          
   302  Na    c      6.7617 *     6.2658 *     9.5114 *  0.0000     2          
   303  Na    c      4.5078 *    10.7736 *    -6.2658 *  0.0000     2          
   304  Na    c     -4.5078 *     6.2658 *   -10.7736 *  0.0000     2          
   305  O     c      0.0000      -2.7498 *   -13.0275 *  0.0000     1          
   306  Na    c      0.0000       6.2658 *    11.7653 *  0.0000     1          
   307  Na    c      0.0000     -11.7653 *    -6.2658 *  0.0000     1          
   308  Na    c      6.7617 *    10.7736 *    -4.0119 *  0.0000     2          
   309  Cl    c      2.2539 *    13.0275 *    -1.7580 *  0.0000     2          
   310  Na    c      2.2539 *     1.7580 *   -13.0275 *  0.0000     2          
   311  Cl    c      6.7617 *     4.0119 *   -10.7736 *  0.0000     2          
   312  Na    c      9.0156 *     8.5197 *     5.0036 *  0.0000     2          
   313  Na    c      9.0156 *    -5.0036 *    -8.5197 *  0.0000     2          
   314  O     c      9.0156 *    -2.7498 *     9.5114 *  0.0000     2          
   315  Cl    c     11.2695 *    -0.4959 *     7.2575 *  0.0000     2          
   316  Na    c     11.2695 *    -7.2575 *     0.4959 *  0.0000     2          
   317  Na    c      0.0000      -9.5114 *     9.5114 *  0.0000     1          
   318  Cl    c     11.2695 *     4.0119 *    -6.2658 *  0.0000     2          
   319  Na    c     11.2695 *     6.2658 *    -4.0119 *  0.0000     2          
   320  Cl    c      2.2539 *    13.0275 *     2.7498 *  0.0000     2          
   321  Na    c      2.2539 *    -2.7498 *   -13.0275 *  0.0000     2          
   322  Na    c     -4.5078 *     8.5197 *     9.5114 *  0.0000     2          
   323  Na    c     -4.5078 *    -9.5114 *    -8.5197 *  0.0000     2          
   324  Na    c     13.5234 *    -0.4959 *     0.4959 *  0.0000     2          
   325  O     c      4.5078 *   -11.7653 *     5.0036 *  0.0000     2          
   326  Na    c      6.7617 *   -11.7653 *     0.4959 *  0.0000     2          
   327  Cl    c      6.7617 *    -0.4959 *    11.7653 *  0.0000     2          
   328  Na    c      0.0000       4.0119 *   -13.0275 *  0.0000     1          
   329  Na    c      0.0000      13.0275 *    -4.0119 *  0.0000     1          
   330  O     c     13.5234 *     1.7580 *     0.4959 *  0.0000     2          
   331  Na    c      9.0156 *    -7.2575 *     7.2575 *  0.0000     2          
   332  Na    c      6.7617 *    10.7736 *     5.0036 *  0.0000     2          
   333  Cl    c      6.7617 *    -5.0036 *   -10.7736 *  0.0000     2          
   334  Na    c      9.0156 *     4.0119 *     9.5114 *  0.0000     2          
   335  Na    c      9.0156 *    -9.5114 *    -4.0119 *  0.0000     2          
   336  O     c      0.0000      10.7736 *    -8.5197 *  0.0000     1          
   337  Cl    c      6.7617 *    -9.5114 *     7.2575 *  0.0000     2          
   338  Na    c      6.7617 *    -7.2575 *     9.5114 *  0.0000     2          
   339  Na    c      4.5078 *    10.7736 *     7.2575 *  0.0000     2          
   340  Na    c     -4.5078 *    -7.2575 *   -10.7736 *  0.0000     2          
   341  Na    c     13.5234 *     1.7580 *    -1.7580 *  0.0000     2          
   342  Na    c      4.5078 *    -0.4959 *   -13.0275 *  0.0000     2          
   343  Na    c      4.5078 *    13.0275 *     0.4959 *  0.0000     2          
   344  O     c     13.5234 *    -2.7498 *     0.4959 *  0.0000     2          
   345  Na    c      0.0000      -7.2575 *    11.7653 *  0.0000     1          
   346  Na    c      0.0000     -11.7653 *     7.2575 *  0.0000     1          
   347  Cl    c     11.2695 *    -5.0036 *    -6.2658 *  0.0000     2          
   348  Na    c     11.2695 *     6.2658 *     5.0036 *  0.0000     2          
   349  O     c      4.5078 *     1.7580 *   -13.0275 *  0.0000     2          
   350  O     c      9.0156 *     6.2658 *    -8.5197 *  0.0000     2          
   351  Na    c     13.5234 *    -2.7498 *    -1.7580 *  0.0000     2          
   352  Na    c     13.5234 *     1.7580 *     2.7498 *  0.0000     2          
   353  Na    c      2.2539 *    10.7736 *    -8.5197 *  0.0000     2          
   354  Cl    c      2.2539 *     8.5197 *   -10.7736 *  0.0000     2          
   355  Na    c      0.0000      13.0275 *     5.0036 *  0.0000     1          
   356  Na    c      0.0000      -5.0036 *   -13.0275 *  0.0000     1          
   357  Cl    c     11.2695 *     4.0119 *     7.2575 *  0.0000     2          
   358  Na    c     11.2695 *    -7.2575 *    -4.0119 *  0.0000     2          
   359  Na    c      0.0000      -0.4959 *    14.0192 *  0.0000     1          
   360  Na    c      0.0000     -14.0192 *     0.4959 *  0.0000     1          
   361  Na    c      9.0156 *    -5.0036 *     9.5114 *  0.0000     2          
   362  Na    c      9.0156 *    -9.5114 *     5.0036 *  0.0000     2          
   363  O     c      9.0156 *    10.7736 *     0.4959 *  0.0000     2          
   364  O     c      4.5078 *    -2.7498 *   -13.0275 *  0.0000     2          
   365  Na    c      4.5078 *   -11.7653 *    -6.2658 *  0.0000     2          
   366  Na    c     -4.5078 *     6.2658 *    11.7653 *  0.0000     2          
   367  Na    c     13.5234 *    -2.7498 *     2.7498 *  0.0000     2          
   368  Na    c     13.5234 *    -0.4959 *    -4.0119 *  0.0000     2          
   369  Na    c     13.5234 *     4.0119 *     0.4959 *  0.0000     2          
   370  O     c      0.0000       1.7580 *    14.0192 *  0.0000     1          
   371  Na    c      6.7617 *   -11.7653 *    -4.0119 *  0.0000     2          
   372  Cl    c      6.7617 *     4.0119 *    11.7653 *  0.0000     2          
   373  Na    c      9.0156 *    10.7736 *    -1.7580 *  0.0000     2          
   374  Na    c      9.0156 *     1.7580 *   -10.7736 *  0.0000     2          
   375  Na    c     -4.5078 *    -9.5114 *     9.5114 *  0.0000     2          
   376  O     c     13.5234 *     1.7580 *    -4.0119 *  0.0000     2          
   377  Cl    c     11.2695 *     8.5197 *    -1.7580 *  0.0000     2          
   378  Na    c     11.2695 *     1.7580 *    -8.5197 *  0.0000     2          
   379  O     c      0.0000      -2.7498 *    14.0192 *  0.0000     1          
   380  Cl    c      2.2539 *   -14.0192 *    -1.7580 *  0.0000     2          
   381  Na    c      2.2539 *     1.7580 *    14.0192 *  0.0000     2          
   382  Cl    c     11.2695 *    -5.0036 *     7.2575 *  0.0000     2          
   383  Na    c     11.2695 *    -7.2575 *     5.0036 *  0.0000     2          
   384  Na    c      9.0156 *    10.7736 *     2.7498 *  0.0000     2          
   385  Na    c      9.0156 *    -2.7498 *   -10.7736 *  0.0000     2          
   386  Na    c      4.5078 *    13.0275 *    -4.0119 *  0.0000     2          
   387  Na    c     -4.5078 *     4.0119 *   -13.0275 *  0.0000     2          
   388  O     c      0.0000      10.7736 *     9.5114 *  0.0000     1          
   389  O     c      9.0156 *    -7.2575 *    -8.5197 *  0.0000     2          
   390  O     c     13.5234 *    -2.7498 *    -4.0119 *  0.0000     2          
   391  Cl    c     11.2695 *     8.5197 *     2.7498 *  0.0000     2          
   392  Na    c     11.2695 *    -2.7498 *    -8.5197 *  0.0000     2          
   393  Na    c     13.5234 *    -0.4959 *     5.0036 *  0.0000     2          
   394  Na    c     13.5234 *    -5.0036 *     0.4959 *  0.0000     2          
   395  O     c      0.0000       6.2658 *   -13.0275 *  0.0000     1          
   396  O     c      4.5078 *    10.7736 *    -8.5197 *  0.0000     2          
   397  Cl    c      2.2539 *   -14.0192 *     2.7498 *  0.0000     2          
   398  Na    c      2.2539 *    -2.7498 *    14.0192 *  0.0000     2          
   399  Na    c      6.7617 *   -11.7653 *     5.0036 *  0.0000     2          
   400  Cl    c      6.7617 *    -5.0036 *    11.7653 *  0.0000     2          
   401  O     c      9.0156 *     6.2658 *     9.5114 *  0.0000     2          
   402  O     c      0.0000     -11.7653 *    -8.5197 *  0.0000     1          
   403  O     c     13.5234 *     1.7580 *     5.0036 *  0.0000     2          
   404  Na    c      4.5078 *   -11.7653 *     7.2575 *  0.0000     2          
   405  Na    c     -4.5078 *    -7.2575 *    11.7653 *  0.0000     2          
   406  Na    c      2.2539 *    10.7736 *     9.5114 *  0.0000     2          
   407  Cl    c      2.2539 *    -9.5114 *   -10.7736 *  0.0000     2          
   408  Na    c      0.0000       4.0119 *    14.0192 *  0.0000     1          
   409  Na    c      0.0000     -14.0192 *    -4.0119 *  0.0000     1          
   410  O     c      9.0156 *    10.7736 *    -4.0119 *  0.0000     2          
   411  Cl    c      2.2539 *    13.0275 *    -6.2658 *  0.0000     2          
   412  Na    c      2.2539 *     6.2658 *   -13.0275 *  0.0000     2          
   413  Na    c      4.5078 *    13.0275 *     5.0036 *  0.0000     2          
   414  Na    c     -4.5078 *    -5.0036 *   -13.0275 *  0.0000     2          
   415  Na    c     13.5234 *     4.0119 *    -4.0119 *  0.0000     2          
   416  O     c     13.5234 *    -2.7498 *     5.0036 *  0.0000     2          
   417  Cl    c      2.2539 *     8.5197 *    11.7653 *  0.0000     2          
   418  Na    c      2.2539 *   -11.7653 *    -8.5197 *  0.0000     2          
   419  Na    c      4.5078 *    -0.4959 *    14.0192 *  0.0000     2          
   420  Na    c      4.5078 *   -14.0192 *     0.4959 *  0.0000     2          
   421  Cl    c      6.7617 *    13.0275 *    -1.7580 *  0.0000     2          
   422  Na    c      6.7617 *     1.7580 *   -13.0275 *  0.0000     2          
   423  O     c      4.5078 *     1.7580 *    14.0192 *  0.0000     2          
   424  O     c      9.0156 *   -11.7653 *     0.4959 *  0.0000     2          
   425  Cl    c     11.2695 *    -9.5114 *    -1.7580 *  0.0000     2          
   426  Na    c     11.2695 *     1.7580 *     9.5114 *  0.0000     2          
   427  Na    c      0.0000      -5.0036 *    14.0192 *  0.0000     1          
   428  Na    c      0.0000     -14.0192 *     5.0036 *  0.0000     1          
   429  O     c      9.0156 *    10.7736 *     5.0036 *  0.0000     2          
   430  O     c      0.0000      -7.2575 *   -13.0275 *  0.0000     1          
   431  O     c     13.5234 *     6.2658 *     0.4959 *  0.0000     2          
   432  Na    c      9.0156 *     1.7580 *    11.7653 *  0.0000     2          
   433  Na    c      9.0156 *   -11.7653 *    -1.7580 *  0.0000     2          
   434  Cl    c      6.7617 *    13.0275 *     2.7498 *  0.0000     2          
   435  Na    c      6.7617 *    -2.7498 *   -13.0275 *  0.0000     2          
   436  Na    c     13.5234 *     4.0119 *     5.0036 *  0.0000     2          
   437  Na    c     13.5234 *    -5.0036 *    -4.0119 *  0.0000     2          
   438  O     c      4.5078 *    -2.7498 *    14.0192 *  0.0000     2          
   439  O     c      9.0156 *    -7.2575 *     9.5114 *  0.0000     2          
   440  Cl    c     11.2695 *    -9.5114 *     2.7498 *  0.0000     2          
   441  Na    c     11.2695 *    -2.7498 *     9.5114 *  0.0000     2          
   442  Na    c     13.5234 *     1.7580 *    -6.2658 *  0.0000     2          
   443  Na    c     13.5234 *     6.2658 *    -1.7580 *  0.0000     2          
   444  Na    c      9.0156 *     8.5197 *    -8.5197 *  0.0000     2          
   445  O     c      4.5078 *    10.7736 *     9.5114 *  0.0000     2          
   446  Na    c      9.0156 *    -2.7498 *    11.7653 *  0.0000     2          
   447  Na    c      9.0156 *   -11.7653 *     2.7498 *  0.0000     2          
   448  Cl    c      2.2539 *    13.0275 *     7.2575 *  0.0000     2          
   449  Na    c      2.2539 *    -7.2575 *   -13.0275 *  0.0000     2          
   450  O     c      0.0000     -11.7653 *     9.5114 *  0.0000     1          
   451  O     c      4.5078 *     6.2658 *   -13.0275 *  0.0000     2          
   452  Na    c     13.5234 *    -2.7498 *    -6.2658 *  0.0000     2          
   453  Na    c     13.5234 *     6.2658 *     2.7498 *  0.0000     2          
   454  O     c      4.5078 *   -11.7653 *    -8.5197 *  0.0000     2          
   455  Na    c      0.0000      10.7736 *   -10.7736 *  0.0000     1          
   456  Na    c      4.5078 *   -14.0192 *    -4.0119 *  0.0000     2          
   457  Na    c     -4.5078 *     4.0119 *    14.0192 *  0.0000     2          
   458  Na    c     13.5234 *    -5.0036 *     5.0036 *  0.0000     2          
   459  O     c      0.0000      15.2814 *     0.4959 *  0.0000     1          
   460  Cl    c      2.2539 *    -9.5114 *    11.7653 *  0.0000     2          
   461  Na    c      2.2539 *   -11.7653 *     9.5114 *  0.0000     2          
   462  Na    c      6.7617 *    10.7736 *    -8.5197 *  0.0000     2          
   463  Cl    c      6.7617 *     8.5197 *   -10.7736 *  0.0000     2          
   464  O     c      0.0000       6.2658 *    14.0192 *  0.0000     1          
   465  O     c      9.0156 *   -11.7653 *    -4.0119 *  0.0000     2          
   466  O     c     13.5234 *    -7.2575 *     0.4959 *  0.0000     2          
   467  Na    c      0.0000      15.2814 *    -1.7580 *  0.0000     1          
   468  Na    c      9.0156 *    10.7736 *    -6.2658 *  0.0000     2          
   469  Na    c      9.0156 *     6.2658 *   -10.7736 *  0.0000     2          
   470  Na    c      0.0000       1.7580 *   -15.2814 *  0.0000     1          
   471  O     c     13.5234 *     6.2658 *    -4.0119 *  0.0000     2          
   472  Na    c     13.5234 *     1.7580 *     7.2575 *  0.0000     2          
   473  Na    c     13.5234 *    -7.2575 *    -1.7580 *  0.0000     2          
   474  Na    c      2.2539 *    15.2814 *     0.4959 *  0.0000     2          
   475  Cl    c     11.2695 *     8.5197 *    -6.2658 *  0.0000     2          
   476  Na    c     11.2695 *     6.2658 *    -8.5197 *  0.0000     2          
   477  Cl    c      2.2539 *    -0.4959 *   -15.2814 *  0.0000     2          
   478  Cl    c      2.2539 *   -14.0192 *    -6.2658 *  0.0000     2          
   479  Na    c      2.2539 *     6.2658 *    14.0192 *  0.0000     2          
   480  Na    c      0.0000      15.2814 *     2.7498 *  0.0000     1          
   481  Na    c      0.0000      -2.7498 *   -15.2814 *  0.0000     1          
   482  Na    c      4.5078 *   -14.0192 *     5.0036 *  0.0000     2          
   483  Na    c     -4.5078 *    -5.0036 *    14.0192 *  0.0000     2          
   484  Na    c      0.0000       8.5197 *   -13.0275 *  0.0000     1          
   485  Na    c      0.0000      13.0275 *    -8.5197 *  0.0000     1          
   486  O     c      4.5078 *    -7.2575 *   -13.0275 *  0.0000     2          
   487  Na    c     13.5234 *    -2.7498 *     7.2575 *  0.0000     2          
   488  Na    c     13.5234 *    -7.2575 *     2.7498 *  0.0000     2          
   489  Na    c     11.2695 *    10.7736 *     0.4959 *  0.0000     2          
   490  Cl    c     11.2695 *    -0.4959 *   -10.7736 *  0.0000     2          
   491  Na    c      9.0156 *     8.5197 *     9.5114 *  0.0000     2          
   492  Na    c      9.0156 *    -9.5114 *    -8.5197 *  0.0000     2          
   493  O     c      9.0156 *   -11.7653 *     5.0036 *  0.0000     2          
   494  Cl    c      6.7617 *   -14.0192 *    -1.7580 *  0.0000     2          
   495  Na    c      6.7617 *     1.7580 *    14.0192 *  0.0000     2          
   496  O     c     13.5234 *     6.2658 *     5.0036 *  0.0000     2          
   497  O     c      0.0000      -7.2575 *    14.0192 *  0.0000     1          
   498  O     c      4.5078 *   -11.7653 *     9.5114 *  0.0000     2          
   499  O     c      0.0000      15.2814 *    -4.0119 *  0.0000     1          
   500  Cl    c      6.7617 *   -14.0192 *     2.7498 *  0.0000     2          
   501  Na    c      6.7617 *    -2.7498 *    14.0192 *  0.0000     2          
   502  Na    c      9.0156 *    10.7736 *     7.2575 *  0.0000     2          
   503  Na    c      9.0156 *    -7.2575 *   -10.7736 *  0.0000     2          
   504  Na    c      9.0156 *    13.0275 *     0.4959 *  0.0000     2          
   505  Na    c      9.0156 *    -0.4959 *   -13.0275 *  0.0000     2          
   506  O     c     13.5234 *    -7.2575 *    -4.0119 *  0.0000     2          
   507  Cl    c    -15.7773 *    -0.4959 *    -1.7580 *  0.0000     2          
   508  Na    c      6.7617 *    10.7736 *     9.5114 *  0.0000     2          
   509  Na    c    -15.7773 *     1.7580 *     0.4959 *  0.0000     2          
   510  Cl    c      6.7617 *    -9.5114 *   -10.7736 *  0.0000     2          
   511  Cl    c     11.2695 *     8.5197 *     7.2575 *  0.0000     2          
   512  Na    c     11.2695 *    -7.2575 *    -8.5197 *  0.0000     2          
   513  Na    c      4.5078 *    10.7736 *   -10.7736 *  0.0000     2          
   514  O     c      4.5078 *    15.2814 *     0.4959 *  0.0000     2          
   515  O     c      9.0156 *     1.7580 *   -13.0275 *  0.0000     2          
   516  Cl    c      2.2539 *   -14.0192 *     7.2575 *  0.0000     2          
   517  Na    c      2.2539 *    -7.2575 *    14.0192 *  0.0000     2          
   518  Na    c      0.0000      10.7736 *    11.7653 *  0.0000     1          
   519  Na    c      0.0000     -11.7653 *   -10.7736 *  0.0000     1          
   520  Na    c      2.2539 *    15.2814 *    -4.0119 *  0.0000     2          
   521  Cl    c      6.7617 *    13.0275 *    -6.2658 *  0.0000     2          
   522  Na    c      6.7617 *     6.2658 *   -13.0275 *  0.0000     2          
   523  Cl    c      2.2539 *     4.0119 *   -15.2814 *  0.0000     2          
   524  Na    c     13.5234 *    -0.4959 *    -8.5197 *  0.0000     2          
   525  Na    c     13.5234 *     8.5197 *     0.4959 *  0.0000     2          
   526  O     s      0.0000       1.7580 *     0.4959 *  0.0000     1          
   527  O     s      0.0000      -2.7498 *     0.4959 *  0.0000     1          
   528  Cl    s      2.2539 *    -0.4959 *    -1.7580 *  0.0000     2          
   529  Cl    s      2.2539 *    -0.4959 *     2.7498 *  0.0000     2          
   530  O     s      0.0000       1.7580 *    -4.0119 *  0.0000     1          
   531  O     s      0.0000      -2.7498 *    -4.0119 *  0.0000     1          
   532  O     s     -4.5078 *     1.7580 *     0.4959 *  0.0000     2          
   533  Cl    s      2.2539 *     4.0119 *    -1.7580 *  0.0000     2          
   534  O     s     -4.5078 *    -2.7498 *     0.4959 *  0.0000     2          
   535  O     s      0.0000       1.7580 *     5.0036 *  0.0000     1          
   536  Cl    s      2.2539 *     4.0119 *     2.7498 *  0.0000     2          
   537  O     s      0.0000      -2.7498 *     5.0036 *  0.0000     1          
   538  Cl    s      2.2539 *    -5.0036 *    -1.7580 *  0.0000     2          
   539  Cl    s      2.2539 *    -5.0036 *     2.7498 *  0.0000     2          
   540  O     s      0.0000       6.2658 *     0.4959 *  0.0000     1          
   541  O     s     -4.5078 *     1.7580 *    -4.0119 *  0.0000     2          
   542  O     s     -4.5078 *    -2.7498 *    -4.0119 *  0.0000     2          
   543  Cl    s      2.2539 *    -0.4959 *    -6.2658 *  0.0000     2          
   544  O     s     -4.5078 *     1.7580 *     5.0036 *  0.0000     2          
   545  Cl    s      6.7617 *    -0.4959 *    -1.7580 *  0.0000     2          
   546  O     s      0.0000      -7.2575 *     0.4959 *  0.0000     1          
   547  O     s     -4.5078 *    -2.7498 *     5.0036 *  0.0000     2          
   548  Cl    s      6.7617 *    -0.4959 *     2.7498 *  0.0000     2          
   549  O     s      0.0000       6.2658 *    -4.0119 *  0.0000     1          
   550  Cl    s      2.2539 *    -0.4959 *     7.2575 *  0.0000     2          
   551  O     s     -4.5078 *     6.2658 *     0.4959 *  0.0000     2          
   552  Cl    s      2.2539 *     4.0119 *    -6.2658 *  0.0000     2          
   553  O     s      0.0000       6.2658 *     5.0036 *  0.0000     1          
   554  Cl    s      6.7617 *     4.0119 *    -1.7580 *  0.0000     2          
   555  O     s      0.0000      -7.2575 *    -4.0119 *  0.0000     1          
   556  Cl    s      2.2539 *    -5.0036 *    -6.2658 *  0.0000     2          
   557  Cl    s      6.7617 *     4.0119 *     2.7498 *  0.0000     2          
   558  O     s     -4.5078 *    -7.2575 *     0.4959 *  0.0000     2          
   559  Cl    s      2.2539 *     4.0119 *     7.2575 *  0.0000     2          
   560  Cl    s      6.7617 *    -5.0036 *    -1.7580 *  0.0000     2          
   561  O     s     -4.5078 *     6.2658 *    -4.0119 *  0.0000     2          
   562  O     s      0.0000       1.7580 *    -8.5197 *  0.0000     1          
   563  O     s      0.0000      -7.2575 *     5.0036 *  0.0000     1          
   564  Cl    s      6.7617 *    -5.0036 *     2.7498 *  0.0000     2          
   565  O     s      0.0000      -2.7498 *    -8.5197 *  0.0000     1          
   566  Cl    s      2.2539 *     8.5197 *    -1.7580 *  0.0000     2          
   567  Cl    s      2.2539 *    -5.0036 *     7.2575 *  0.0000     2          
   568  O     s     -4.5078 *     6.2658 *     5.0036 *  0.0000     2          
   569  O     s      9.0156 *     1.7580 *     0.4959 *  0.0000     2          
   570  Cl    s      2.2539 *     8.5197 *     2.7498 *  0.0000     2          
   571  Cl    s      6.7617 *    -0.4959 *    -6.2658 *  0.0000     2          
   572  O     s     -4.5078 *    -7.2575 *    -4.0119 *  0.0000     2          
   573  O     s      9.0156 *    -2.7498 *     0.4959 *  0.0000     2          
   574  O     s      0.0000       1.7580 *     9.5114 *  0.0000     1          
   575  O     s     -4.5078 *     1.7580 *    -8.5197 *  0.0000     2          
   576  O     s      0.0000      -2.7498 *     9.5114 *  0.0000     1          
   577  O     s     -4.5078 *    -7.2575 *     5.0036 *  0.0000     2          
   578  Cl    s      2.2539 *    -9.5114 *    -1.7580 *  0.0000     2          
   579  Cl    s      6.7617 *    -0.4959 *     7.2575 *  0.0000     2          
   580  O     s      9.0156 *     1.7580 *    -4.0119 *  0.0000     2          
   581  O     s      4.5078 *    -2.7498 *    -8.5197 *  0.0000     2          
   582  Cl    s      6.7617 *     4.0119 *    -6.2658 *  0.0000     2          
   583  Cl    s      2.2539 *    -9.5114 *     2.7498 *  0.0000     2          
   584  O     s      9.0156 *    -2.7498 *    -4.0119 *  0.0000     2          
   585  O     s      9.0156 *     1.7580 *     5.0036 *  0.0000     2          
   586  Cl    s      6.7617 *    -5.0036 *    -6.2658 *  0.0000     2          
   587  O     s      0.0000       6.2658 *    -8.5197 *  0.0000     1          
   588  O     s     -4.5078 *     1.7580 *     9.5114 *  0.0000     2          
   589  O     s      9.0156 *    -2.7498 *     5.0036 *  0.0000     2          
   590  Cl    s      6.7617 *     4.0119 *     7.2575 *  0.0000     2          
   591  O     s      0.0000      10.7736 *     0.4959 *  0.0000     1          
   592  Cl    s      2.2539 *     8.5197 *    -6.2658 *  0.0000     2          
   593  O     s     -4.5078 *    -2.7498 *     9.5114 *  0.0000     2          
   594  O     s      9.0156 *     6.2658 *     0.4959 *  0.0000     2          
   595  Cl    s      2.2539 *    -0.4959 *   -10.7736 *  0.0000     2          
   596  Cl    s      6.7617 *     8.5197 *    -1.7580 *  0.0000     2          
   597  Cl    s      6.7617 *    -5.0036 *     7.2575 *  0.0000     2          
   598  O     s      0.0000      -7.2575 *    -8.5197 *  0.0000     1          
   599  Cl    s      6.7617 *     8.5197 *     2.7498 *  0.0000     2          
   600  O     s      0.0000       6.2658 *     9.5114 *  0.0000     1          
   601  Cl    s     11.2695 *    -0.4959 *    -1.7580 *  0.0000     2          
   602  Cl    s      2.2539 *     8.5197 *     7.2575 *  0.0000     2          
   603  O     s      0.0000      10.7736 *    -4.0119 *  0.0000     1          
   604  O     s      4.5078 *     6.2658 *    -8.5197 *  0.0000     2          
   605  O     s      9.0156 *    -7.2575 *     0.4959 *  0.0000     2          
   606  Cl    s      2.2539 *    -9.5114 *    -6.2658 *  0.0000     2          
   607  Cl    s     11.2695 *    -0.4959 *     2.7498 *  0.0000     2          
   608  O     s      4.5078 *    10.7736 *     0.4959 *  0.0000     2          
   609  O     s      9.0156 *     6.2658 *    -4.0119 *  0.0000     2          
   610  Cl    s      2.2539 *     4.0119 *   -10.7736 *  0.0000     2          
   611  O     s      0.0000     -11.7653 *     0.4959 *  0.0000     1          
   612  Cl    s      6.7617 *    -9.5114 *    -1.7580 *  0.0000     2          
   613  O     s      0.0000      10.7736 *     5.0036 *  0.0000     1          
   614  O     s      0.0000      -7.2575 *     9.5114 *  0.0000     1          
   615  Cl    s      6.7617 *    -9.5114 *     2.7498 *  0.0000     2          
   616  Cl    s      2.2539 *    -0.4959 *    11.7653 *  0.0000     2          
   617  O     s      4.5078 *    -7.2575 *    -8.5197 *  0.0000     2          
   618  O     s      9.0156 *     6.2658 *     5.0036 *  0.0000     2          
   619  Cl    s     11.2695 *     4.0119 *    -1.7580 *  0.0000     2          
   620  Cl    s      2.2539 *    -5.0036 *   -10.7736 *  0.0000     2          
   621  Cl    s      2.2539 *    -9.5114 *     7.2575 *  0.0000     2          
   622  O     s     -4.5078 *     6.2658 *     9.5114 *  0.0000     2          
   623  O     s      9.0156 *    -7.2575 *    -4.0119 *  0.0000     2          
   624  Cl    s     11.2695 *     4.0119 *     2.7498 *  0.0000     2          
   625  O     s      4.5078 *    10.7736 *    -4.0119 *  0.0000     2          
   626  O     s      0.0000     -11.7653 *    -4.0119 *  0.0000     1          
   627  Cl    s     11.2695 *    -5.0036 *    -1.7580 *  0.0000     2          
   628  O     s      9.0156 *     1.7580 *    -8.5197 *  0.0000     2          
   629  Cl    s      6.7617 *     8.5197 *    -6.2658 *  0.0000     2          
   630  O     s      9.0156 *    -7.2575 *     5.0036 *  0.0000     2          
   631  O     s      4.5078 *   -11.7653 *     0.4959 *  0.0000     2          
   632  Cl    s     11.2695 *    -5.0036 *     2.7498 *  0.0000     2          
   633  Cl    s      2.2539 *     4.0119 *    11.7653 *  0.0000     2          
   634  O     s      4.5078 *    10.7736 *     5.0036 *  0.0000     2          
   635  O     s      9.0156 *    -2.7498 *    -8.5197 *  0.0000     2          
   636  Cl    s      6.7617 *    -0.4959 *   -10.7736 *  0.0000     2          
   637  O     s     -4.5078 *    -7.2575 *     9.5114 *  0.0000     2          
   638  O     s      0.0000     -11.7653 *     5.0036 *  0.0000     1          
   639  Cl    s     11.2695 *    -0.4959 *    -6.2658 *  0.0000     2          
   640  Cl    s      2.2539 *    -5.0036 *    11.7653 *  0.0000     2          
   641  Cl    s      6.7617 *     8.5197 *     7.2575 *  0.0000     2          
   642  O     s      0.0000       1.7580 *   -13.0275 *  0.0000     1          
   643  O     s      9.0156 *     1.7580 *     9.5114 *  0.0000     2          
   644  O     s      4.5078 *   -11.7653 *    -4.0119 *  0.0000     2          
   645  Cl    s      6.7617 *    -9.5114 *    -6.2658 *  0.0000     2          
   646  O     s      0.0000      -2.7498 *   -13.0275 *  0.0000     1          
   647  Cl    s      2.2539 *    13.0275 *    -1.7580 *  0.0000     2          
   648  Cl    s      6.7617 *     4.0119 *   -10.7736 *  0.0000     2          
   649  O     s      9.0156 *    -2.7498 *     9.5114 *  0.0000     2          
[...]
    653 y        -11.269468    -11.256565     0.012903    Cartesian   -0.11
    653 z          6.761681      6.737613    -0.024068    Cartesian   -0.36
    654 x          9.015574      9.049460     0.033885    Cartesian    0.38
    654 y          0.000000      0.000544     0.000544    Cartesian    0.00
    654 z         13.523362     13.546056     0.022695    Cartesian    0.17
    655 x         15.777255     15.772905    -0.004350    Cartesian   -0.03
    655 y          2.253894      2.240082    -0.013812    Cartesian   -0.61
    655 z          2.253894      2.250464    -0.003429    Cartesian   -0.15
    656 x          9.015574      9.041352     0.025777    Cartesian    0.29
    656 y         -4.507787     -4.532308    -0.024521    Cartesian    0.54
    656 z         -9.015574     -9.013429     0.002145    Cartesian   -0.02
    657 x          2.253894      2.253894     0.000000    Cartesian    0.00
    657 y         11.269468     11.261019    -0.008449    Cartesian   -0.07
    657 z         -6.761681     -6.743026     0.018655    Cartesian   -0.28
    658 x          9.015574      9.024450     0.008875    Cartesian    0.10
    658 y         -9.015574     -9.017335    -0.001761    Cartesian    0.02
    658 z          9.015574      9.036021     0.020446    Cartesian    0.23
    659 x         15.777255     15.774504    -0.002751    Cartesian   -0.02
    659 y         -2.253894     -2.245277     0.008617    Cartesian   -0.38
    659 z          2.253894      2.246201    -0.007692    Cartesian   -0.34
    660 x         13.523362     13.555455     0.032093    Cartesian    0.24
    660 y         -4.507787     -4.537823    -0.030036    Cartesian    0.67
    660 z         -4.507787     -4.492184     0.015604    Cartesian   -0.35
    661 x          6.761681      6.767812     0.006131    Cartesian    0.09
    661 y          2.253894      2.236787    -0.017107    Cartesian   -0.76
    661 z        -11.269468    -11.253964     0.015505    Cartesian   -0.14
    662 x         11.269468     11.264117    -0.005351    Cartesian   -0.05
    662 y          6.761681      6.758653    -0.003027    Cartesian   -0.04
    662 z         -6.761681     -6.734794     0.026887    Cartesian   -0.40
    663 x          4.507787      4.515808     0.008021    Cartesian    0.18
    663 y          9.015574      9.041300     0.025726    Cartesian    0.29
    663 z         -9.015574     -9.050596    -0.035022    Cartesian    0.39
    664 x         13.523362     13.564497     0.041136    Cartesian    0.30
    664 y          4.507787      4.492523    -0.015264    Cartesian   -0.34
    664 z          9.015574      9.034505     0.018930    Cartesian    0.21
    665 x         11.269468     11.272881     0.003413    Cartesian    0.03
    665 y         11.269468     11.252501    -0.016967    Cartesian   -0.15
    665 z          2.253894      2.245862    -0.008032    Cartesian   -0.36
    666 x          6.761681      6.767413     0.005732    Cartesian    0.08
    666 y         -2.253894     -2.226564     0.027330    Cartesian   -1.21
    666 z        -11.269468    -11.252937     0.016531    Cartesian   -0.15
    667 x          2.253894      2.253894     0.000000    Cartesian    0.00
    667 y          2.253894      2.246728    -0.007166    Cartesian   -0.32
    667 z         15.777255     15.784509     0.007254    Cartesian    0.05
    668 x          9.015574      9.027382     0.011807    Cartesian    0.13
    668 y          4.507787      4.525038     0.017251    Cartesian    0.38
    668 z         13.523362     13.569861     0.046499    Cartesian    0.34
    669 x         15.777255     15.772639    -0.004616    Cartesian   -0.03
    669 y          2.253894      2.239779    -0.014115    Cartesian   -0.63
    669 z         -2.253894     -2.235521     0.018373    Cartesian   -0.82
    670 x         13.523362     13.574787     0.051425    Cartesian    0.38
    670 y          9.015574      9.044571     0.028997    Cartesian    0.32
    670 z          0.000000     -0.000098    -0.000098    Cartesian    0.00
    671 x          2.253894      2.253894     0.000000    Cartesian    0.00
    671 y         -2.253894     -2.238633     0.015261    Cartesian   -0.68
    671 z         15.777255     15.767610    -0.009645    Cartesian   -0.06
    672 x          4.507787      4.548622     0.040835    Cartesian    0.91
    672 y        -13.523362    -13.531702    -0.008340    Cartesian    0.06
    672 z          0.000000     -0.000028    -0.000028    Cartesian    0.00
    673 x         13.523362     13.559822     0.036460    Cartesian    0.27
    673 y         -4.507787     -4.500112     0.007676    Cartesian   -0.17
    673 z          9.015574      9.040655     0.025081    Cartesian    0.28
    674 x          2.253894      2.253894     0.000000    Cartesian    0.00
    674 y         11.269468     11.266670    -0.002798    Cartesian   -0.02
    674 z         11.269468     11.256460    -0.013008    Cartesian   -0.12
    675 x         11.269468     11.264248    -0.005220    Cartesian   -0.05
    675 y         -6.761681     -6.755325     0.006355    Cartesian   -0.09
    675 z         -6.761681     -6.734266     0.027415    Cartesian   -0.41
    676 x         15.777255     15.774517    -0.002739    Cartesian   -0.02
    676 y         -2.253894     -2.236169     0.017725    Cartesian   -0.79
    676 z         -2.253894     -2.239608     0.014285    Cartesian   -0.63
    677 x         13.523362     13.547424     0.024063    Cartesian    0.18
    677 y          9.015574      9.019600     0.004025    Cartesian    0.04
    677 z          4.507787      4.520506     0.012719    Cartesian    0.28
    678 x          2.253894      2.253894     0.000000    Cartesian    0.00
    678 y          6.761681      6.779220     0.017539    Cartesian    0.26
    678 z        -11.269468    -11.249867     0.019601    Cartesian   -0.17
    679 x          6.761681      6.763472     0.001791    Cartesian    0.03
    679 y         11.269468     11.266511    -0.002957    Cartesian   -0.03
    679 z         -6.761681     -6.732447     0.029234    Cartesian   -0.43
    680 x          4.507787      4.470084    -0.037703    Cartesian   -0.84
    680 y        -13.523362    -13.557904    -0.034543    Cartesian    0.26
    680 z          4.507787      4.513972     0.006185    Cartesian    0.14
    681 x          9.015574      9.025772     0.010198    Cartesian    0.11
    681 y         -4.507787     -4.520259    -0.012472    Cartesian    0.28
    681 z         13.523362     13.563782     0.040420    Cartesian    0.30
    682 x         11.269468     11.271055     0.001587    Cartesian    0.01
    682 y          6.761681      6.739849    -0.021832    Cartesian   -0.32
    682 z         11.269468     11.260426    -0.009042    Cartesian   -0.08
    683 x          2.253894      2.253894     0.000000    Cartesian    0.00
    683 y        -11.269468    -11.247292     0.022176    Cartesian   -0.20
    683 z         -6.761681     -6.774973    -0.013293    Cartesian    0.20
    684 x         15.777255     15.775200    -0.002055    Cartesian   -0.01
    684 y          2.253894      2.248435    -0.005459    Cartesian   -0.24
    684 z          6.761681      6.743406    -0.018275    Cartesian   -0.27
    685 x          4.507787      4.517923     0.010136    Cartesian    0.22
    685 y         -9.015574     -9.047380    -0.031806    Cartesian    0.35
    685 z         -9.015574     -9.021935    -0.006360    Cartesian    0.07
    686 x         11.269468     11.266353    -0.003115    Cartesian   -0.03
    686 y         11.269468     11.261981    -0.007487    Cartesian   -0.07
    686 z         -2.253894     -2.238749     0.015145    Cartesian   -0.67
    687 x          4.507787      4.525983     0.018196    Cartesian    0.40
    687 y         13.523362     13.547726     0.024364    Cartesian    0.18
    687 z         -4.507787     -4.507578     0.000209    Cartesian   -0.00
    688 x         15.777255     15.774793    -0.002462    Cartesian   -0.02
    688 y         -2.253894     -2.252095     0.001799    Cartesian   -0.08
    688 z          6.761681      6.741942    -0.019739    Cartesian   -0.29
    689 x          4.507787      4.500172    -0.007616    Cartesian   -0.17
    689 y          9.015574      9.037380     0.021806    Cartesian    0.24
    689 z         13.523362     13.548400     0.025038    Cartesian    0.19
    690 x          9.015574      9.010220    -0.005354    Cartesian   -0.06
    690 y         13.523362     13.587023     0.063661    Cartesian    0.47
    690 z          0.000000     -0.018840    -0.018840    Cartesian    0.00
    691 x          6.761681      6.764144     0.002463    Cartesian    0.04
    691 y          2.253894      2.277779     0.023885    Cartesian    1.06
    691 z         15.777255     15.763487    -0.013768    Cartesian   -0.09
    692 x         11.269468     11.270856     0.001388    Cartesian    0.01
    692 y        -11.269468    -11.255532     0.013936    Cartesian   -0.12
    692 z          2.253894      2.238070    -0.015824    Cartesian   -0.70
    693 x         13.523362     13.566381     0.043019    Cartesian    0.32
    693 y         -9.015574     -9.043289    -0.027715    Cartesian    0.31
    693 z          0.000000     -0.004366    -0.004366    Cartesian    0.00
    694 x         11.269468     11.267194    -0.002274    Cartesian   -0.02
    694 y         11.269468     11.256784    -0.012684    Cartesian   -0.11
    694 z          6.761681      6.767799     0.006118    Cartesian    0.09
    695 x          2.253894      2.253894     0.000000    Cartesian    0.00
    695 y         -6.761681     -6.747012     0.014669    Cartesian   -0.22
    695 z        -11.269468    -11.268299     0.001169    Cartesian   -0.01
    696 x         15.777255     15.779280     0.002024    Cartesian    0.01
    696 y          6.761681      6.739234    -0.022446    Cartesian   -0.33
    696 z          2.253894      2.254993     0.001099    Cartesian    0.05
    697 x          9.015574      9.045337     0.029763    Cartesian    0.33
    697 y         13.523362     13.534921     0.011560    Cartesian    0.09
    697 z          4.507787      4.498282    -0.009506    Cartesian   -0.21
    698 x          6.761681      6.761041    -0.000640    Cartesian   -0.01
    698 y         -2.253894     -2.278855    -0.024961    Cartesian    1.11
    698 z         15.777255     15.760739    -0.016516    Cartesian   -0.10
    699 x         11.269468     11.272148     0.002680    Cartesian    0.02
    699 y         -6.761681     -6.746467     0.015214    Cartesian   -0.23
    699 z         11.269468     11.265333    -0.004135    Cartesian   -0.04
    700 x         13.523362     13.522900    -0.000461    Cartesian   -0.00
    700 y         -9.015574     -9.023922    -0.008348    Cartesian    0.09
    700 z          4.507787      4.505754    -0.002034    Cartesian   -0.05
    701 x          6.761681      6.759439    -0.002241    Cartesian   -0.03
    701 y         11.269468     11.250983    -0.018485    Cartesian   -0.16
    701 z         11.269468     11.273656     0.004188    Cartesian    0.04
    702 x          4.507787      4.512711     0.004923    Cartesian    0.11
    702 y         13.523362     13.589036     0.065675    Cartesian    0.49
    702 z          9.015574      9.016673     0.001098    Cartesian    0.01
    703 x          2.253894      2.253894     0.000000    Cartesian    0.00
    703 y        -11.269468    -11.273533    -0.004065    Cartesian    0.04
    703 z         11.269468     11.242850    -0.026618    Cartesian   -0.24
    704 x          6.761681      6.765857     0.004176    Cartesian    0.06
    704 y          6.761681      6.766596     0.004915    Cartesian    0.07
    704 z        -11.269468    -11.251930     0.017538    Cartesian   -0.16
    705 x          6.761681      6.765623     0.003942    Cartesian    0.06
    705 y        -11.269468    -11.273120    -0.003652    Cartesian    0.03
    705 z         -6.761681     -6.741102     0.020579    Cartesian   -0.30
    706 x          2.253894      2.253894     0.000000    Cartesian    0.00
    706 y         15.777255     15.767012    -0.010244    Cartesian   -0.06
    706 z          2.253894      2.233907    -0.019987    Cartesian   -0.89
    707 x          4.507787      4.518903     0.011116    Cartesian    0.25
    707 y         -9.015574     -9.030289    -0.014715    Cartesian    0.16
    707 z         13.523362     13.550716     0.027355    Cartesian    0.20
    708 x          9.015574      9.027702     0.012128    Cartesian    0.13
    708 y          9.015574      9.022669     0.007095    Cartesian    0.08
    708 z         -9.015574     -9.055337    -0.039762    Cartesian    0.44
    709 x          2.253894      2.253894     0.000000    Cartesian    0.00
    709 y          6.761681      6.761314    -0.000367    Cartesian   -0.01
    709 z         15.777255     15.769225    -0.008030    Cartesian   -0.05
    710 x         11.269468     11.270118     0.000650    Cartesian    0.01
    710 y        -11.269468    -11.267122     0.002346    Cartesian   -0.02
    710 z         -2.253894     -2.239562     0.014331    Cartesian   -0.64
    711 x         15.777255     15.776425    -0.000830    Cartesian   -0.01
    711 y         -6.761681     -6.751614     0.010067    Cartesian   -0.15
    711 z          2.253894      2.243655    -0.010239    Cartesian   -0.45
    712 x         15.777255     15.776655    -0.000601    Cartesian   -0.00
    712 y          6.761681      6.764841     0.003160    Cartesian    0.05
    712 z         -2.253894     -2.240276     0.013618    Cartesian   -0.60
    713 x         13.523362     13.569185     0.045823    Cartesian    0.34
    713 y          9.015574      9.024484     0.008909    Cartesian    0.10
    713 z         -4.507787     -4.512650    -0.004863    Cartesian    0.11
    714 x          4.507787      4.552890     0.045103    Cartesian    1.00
    714 y          0.000000     -0.020381    -0.020381    Cartesian    0.00
    714 z        -13.523362    -13.551567    -0.028206    Cartesian    0.21
    715 x          4.507787      4.526720     0.018933    Cartesian    0.42
    715 y        -13.523362    -13.559933    -0.036571    Cartesian    0.27
    715 z         -4.507787     -4.509280    -0.001492    Cartesian    0.03
    716 x          6.761681      6.766053     0.004372    Cartesian    0.06
    716 y         -6.761681     -6.771606    -0.009926    Cartesian    0.15
    716 z        -11.269468    -11.250153     0.019315    Cartesian   -0.17
    717 x         13.523362     13.533670     0.010309    Cartesian    0.08
    717 y          0.000000     -0.007422    -0.007422    Cartesian    0.00
    717 z         -9.015574     -9.035649    -0.020074    Cartesian    0.22
    718 x         11.269468     11.269173    -0.000295    Cartesian   -0.00
    718 y        -11.269468    -11.255769     0.013699    Cartesian   -0.12
    718 z          6.761681      6.770497     0.008816    Cartesian    0.13
    719 x          9.015574      9.041377     0.025803    Cartesian    0.29
    719 y        -13.523362    -13.588363    -0.065001    Cartesian    0.48
    719 z          0.000000      0.007753     0.007753    Cartesian    0.00
    720 x         15.777255     15.777208    -0.000047    Cartesian   -0.00
    720 y          6.761681      6.750250    -0.011430    Cartesian   -0.17
    720 z          6.761681      6.765266     0.003585    Cartesian    0.05
    721 x          2.253894      2.253894     0.000000    Cartesian    0.00
    721 y         -6.761681     -6.777793    -0.016112    Cartesian    0.24
    721 z         15.777255     15.749681    -0.027574    Cartesian   -0.17
    722 x          6.761681      6.764485     0.002804    Cartesian    0.04
    722 y        -11.269468    -11.247450     0.022018    Cartesian   -0.20
    722 z         11.269468     11.278884     0.009416    Cartesian    0.08
    723 x          2.253894      2.253894     0.000000    Cartesian    0.00
    723 y         15.777255     15.773211    -0.004044    Cartesian   -0.03
    723 z         -2.253894     -2.244176     0.009717    Cartesian   -0.43
    724 x          9.015574      9.004297    -0.011278    Cartesian   -0.13
    724 y        -13.523362    -13.511037     0.012324    Cartesian   -0.09
    724 z          4.507787      4.522977     0.015190    Cartesian    0.34
    725 x         15.777255     15.773016    -0.004239    Cartesian   -0.03
    725 y         -6.761681     -6.762447    -0.000766    Cartesian    0.01
    725 z         -2.253894     -2.249583     0.004310    Cartesian   -0.19
    726 x        -13.523362    -13.593021    -0.069659    Cartesian    0.52
    726 y          0.000000     -0.007431    -0.007431    Cartesian    0.00
    726 z          0.000000      0.005601     0.005601    Cartesian    0.00
    727 x          9.015574      9.026122     0.010548    Cartesian    0.12
    727 y         -9.015574     -9.043251    -0.027677    Cartesian    0.31
    727 z         -9.015574     -9.027050    -0.011476    Cartesian    0.13
    728 x         13.523362     13.544661     0.021300    Cartesian    0.16
    728 y          9.015574      9.010737    -0.004838    Cartesian   -0.05
    728 z          9.015574      9.035597     0.020023    Cartesian    0.22
    729 x          6.761681      6.768035     0.006354    Cartesian    0.09
    729 y         15.777255     15.768661    -0.008594    Cartesian   -0.05
    729 z          2.253894      2.247461    -0.006432    Cartesian   -0.29
    730 x         11.269468     11.272138     0.002670    Cartesian    0.02
    730 y          2.253894      2.262489     0.008595    Cartesian    0.38
    730 z        -11.269468    -11.252456     0.017012    Cartesian   -0.15
    731 x          4.507787      4.498847    -0.008940    Cartesian   -0.20
    731 y        -13.523362    -13.552896    -0.029534    Cartesian    0.22
    731 z          9.015574      9.035925     0.020350    Cartesian    0.23
    732 x          9.015574      8.991680    -0.023894    Cartesian   -0.27
    732 y         13.523362     13.536322     0.012960    Cartesian    0.10
    732 z         -4.507787     -4.532570    -0.024783    Cartesian    0.55
    733 x          4.507787      4.487670    -0.020117    Cartesian   -0.45
    733 y          4.507787      4.511096     0.003308    Cartesian    0.07
    733 z        -13.523362    -13.560704    -0.037343    Cartesian    0.28
--------------------------------------------------------------------------------


  Time to end of optimisation  =      644.4985 seconds


  Peak dynamic memory used =     511.99 MB 


  Timing analysis for GULP :

--------------------------------------------------------------------------------
  Task / Subroutine                                          Time (Seconds)
--------------------------------------------------------------------------------
  Calculation of reciprocal space energy and derivatives          0.0004
  Calculation of reciprocal space energy using symmetry           0.0006
  Calculation of real space energy and derivatives                0.0021
  Calculation of real space energy using symmetry                 0.0048
  Calculation for region 1 energy and derivatives (2-b)         353.3733
  Calculation for region 2a energy                              181.8260
  Calculation for region 2b energy                                0.0246
  Calculation and manipulation of Hessian matrix                  1.8553
  Calculation of matrix inversion                               105.2521
  Symmetry generation of equivalent positions                     0.0025
--------------------------------------------------------------------------------
  Total CPU time                                                644.4986
--------------------------------------------------------------------------------


  Dump file written as Na3OCl.grs


  Job Finished at 20:49.37 30th November   2020                               

