********************************************************************************
*                       GENERAL UTILITY LATTICE PROGRAM                        *
*                                 Julian Gale                                  *
*                       Curtin Institute for Computation                       *
*                    School of Molecular and Life Sciences                     *
*                    Curtin University, Western Australia                      *
********************************************************************************
* Version = 5.2.0 * Last modified =  10th September 2020                       *
********************************************************************************
*  optimise     - perform optimisation run                                     *
*  conp         - constant pressure calculation                                *
*  property     - calculate properties for final geometry                      *
*  defect       - perform defect calculation after bulk run                    *
*  compare      - compare initial and final structures                         *
********************************************************************************

  Job Started  at 20:52.45 30th November   2020                               

  Number of CPUs =     1


  Total number of configurations input =      1

********************************************************************************
*  Input for Configuration =   1                                               *
********************************************************************************

  Formula = ClONa3                                                      

  Number of irreducible atoms/shells =       5


  Total number atoms/shells =       7

  Dimensionality = 3               :  Bulk   


  Symmetry :

  Crystal family                   :  Cubic       
  Crystal class  (Groth - 1921)    :  Cubic Hexakisoctahedral              

  Space group (centrosymmetric)    :  P M 3 M         

  Patterson group                  :  P m -3 m 

  Cartesian lattice vectors (Angstroms) :

        4.504000    0.000000    0.000000
        0.000000    4.504000    0.000000
        0.000000    0.000000    4.504000

  Cell parameters (Angstroms/Degrees):

  a =       4.5040    alpha =  90.0000
  b =       4.5040    beta  =  90.0000
  c =       4.5040    gamma =  90.0000

  Initial cell volume =          91.368216 Angs**3

  Temperature of configuration =   0.00     K 

  Pressure of configuration =         0.000 GPa 

  Fractional coordinates of asymmetric unit :

--------------------------------------------------------------------------------
   No.  Atomic       x           y          z         Charge      Occupancy
        Label      (Frac)      (Frac)     (Frac)        (e)         (Frac)  
--------------------------------------------------------------------------------
      1 Cl    c    0.000000    0.000000    0.000000     1.48500    1.000000    
      2 O     c    0.500000    0.500000    0.500000     0.18300    1.000000    
      3 Na    c    0.500000    0.500000    0.000000     1.00000    1.000000    
      4 Cl    s    0.000000    0.000000    0.000000    -2.48500    1.000000    
      5 O     s    0.500000    0.500000    0.500000    -2.18300    1.000000    
--------------------------------------------------------------------------------


  Constraints : 

--------------------------------------------------------------------------------
  Constraint no.      Unconstrained     Constrained    Coefficient    Offset
                         Variable         Variable
--------------------------------------------------------------------------------
           1              Strain 1        Strain 2       1.00000      0.0000
           2              Strain 1        Strain 3       1.00000      0.0000
--------------------------------------------------------------------------------


********************************************************************************
*  General input information                                                   *
********************************************************************************

  Species output for all configurations : 

--------------------------------------------------------------------------------
  Species    Type    Atomic    Atomic    Charge       Radii (Angs)     Library
                     Number     Mass       (e)     Cova   Ionic  VDW   Symbol
--------------------------------------------------------------------------------
    Na       Core       11      22.99   1.000000   0.970  0.000  2.300          
    O        Core        8      16.00   0.183000   0.730  0.000  1.360          
    O        Shell       8       0.00  -2.183000   0.730  0.000  1.360          
    Cl       Core       17      35.45   1.485000   0.990  0.000  1.650          
    Cl       Shell      17       0.00  -2.485000   0.990  0.000  1.650          
    Mg       Core       12      24.31   0.415000   1.100  0.000  0.000          
    Mg       Shell      12       0.00   1.585000   1.100  0.000  0.000          
    Ca       Core       20      40.08  -1.135000   0.990  0.000  0.000          
    Ca       Shell      20       0.00   3.135000   0.990  0.000  0.000          
    Sr       Core       38      87.62  -1.251000   1.120  0.000  0.000          
    Sr       Shell      38       0.00   3.251000   1.120  0.000  0.000          
    Ba       Core       56     137.33  -7.203000   1.340  0.000  0.000          
    Ba       Shell      56       0.00   9.203000   1.340  0.000  0.000          
--------------------------------------------------------------------------------


  Lattice summation method               =    Ewald          (3-D)
                                         =    Parry          (2-D)
                                         =    Saunders et al (1-D)
  Accuracy factor for lattice sums       =   12.000


  Analytic derivatives to be used

  Time limit = Infinity

  Maximum range for interatomic potentials =    100000.000000 Angstroms

  General interatomic potentials :

--------------------------------------------------------------------------------
Atom  Types   Potential      Parameter       Value         Units   Cutoffs(Ang)
  1     2                                                            Min /  Max 
--------------------------------------------------------------------------------
O    c O    s Spring (c-s)  Spring k 2       593.71600    eV*Ang^-2 0.000  0.800
                            Spring k 4       0.0000000    eV*Ang^-4 
--------------------------------------------------------------------------------
Cl   c Cl   s Spring (c-s)  Spring k 2       29.380000    eV*Ang^-2 0.000  0.800
                            Spring k 4       0.0000000    eV*Ang^-4 
--------------------------------------------------------------------------------
Mg   c Mg   s Spring (c-s)  Spring k 2       361.60000    eV*Ang^-2 0.000  0.800
                            Spring k 4       0.0000000    eV*Ang^-4 
--------------------------------------------------------------------------------
Ca   c Ca   s Spring (c-s)  Spring k 2       110.20000    eV*Ang^-2 0.000  0.800
                            Spring k 4       0.0000000    eV*Ang^-4 
--------------------------------------------------------------------------------
Sr   c Sr   s Spring (c-s)  Spring k 2       71.700000    eV*Ang^-2 0.000  0.800
                            Spring k 4       0.0000000    eV*Ang^-4 
--------------------------------------------------------------------------------
Ba   c Ba   s Spring (c-s)  Spring k 2       495.20000    eV*Ang^-2 0.000  0.800
                            Spring k 4       0.0000000    eV*Ang^-4 
--------------------------------------------------------------------------------
Na   c Na   c Buckingham    Buckingham A     1788.1900    eV        0.000 12.000
                            Buckingham rho  0.15900000    Ang       
                            Buckingham C     0.0000000    eV*Ang^6  
--------------------------------------------------------------------------------
Na   c O    s Buckingham    Buckingham A     1226.8400    eV        0.000 12.000
                            Buckingham rho  0.30700000    Ang       
                            Buckingham C     0.0000000    eV*Ang^6  
--------------------------------------------------------------------------------
Na   c Cl   s Buckingham    Buckingham A     2314.7000    eV        0.000 12.000
                            Buckingham rho  0.29000000    Ang       
                            Buckingham C     0.0000000    eV*Ang^6  
--------------------------------------------------------------------------------
O    s O    s Buckingham    Buckingham A     22764.300    eV        0.000 12.000
                            Buckingham rho  0.14900000    Ang       
                            Buckingham C     13.190000    eV*Ang^6  
--------------------------------------------------------------------------------
O    s Cl   s Buckingham    Buckingham A     8286.9100    eV        0.000 12.000
                            Buckingham rho  0.25900000    Ang       
                            Buckingham C     62.200000    eV*Ang^6  
--------------------------------------------------------------------------------
Cl   s Cl   s Buckingham    Buckingham A     1227.2000    eV        0.000 12.000
                            Buckingham rho  0.32100000    Ang       
                            Buckingham C     14.530000    eV*Ang^6  
--------------------------------------------------------------------------------
O    s Mg   s Buckingham    Buckingham A     1428.5000    eV        0.000 12.000
                            Buckingham rho  0.29450000    Ang       
                            Buckingham C     0.0000000    eV*Ang^6  
--------------------------------------------------------------------------------
Mg   s Cl   s Buckingham    Buckingham A     4914.5400    eV        0.000 12.000
                            Buckingham rho  0.25700000    Ang       
                            Buckingham C     0.0000000    eV*Ang^6  
--------------------------------------------------------------------------------
O    s Ca   s Buckingham    Buckingham A     1090.4000    eV        0.000 12.000
                            Buckingham rho  0.34370000    Ang       
                            Buckingham C     0.0000000    eV*Ang^6  
--------------------------------------------------------------------------------
Cl   s Ca   s Buckingham    Buckingham A     2302.0000    eV        0.000 12.000
                            Buckingham rho  0.34020000    Ang       
                            Buckingham C     0.0000000    eV*Ang^6  
--------------------------------------------------------------------------------
O    s Sr   s Buckingham    Buckingham A     959.10000    eV        0.000 12.000
                            Buckingham rho  0.37210000    Ang       
                            Buckingham C     0.0000000    eV*Ang^6  
--------------------------------------------------------------------------------
Cl   s Sr   s Buckingham    Buckingham A     2191.0900    eV        0.000 12.000
                            Buckingham rho  0.34570000    Ang       
                            Buckingham C     0.0000000    eV*Ang^6  
--------------------------------------------------------------------------------
O    s Ba   s Buckingham    Buckingham A     905.70000    eV        0.000 12.000
                            Buckingham rho  0.39760000    Ang       
                            Buckingham C     0.0000000    eV*Ang^6  
--------------------------------------------------------------------------------
Cl   s Ba   s Buckingham    Buckingham A     2704.5500    eV        0.000 12.000
                            Buckingham rho  0.35280000    Ang       
                            Buckingham C     0.0000000    eV*Ang^6  
--------------------------------------------------------------------------------

********************************************************************************
*  Output for configuration   1                                                *
********************************************************************************


  Components of energy : 

--------------------------------------------------------------------------------
  Interatomic potentials     =           5.13022605 eV    
  Monopole - monopole (real) =         -10.03624526 eV    
  Monopole - monopole (recip)=         -29.53581274 eV    
  Monopole - monopole (total)=         -39.57205800 eV    
--------------------------------------------------------------------------------
  Total lattice energy       =         -34.44183194 eV    
--------------------------------------------------------------------------------
  Total lattice energy       =           -3323.1103 kJ/(mole unit cells)
--------------------------------------------------------------------------------


  Number of variables =        1

  Maximum number of calculations  =          1000
  Maximum Hessian update interval =            10
  Maximum step size               =   1.000000000
  Maximum parameter tolerance     =   0.000010000
  Maximum function  tolerance     =   0.000010000
  Maximum gradient  tolerance     =   0.001000000
  Maximum gradient  component     =   0.010000000

  Symmetry constrained optimisation

  Symmetry used for second derivatives

  Cell parameters to be optimised using strains

  Newton-Raphson optimiser to be used

  BFGS hessian update to be used

  Lower half triangular hessian to be used

  Start of bulk optimisation :

  Cycle:      0 Energy:       -34.441832  Gnorm:      0.196570  CPU:    0.017
  ** Hessian calculated **
  Cycle:      1 Energy:       -34.441914  Gnorm:      0.000103  CPU:    0.022


  **** Optimisation achieved ****


  Final energy =     -34.44191447 eV
  Final Gnorm  =       0.00000000

  Components of energy : 

--------------------------------------------------------------------------------
  Interatomic potentials     =           5.09689708 eV    
  Monopole - monopole (real) =         -10.02781331 eV    
  Monopole - monopole (recip)=         -29.51099824 eV    
  Monopole - monopole (total)=         -39.53881155 eV    
--------------------------------------------------------------------------------
  Total lattice energy       =         -34.44191447 eV    
--------------------------------------------------------------------------------
  Total lattice energy       =           -3323.1183 kJ/(mole unit cells)
--------------------------------------------------------------------------------

  Final asymmetric unit coordinates :

--------------------------------------------------------------------------------
   No.  Atomic        x           y           z         Radius
        Label       (Frac)      (Frac)      (Frac)       (Angs) 
--------------------------------------------------------------------------------
     1  Cl    c     0.000000    0.000000    0.000000    0.000000
     2  O     c     0.500000    0.500000    0.500000    0.000000
     3  Na    c     0.500000    0.500000    0.000000    0.000000
     4  Cl    s     0.000000    0.000000    0.000000    0.000000
     5  O     s     0.500000    0.500000    0.500000    0.000000
--------------------------------------------------------------------------------

  Final Cartesian lattice vectors (Angstroms) :

        4.507787    0.000000    0.000000
        0.000000    4.507787    0.000000
        0.000000    0.000000    4.507787


  Final cell parameters and derivatives :

--------------------------------------------------------------------------------
       a            4.507787 Angstrom     dE/de1(xx)     0.000000 eV/strain
       b            4.507787 Angstrom     dE/de2(yy)     0.000000 eV/strain
       c            4.507787 Angstrom     dE/de3(zz)     0.000000 eV/strain
       alpha       90.000000 Degrees      dE/de4(yz)     0.000000 eV/strain
       beta        90.000000 Degrees      dE/de5(xz)     0.000000 eV/strain
       gamma       90.000000 Degrees      dE/de6(xy)     0.000000 eV/strain
--------------------------------------------------------------------------------

  Primitive cell volume =            91.598892 Angs**3

  Density of cell =      2.183054 g/cm**3

  Non-primitive cell volume =            91.598892 Angs**3


  Final internal derivatives :

--------------------------------------------------------------------------------
   No.  Atomic          a             b             c           Radius
        Label          (eV)          (eV)          (eV)        (eV/Angs)
--------------------------------------------------------------------------------
      1 Cl    c       0.000000      0.000000      0.000000      0.000000
      2 O     c       0.000000      0.000000      0.000000      0.000000
      3 Na    c       0.000000      0.000000      0.000000      0.000000
      4 Cl    s       0.000000      0.000000      0.000000      0.000000
      5 O     s       0.000000      0.000000      0.000000      0.000000
--------------------------------------------------------------------------------
  Maximum abs         0.000000      0.000000      0.000000      0.000000
--------------------------------------------------------------------------------

  Comparison of initial and final structures : 

--------------------------------------------------------------------------------
  Parameter   Initial value   Final value   Difference    Units      Percent
--------------------------------------------------------------------------------
    Volume        91.368216     91.598892     0.230676    Angs**3      0.25
    a              4.504000      4.507787     0.003787    Angstroms    0.08
    b              4.504000      4.507787     0.003787    Angstroms    0.08
    c              4.504000      4.507787     0.003787    Angstroms    0.08
    alpha         90.000000     90.000000     0.000000    Degrees      0.00
    beta          90.000000     90.000000     0.000000    Degrees      0.00
    gamma         90.000000     90.000000     0.000000    Degrees      0.00
      1 x          0.000000      0.000000     0.000000    Fractional   0.00
      1 y          0.000000      0.000000     0.000000    Fractional   0.00
      1 z          0.000000      0.000000     0.000000    Fractional   0.00
      2 x          0.500000      0.500000     0.000000    Fractional   0.00
      2 y          0.500000      0.500000     0.000000    Fractional   0.00
      2 z          0.500000      0.500000     0.000000    Fractional   0.00
      3 x          0.500000      0.500000     0.000000    Fractional   0.00
      3 y          0.500000      0.500000     0.000000    Fractional   0.00
      3 z          0.000000      0.000000     0.000000    Fractional   0.00
      4 x          0.000000      0.000000     0.000000    Fractional   0.00
      4 y          0.000000      0.000000     0.000000    Fractional   0.00
      4 z          0.000000      0.000000     0.000000    Fractional   0.00
      5 x          0.500000      0.500000     0.000000    Fractional   0.00
      5 y          0.500000      0.500000     0.000000    Fractional   0.00
      5 z          0.500000      0.500000     0.000000    Fractional   0.00
--------------------------------------------------------------------------------


  Born effective charge tensors : 

-------------------------------------------------------------------------------
  Atom             x           y             z
-------------------------------------------------------------------------------
    1 Cl    x      -1.0181     -0.0000      0.0000
            y      -0.0000     -1.0181      0.0000
            z       0.0000      0.0000     -1.0181
-------------------------------------------------------------------------------
    2 O     x      -2.2647      0.0000     -0.0000
            y       0.0000     -2.2647     -0.0000
            z      -0.0000     -0.0000     -2.2647
-------------------------------------------------------------------------------
    3 Na    x       1.2258     -0.0000      0.0000
            y      -0.0000      1.2258     -0.0000
            z       0.0000     -0.0000      0.8313
-------------------------------------------------------------------------------




  Elastic Constant Matrix: (Units=GPa)

-------------------------------------------------------------------------------
  Indices      1         2         3         4         5         6    
-------------------------------------------------------------------------------
       1     95.8177   20.0737   20.0737   -0.0000   -0.0000    0.0000
       2     20.0737   95.8177   20.0737   -0.0000   -0.0000    0.0000
       3     20.0737   20.0737   95.8177   -0.0000   -0.0000    0.0000
       4     -0.0000   -0.0000   -0.0000   20.0737   -0.0000    0.0000
       5     -0.0000   -0.0000   -0.0000   -0.0000   20.0737    0.0000
       6      0.0000    0.0000    0.0000    0.0000    0.0000   20.0737
-------------------------------------------------------------------------------


  Elastic Compliance Matrix: (Units=1/GPa)

-------------------------------------------------------------------------------
  Indices      1         2         3         4         5         6    
-------------------------------------------------------------------------------
       1    0.011253 -0.001949 -0.001949  0.000000  0.000000 -0.000000
       2   -0.001949  0.011253 -0.001949  0.000000  0.000000  0.000000
       3   -0.001949 -0.001949  0.011253  0.000000  0.000000 -0.000000
       4    0.000000  0.000000  0.000000  0.049816  0.000000 -0.000000
       5    0.000000  0.000000  0.000000  0.000000  0.049816 -0.000000
       6   -0.000000  0.000000 -0.000000 -0.000000 -0.000000  0.049816
-------------------------------------------------------------------------------

  Mechanical properties :

-------------------------------------------------------------------------------
  Convention :                    Reuss         Voigt         Hill
-------------------------------------------------------------------------------
  Bulk  Modulus (GPa)     =      45.32174      45.32174      45.32174
  Shear Modulus (GPa)     =      24.72085      27.19304      25.95695
-------------------------------------------------------------------------------
  Velocity S-wave (km/s)  =       3.36511       3.52937       3.44822
  Velocity P-wave (km/s)  =       5.98827       6.11304       6.05098
-------------------------------------------------------------------------------
  Compressibility (1/GPa) =    0.02206447
-------------------------------------------------------------------------------
  Stress axis :                     x             y             z
-------------------------------------------------------------------------------
  Youngs Moduli (GPa)     =      88.86373      88.86373      88.86373
-------------------------------------------------------------------------------
  Poissons Ratio (x)      =                     0.17321       0.17321
  Poissons Ratio (y)      =       0.17321                     0.17321
  Poissons Ratio (z)      =       0.17321       0.17321
-------------------------------------------------------------------------------


  Piezoelectric Strain Matrix: (Units=C/m**2)

-------------------------------------------------------------------------------
  Indices      1         2         3         4         5         6    
-------------------------------------------------------------------------------
       x    -0.00000  -0.00000  -0.00000   0.00000  -0.00000  -0.00000
       y    -0.00000  -0.00000   0.00000  -0.00000   0.00000   0.00000
       z    -0.00000  -0.00000  -0.00000  -0.00000   0.00000   0.00000
-------------------------------------------------------------------------------


  Piezoelectric Stress Matrix: (Units=10**-11 C/N)

-------------------------------------------------------------------------------
  Indices      1         2         3         4         5         6    
-------------------------------------------------------------------------------
       x    -0.00000   0.00000   0.00000   0.00000  -0.00000  -0.00000
       y    -0.00000  -0.00000   0.00000  -0.00000   0.00000   0.00000
       z     0.00000   0.00000  -0.00000  -0.00000   0.00000   0.00000
-------------------------------------------------------------------------------


  Static dielectric constant tensor : 

-------------------------------------------------------------------------------
              x         y         z
-------------------------------------------------------------------------------
       x    22.84729   0.00000   0.00000
       y     0.00000  22.84729  -0.00000
       z     0.00000  -0.00000  22.84729
--------------------------------------------------------------------------------

  High frequency dielectric constant tensor : 

-------------------------------------------------------------------------------
              x         y         z
-------------------------------------------------------------------------------
       x     1.47557   0.00000  -0.00000
       y     0.00000   1.47557  -0.00000
       z    -0.00000  -0.00000   1.47557
-------------------------------------------------------------------------------

  Static refractive indices : 

-------------------------------------------------------------------------------
    1 =    4.77988      2 =    4.77988      3 =    4.77988
-------------------------------------------------------------------------------

  High frequency refractive indices : 

-------------------------------------------------------------------------------
    1 =    1.21473      2 =    1.21473      3 =    1.21473
-------------------------------------------------------------------------------


  Time to end of optimisation =       0.0319 seconds

********************************************************************************
*  Defect calculation for configuration   1 :                                  *
********************************************************************************

  Total number of defects =      3

  Total charge on defect  =  -1.00

  Defect centre is at   0.5000   0.1900   0.3100  Frac

  Region 1 radius =  16.0000      Number of ions =   1321

  Number of symmetry inequivalent region 1 ions  =    739

  Region 2 radius =  20.0000      Number of ions =   1254

  Number of symmetry inequivalent region 2a ions =    673

  Region 2a mode = 4 : screened electrostatics due to region 1 
                       neglect correction to region 1 forces from 2a
                       region 2a displacements based on defects only

  Region 2a ions will only interact with defects in region 1

  Vacancies:

--------------------------------------------------------------------------------
    Specification type     Symbol/Number         x          y          z
--------------------------------------------------------------------------------
    Fractional                               0.500000   0.500000   0.000000
    Fractional                               0.500000   0.000000   0.500000
--------------------------------------------------------------------------------

  Interstitials:

--------------------------------------------------------------------------------
    Specification type     Symbol/Number         x          y          z
--------------------------------------------------------------------------------
    Atom/Fractional         Na               0.500000   0.190000   0.310000
--------------------------------------------------------------------------------


  Symmetry reduced region 1 (Relative to defect centre) :

--------------------------------------------------------------------------------
   No.   Atomic       x            y             z       Radius  Multiplicity   
         Label      (Angs)       (Angs)        (Angs)    (Angs)     
--------------------------------------------------------------------------------
     1  Na    c      0.0000       0.0000       0.0000    0.0000     1    Defect
     2  O     c      0.0000       1.3974 *     0.8565 *  0.0000     1          
     3  Na    c      2.2539 *     1.3974 *     0.8565 *  0.0000     2          
     4  Cl    c      2.2539 *    -0.8565 *    -1.3974 *  0.0000     2          
     5  O     c      0.0000      -3.1104 *     0.8565 *  0.0000     1          
     6  Na    c      0.0000       1.3974 *     3.1104 *  0.0000     1          
     7  Na    c      0.0000      -3.1104 *    -1.3974 *  0.0000     1          
     8  Na    c      0.0000      -0.8565 *    -3.6513 *  0.0000     1          
     9  Na    c      0.0000       3.6513 *     0.8565 *  0.0000     1          
    10  O     c      0.0000       1.3974 *    -3.6513 *  0.0000     1          
    11  Cl    c      2.2539 *    -0.8565 *     3.1104 *  0.0000     2          
    12  Na    c      2.2539 *    -3.1104 *     0.8565 *  0.0000     2          
    13  Na    c      0.0000      -3.1104 *     3.1104 *  0.0000     1          
    14  Cl    c      2.2539 *     3.6513 *    -1.3974 *  0.0000     2          
    15  Na    c      2.2539 *     1.3974 *    -3.6513 *  0.0000     2          
    16  Na    c     -4.5078 *    -0.8565 *     0.8565 *  0.0000     2          
    17  O     c      0.0000      -3.1104 *    -3.6513 *  0.0000     1          
    18  O     c     -4.5078 *     1.3974 *     0.8565 *  0.0000     2          
    19  Na    c     -4.5078 *     1.3974 *    -1.3974 *  0.0000     2          
    20  Na    c      0.0000       3.6513 *    -3.6513 *  0.0000     1          
    21  Cl    c      2.2539 *     3.6513 *     3.1104 *  0.0000     2          
    22  Na    c      2.2539 *    -3.1104 *    -3.6513 *  0.0000     2          
    23  Na    c      0.0000      -0.8565 *     5.3643 *  0.0000     1          
    24  Na    c      0.0000      -5.3643 *     0.8565 *  0.0000     1          
    25  O     c      0.0000       1.3974 *     5.3643 *  0.0000     1          
    26  O     c     -4.5078 *    -3.1104 *     0.8565 *  0.0000     2          
    27  Na    c     -4.5078 *     1.3974 *     3.1104 *  0.0000     2          
    28  Na    c     -4.5078 *    -3.1104 *    -1.3974 *  0.0000     2          
    29  Na    c     -4.5078 *    -0.8565 *    -3.6513 *  0.0000     2          
    30  Na    c     -4.5078 *     3.6513 *     0.8565 *  0.0000     2          
    31  O     c     -4.5078 *     1.3974 *    -3.6513 *  0.0000     2          
    32  O     c      0.0000       5.9052 *     0.8565 *  0.0000     1          
    33  Na    c      2.2539 *     1.3974 *     5.3643 *  0.0000     2          
    34  Cl    c      2.2539 *    -5.3643 *    -1.3974 *  0.0000     2          
    35  Na    c      0.0000       1.3974 *    -5.9052 *  0.0000     1          
    36  Na    c      0.0000       5.9052 *    -1.3974 *  0.0000     1          
    37  O     c      0.0000      -3.1104 *     5.3643 *  0.0000     1          
    38  Na    c     -4.5078 *    -3.1104 *     3.1104 *  0.0000     2          
    39  Cl    c      2.2539 *    -0.8565 *    -5.9052 *  0.0000     2          
    40  Na    c      2.2539 *     5.9052 *     0.8565 *  0.0000     2          
    41  Na    c      0.0000       3.6513 *     5.3643 *  0.0000     1          
    42  Na    c      0.0000      -5.3643 *    -3.6513 *  0.0000     1          
    43  O     c     -4.5078 *    -3.1104 *    -3.6513 *  0.0000     2          
    44  Cl    c      2.2539 *    -5.3643 *     3.1104 *  0.0000     2          
    45  Na    c      2.2539 *    -3.1104 *     5.3643 *  0.0000     2          
    46  Na    c      0.0000       5.9052 *     3.1104 *  0.0000     1          
    47  Na    c      0.0000      -3.1104 *    -5.9052 *  0.0000     1          
    48  Na    c     -4.5078 *     3.6513 *    -3.6513 *  0.0000     2          
    49  O     c      0.0000       5.9052 *    -3.6513 *  0.0000     1          
    50  Cl    c      6.7617 *    -0.8565 *    -1.3974 *  0.0000     2          
    51  Na    c      6.7617 *     1.3974 *     0.8565 *  0.0000     2          
    52  Na    c     -4.5078 *    -0.8565 *     5.3643 *  0.0000     2          
    53  Na    c     -4.5078 *    -5.3643 *     0.8565 *  0.0000     2          
    54  O     c     -4.5078 *     1.3974 *     5.3643 *  0.0000     2          
    55  Cl    c      2.2539 *     3.6513 *    -5.9052 *  0.0000     2          
    56  Na    c      2.2539 *     5.9052 *    -3.6513 *  0.0000     2          
    57  O     c      4.5078 *     5.9052 *     0.8565 *  0.0000     2          
    58  Cl    c      6.7617 *    -0.8565 *     3.1104 *  0.0000     2          
    59  Na    c      6.7617 *    -3.1104 *     0.8565 *  0.0000     2          
    60  Na    c     -4.5078 *     1.3974 *    -5.9052 *  0.0000     2          
    61  Na    c      4.5078 *     5.9052 *    -1.3974 *  0.0000     2          
    62  Na    c      0.0000      -5.3643 *     5.3643 *  0.0000     1          
    63  O     c      0.0000      -7.6182 *     0.8565 *  0.0000     1          
    64  O     c      4.5078 *    -3.1104 *     5.3643 *  0.0000     2          
    65  Na    c      0.0000       1.3974 *     7.6182 *  0.0000     1          
    66  Na    c      0.0000      -7.6182 *    -1.3974 *  0.0000     1          
    67  Cl    c      6.7617 *     3.6513 *    -1.3974 *  0.0000     2          
    68  Na    c      6.7617 *     1.3974 *    -3.6513 *  0.0000     2          
    69  Na    c     -4.5078 *    -5.3643 *    -3.6513 *  0.0000     2          
    70  Na    c      4.5078 *     3.6513 *     5.3643 *  0.0000     2          
    71  O     c      0.0000       5.9052 *     5.3643 *  0.0000     1          
    72  Cl    c      2.2539 *    -0.8565 *     7.6182 *  0.0000     2          
    73  Na    c      2.2539 *    -7.6182 *     0.8565 *  0.0000     2          
    74  Na    c      4.5078 *     5.9052 *     3.1104 *  0.0000     2          
    75  Na    c      4.5078 *    -3.1104 *    -5.9052 *  0.0000     2          
    76  Na    c      0.0000      -0.8565 *    -8.1591 *  0.0000     1          
    77  Na    c      0.0000       8.1591 *     0.8565 *  0.0000     1          
    78  Na    c      0.0000      -3.1104 *     7.6182 *  0.0000     1          
    79  Na    c      0.0000      -7.6182 *     3.1104 *  0.0000     1          
    80  O     c      0.0000       1.3974 *    -8.1591 *  0.0000     1          
    81  O     c      4.5078 *     5.9052 *    -3.6513 *  0.0000     2          
    82  Cl    c      6.7617 *     3.6513 *     3.1104 *  0.0000     2          
    83  Na    c      2.2539 *     5.9052 *     5.3643 *  0.0000     2          
    84  Cl    c      2.2539 *    -5.3643 *    -5.9052 *  0.0000     2          
    85  Na    c      6.7617 *    -3.1104 *    -3.6513 *  0.0000     2          
    86  Na    c      0.0000       5.9052 *    -5.9052 *  0.0000     1          
    87  O     c      0.0000      -7.6182 *    -3.6513 *  0.0000     1          
    88  Cl    c      2.2539 *     8.1591 *    -1.3974 *  0.0000     2          
    89  Na    c      2.2539 *     1.3974 *    -8.1591 *  0.0000     2          
    90  O     c      0.0000      -3.1104 *    -8.1591 *  0.0000     1          
    91  Cl    c      2.2539 *     3.6513 *     7.6182 *  0.0000     2          
    92  Cl    c      6.7617 *    -5.3643 *    -1.3974 *  0.0000     2          
    93  Na    c      2.2539 *    -7.6182 *    -3.6513 *  0.0000     2          
    94  Na    c      6.7617 *     1.3974 *     5.3643 *  0.0000     2          
    95  Na    c      4.5078 *    -5.3643 *     5.3643 *  0.0000     2          
    96  O     c     -4.5078 *    -7.6182 *     0.8565 *  0.0000     2          
    97  Na    c      0.0000       3.6513 *    -8.1591 *  0.0000     1          
    98  Na    c      0.0000       8.1591 *    -3.6513 *  0.0000     1          
    99  Na    c      4.5078 *     1.3974 *     7.6182 *  0.0000     2          
   100  Na    c     -4.5078 *    -7.6182 *    -1.3974 *  0.0000     2          
   101  Cl    c      2.2539 *     8.1591 *     3.1104 *  0.0000     2          
   102  Cl    c      6.7617 *    -0.8565 *    -5.9052 *  0.0000     2          
   103  Na    c      2.2539 *    -3.1104 *    -8.1591 *  0.0000     2          
   104  Na    c      6.7617 *     5.9052 *     0.8565 *  0.0000     2          
   105  Na    c      9.0156 *    -0.8565 *     0.8565 *  0.0000     2          
   106  O     c      9.0156 *     1.3974 *     0.8565 *  0.0000     2          
   107  O     c      4.5078 *     5.9052 *     5.3643 *  0.0000     2          
   108  Cl    c      6.7617 *    -5.3643 *     3.1104 *  0.0000     2          
   109  Na    c      6.7617 *    -3.1104 *     5.3643 *  0.0000     2          
   110  Na    c      9.0156 *     1.3974 *    -1.3974 *  0.0000     2          
   111  O     c      0.0000      -7.6182 *     5.3643 *  0.0000     1          
   112  Na    c     -4.5078 *    -0.8565 *    -8.1591 *  0.0000     2          
   113  Na    c     -4.5078 *     8.1591 *     0.8565 *  0.0000     2          
   114  Na    c     -4.5078 *    -3.1104 *     7.6182 *  0.0000     2          
   115  Na    c     -4.5078 *    -7.6182 *     3.1104 *  0.0000     2          
   116  O     c     -4.5078 *     1.3974 *    -8.1591 *  0.0000     2          
   117  Na    c      4.5078 *     5.9052 *    -5.9052 *  0.0000     2          
   118  O     c      9.0156 *    -3.1104 *     0.8565 *  0.0000     2          
   119  O     c     -4.5078 *    -7.6182 *    -3.6513 *  0.0000     2          
   120  Cl    c      2.2539 *    -5.3643 *     7.6182 *  0.0000     2          
   121  Na    c      2.2539 *    -7.6182 *     5.3643 *  0.0000     2          
   122  Na    c      0.0000       5.9052 *     7.6182 *  0.0000     1          
   123  Na    c      9.0156 *     1.3974 *     3.1104 *  0.0000     2          
   124  Na    c      9.0156 *    -3.1104 *    -1.3974 *  0.0000     2          
   125  Na    c      0.0000      -7.6182 *    -5.9052 *  0.0000     1          
   126  Cl    c      6.7617 *     3.6513 *    -5.9052 *  0.0000     2          
   127  Na    c      6.7617 *     5.9052 *    -3.6513 *  0.0000     2          
   128  Na    c      0.0000       8.1591 *     5.3643 *  0.0000     1          
   129  Na    c      0.0000      -5.3643 *    -8.1591 *  0.0000     1          
   130  Na    c      9.0156 *    -0.8565 *    -3.6513 *  0.0000     2          
   131  Na    c      9.0156 *     3.6513 *     0.8565 *  0.0000     2          
   132  O     c      4.5078 *    -3.1104 *    -8.1591 *  0.0000     2          
   133  O     c      9.0156 *     1.3974 *    -3.6513 *  0.0000     2          
   134  Na    c      0.0000      -0.8565 *     9.8721 *  0.0000     1          
   135  Na    c      0.0000      -9.8721 *     0.8565 *  0.0000     1          
   136  O     c      0.0000       1.3974 *     9.8721 *  0.0000     1          
   137  Na    c     -4.5078 *     3.6513 *    -8.1591 *  0.0000     2          
   138  Na    c     -4.5078 *     8.1591 *    -3.6513 *  0.0000     2          
   139  Na    c      9.0156 *    -3.1104 *     3.1104 *  0.0000     2          
   140  O     c      0.0000       5.9052 *    -8.1591 *  0.0000     1          
   141  O     c      9.0156 *    -3.1104 *    -3.6513 *  0.0000     2          
   142  Cl    c      2.2539 *    -9.8721 *    -1.3974 *  0.0000     2          
   143  Cl    c      6.7617 *    -0.8565 *     7.6182 *  0.0000     2          
   144  Na    c      2.2539 *     1.3974 *     9.8721 *  0.0000     2          
   145  Na    c      6.7617 *    -7.6182 *     0.8565 *  0.0000     2          
   146  Cl    c      2.2539 *     8.1591 *    -5.9052 *  0.0000     2          
   147  Na    c      2.2539 *     5.9052 *    -8.1591 *  0.0000     2          
   148  O     c      0.0000      -3.1104 *     9.8721 *  0.0000     1          
   149  O     c     -4.5078 *    -7.6182 *     5.3643 *  0.0000     2          
   150  Na    c      9.0156 *     3.6513 *    -3.6513 *  0.0000     2          
   151  O     c      0.0000      10.4130 *     0.8565 *  0.0000     1          
   152  Cl    c      6.7617 *    -5.3643 *    -5.9052 *  0.0000     2          
   153  Na    c      6.7617 *     5.9052 *     5.3643 *  0.0000     2          
   154  Na    c      0.0000       1.3974 *   -10.4130 *  0.0000     1          
   155  Na    c      0.0000      10.4130 *    -1.3974 *  0.0000     1          
   156  Na    c      0.0000       3.6513 *     9.8721 *  0.0000     1          
   157  Na    c      0.0000      -9.8721 *    -3.6513 *  0.0000     1          
   158  Na    c      9.0156 *    -0.8565 *     5.3643 *  0.0000     2          
   159  Na    c      9.0156 *    -5.3643 *     0.8565 *  0.0000     2          
   160  O     c      9.0156 *     1.3974 *     5.3643 *  0.0000     2          
   161  Cl    c      2.2539 *    -9.8721 *     3.1104 *  0.0000     2          
   162  Na    c      2.2539 *    -3.1104 *     9.8721 *  0.0000     2          
   163  Na    c      4.5078 *     5.9052 *     7.6182 *  0.0000     2          
   164  Na    c      4.5078 *    -7.6182 *    -5.9052 *  0.0000     2          
   165  Cl    c      6.7617 *     8.1591 *    -1.3974 *  0.0000     2          
   166  Cl    c      2.2539 *    -0.8565 *   -10.4130 *  0.0000     2          
   167  Na    c      2.2539 *    10.4130 *     0.8565 *  0.0000     2          
   168  Na    c      6.7617 *     1.3974 *    -8.1591 *  0.0000     2          
   169  Na    c      4.5078 *    -5.3643 *    -8.1591 *  0.0000     2          
   170  Na    c     -4.5078 *     8.1591 *     5.3643 *  0.0000     2          
   171  Na    c      0.0000      -7.6182 *     7.6182 *  0.0000     1          
   172  O     c      9.0156 *     5.9052 *     0.8565 *  0.0000     2          
   173  Cl    c      6.7617 *     3.6513 *     7.6182 *  0.0000     2          
   174  Na    c      6.7617 *    -7.6182 *    -3.6513 *  0.0000     2          
   175  Na    c      9.0156 *     1.3974 *    -5.9052 *  0.0000     2          
   176  Na    c      9.0156 *     5.9052 *    -1.3974 *  0.0000     2          
   177  Na    c      0.0000      10.4130 *     3.1104 *  0.0000     1          
   178  Na    c      0.0000      -3.1104 *   -10.4130 *  0.0000     1          
   179  Na    c     -4.5078 *    -0.8565 *     9.8721 *  0.0000     2          
   180  Na    c     -4.5078 *    -9.8721 *     0.8565 *  0.0000     2          
   181  O     c     -4.5078 *     1.3974 *     9.8721 *  0.0000     2          
   182  O     c      9.0156 *    -3.1104 *     5.3643 *  0.0000     2          
   183  O     c      4.5078 *     5.9052 *    -8.1591 *  0.0000     2          
   184  O     c      0.0000      10.4130 *    -3.6513 *  0.0000     1          
   185  Cl    c      6.7617 *     8.1591 *     3.1104 *  0.0000     2          
   186  Na    c      6.7617 *    -3.1104 *    -8.1591 *  0.0000     2          
   187  Na    c      9.0156 *     3.6513 *     5.3643 *  0.0000     2          
   188  Na    c      9.0156 *    -5.3643 *    -3.6513 *  0.0000     2          
   189  O     c      0.0000      -7.6182 *    -8.1591 *  0.0000     1          
   190  Na    c      9.0156 *     5.9052 *     3.1104 *  0.0000     2          
   191  Na    c      9.0156 *    -3.1104 *    -5.9052 *  0.0000     2          
   192  Na    c      0.0000      -5.3643 *     9.8721 *  0.0000     1          
   193  Na    c      0.0000      -9.8721 *     5.3643 *  0.0000     1          
   194  Cl    c      2.2539 *     3.6513 *   -10.4130 *  0.0000     2          
   195  Na    c      2.2539 *    10.4130 *    -3.6513 *  0.0000     2          
   196  O     c      4.5078 *    -3.1104 *     9.8721 *  0.0000     2          
   197  O     c      9.0156 *     5.9052 *    -3.6513 *  0.0000     2          
   198  O     c      4.5078 *    10.4130 *     0.8565 *  0.0000     2          
   199  Cl    c     11.2695 *    -0.8565 *    -1.3974 *  0.0000     2          
   200  Na    c     11.2695 *     1.3974 *     0.8565 *  0.0000     2          
   201  Cl    c      2.2539 *     8.1591 *     7.6182 *  0.0000     2          
   202  Na    c      2.2539 *    -7.6182 *    -8.1591 *  0.0000     2          
   203  Na    c      4.5078 *     1.3974 *   -10.4130 *  0.0000     2          
   204  Na    c      4.5078 *    10.4130 *    -1.3974 *  0.0000     2          
   205  Na    c     -4.5078 *     3.6513 *     9.8721 *  0.0000     2          
   206  Na    c     -4.5078 *    -9.8721 *    -3.6513 *  0.0000     2          
   207  O     c      0.0000       5.9052 *     9.8721 *  0.0000     1          
   208  Cl    c      6.7617 *    -5.3643 *     7.6182 *  0.0000     2          
   209  Na    c      6.7617 *    -7.6182 *     5.3643 *  0.0000     2          
   210  Na    c      0.0000       8.1591 *    -8.1591 *  0.0000     1          
   211  Na    c      4.5078 *    -7.6182 *     7.6182 *  0.0000     2          
   212  O     c      0.0000      10.4130 *     5.3643 *  0.0000     1          
   213  Cl    c     11.2695 *    -0.8565 *     3.1104 *  0.0000     2          
   214  Na    c     11.2695 *    -3.1104 *     0.8565 *  0.0000     2          
   215  Cl    c      2.2539 *    -9.8721 *    -5.9052 *  0.0000     2          
   216  Na    c      2.2539 *     5.9052 *     9.8721 *  0.0000     2          
   217  Na    c      4.5078 *    10.4130 *     3.1104 *  0.0000     2          
   218  Na    c      4.5078 *    -3.1104 *   -10.4130 *  0.0000     2          
   219  Na    c      9.0156 *    -5.3643 *     5.3643 *  0.0000     2          
   220  O     c      9.0156 *    -7.6182 *     0.8565 *  0.0000     2          
   221  Na    c      9.0156 *     1.3974 *     7.6182 *  0.0000     2          
   222  Na    c      9.0156 *    -7.6182 *    -1.3974 *  0.0000     2          
   223  O     c      4.5078 *    10.4130 *    -3.6513 *  0.0000     2          
   224  Cl    c     11.2695 *     3.6513 *    -1.3974 *  0.0000     2          
   225  Na    c     11.2695 *     1.3974 *    -3.6513 *  0.0000     2          
   226  Cl    c      2.2539 *    -5.3643 *   -10.4130 *  0.0000     2          
   227  Na    c      2.2539 *    10.4130 *     5.3643 *  0.0000     2          
   228  Na    c      0.0000       5.9052 *   -10.4130 *  0.0000     1          
   229  Na    c      0.0000      10.4130 *    -5.9052 *  0.0000     1          
   230  O     c      9.0156 *     5.9052 *     5.3643 *  0.0000     2          
   231  O     c     -4.5078 *    -7.6182 *    -8.1591 *  0.0000     2          
   232  Cl    c      6.7617 *    -9.8721 *    -1.3974 *  0.0000     2          
   233  Na    c      6.7617 *     1.3974 *     9.8721 *  0.0000     2          
   234  Na    c      4.5078 *    -5.3643 *     9.8721 *  0.0000     2          
   235  Na    c      4.5078 *    -9.8721 *     5.3643 *  0.0000     2          
   236  Cl    c      6.7617 *     8.1591 *    -5.9052 *  0.0000     2          
   237  Na    c      6.7617 *     5.9052 *    -8.1591 *  0.0000     2          
   238  O     c      0.0000     -12.1259 *     0.8565 *  0.0000     1          
   239  Na    c      9.0156 *     8.1591 *     0.8565 *  0.0000     2          
   240  Na    c      9.0156 *    -0.8565 *    -8.1591 *  0.0000     2          
   241  Na    c      0.0000       1.3974 *    12.1259 *  0.0000     1          
   242  Na    c      9.0156 *    -3.1104 *     7.6182 *  0.0000     2          
   243  Na    c      0.0000     -12.1259 *    -1.3974 *  0.0000     1          
   244  Na    c      9.0156 *    -7.6182 *     3.1104 *  0.0000     2          
   245  O     c      9.0156 *     1.3974 *    -8.1591 *  0.0000     2          
   246  Cl    c     11.2695 *     3.6513 *     3.1104 *  0.0000     2          
   247  Na    c     11.2695 *    -3.1104 *    -3.6513 *  0.0000     2          
   248  Na    c      9.0156 *     5.9052 *    -5.9052 *  0.0000     2          
   249  O     c      4.5078 *     5.9052 *     9.8721 *  0.0000     2          
   250  O     c      9.0156 *    -7.6182 *    -3.6513 *  0.0000     2          
   251  Cl    c      2.2539 *    -0.8565 *    12.1259 *  0.0000     2          
   252  Cl    c      6.7617 *    -9.8721 *     3.1104 *  0.0000     2          
   253  Na    c      2.2539 *   -12.1259 *     0.8565 *  0.0000     2          
   254  Na    c      6.7617 *    -3.1104 *     9.8721 *  0.0000     2          
   255  Na    c      4.5078 *     8.1591 *    -8.1591 *  0.0000     2          
   256  Na    c      6.7617 *    10.4130 *     0.8565 *  0.0000     2          
   257  Cl    c      6.7617 *    -0.8565 *   -10.4130 *  0.0000     2          
   258  O     c      0.0000      -7.6182 *     9.8721 *  0.0000     1          
   259  Na    c      0.0000      -3.1104 *    12.1259 *  0.0000     1          
   260  Na    c      0.0000     -12.1259 *     3.1104 *  0.0000     1          
   261  O     c      4.5078 *    10.4130 *     5.3643 *  0.0000     2          
   262  O     c      9.0156 *    -3.1104 *    -8.1591 *  0.0000     2          
   263  Cl    c     11.2695 *    -5.3643 *    -1.3974 *  0.0000     2          
   264  Na    c     11.2695 *     1.3974 *     5.3643 *  0.0000     2          
   265  O     c      0.0000     -12.1259 *    -3.6513 *  0.0000     1          
   266  Cl    c      2.2539 *    -9.8721 *     7.6182 *  0.0000     2          
   267  Na    c      2.2539 *    -7.6182 *     9.8721 *  0.0000     2          
   268  Na    c      0.0000      -0.8565 *   -12.6669 *  0.0000     1          
   269  Na    c      0.0000      12.6669 *     0.8565 *  0.0000     1          
   270  Na    c      9.0156 *     8.1591 *    -3.6513 *  0.0000     2          
   271  Na    c      9.0156 *     3.6513 *    -8.1591 *  0.0000     2          
   272  O     c      0.0000       1.3974 *   -12.6669 *  0.0000     1          
   273  Cl    c     11.2695 *    -0.8565 *    -5.9052 *  0.0000     2          
   274  Na    c     11.2695 *     5.9052 *     0.8565 *  0.0000     2          
   275  Na    c      4.5078 *     5.9052 *   -10.4130 *  0.0000     2          
   276  Na    c      4.5078 *    10.4130 *    -5.9052 *  0.0000     2          
   277  Na    c      0.0000       8.1591 *     9.8721 *  0.0000     1          
   278  Na    c      0.0000      -9.8721 *    -8.1591 *  0.0000     1          
   279  Cl    c      2.2539 *     3.6513 *    12.1259 *  0.0000     2          
   280  Cl    c     11.2695 *    -5.3643 *     3.1104 *  0.0000     2          
   281  Na    c     11.2695 *    -3.1104 *     5.3643 *  0.0000     2          
   282  Na    c      2.2539 *   -12.1259 *    -3.6513 *  0.0000     2          
   283  Na    c      0.0000      10.4130 *     7.6182 *  0.0000     1          
   284  Na    c      0.0000      -7.6182 *   -10.4130 *  0.0000     1          
   285  Cl    c      2.2539 *    12.6669 *    -1.3974 *  0.0000     2          
   286  Na    c      2.2539 *     1.3974 *   -12.6669 *  0.0000     2          
   287  Na    c      6.7617 *    10.4130 *    -3.6513 *  0.0000     2          
   288  Cl    c      6.7617 *     3.6513 *   -10.4130 *  0.0000     2          
   289  O     c      4.5078 *   -12.1259 *     0.8565 *  0.0000     2          
   290  O     c      9.0156 *    -7.6182 *     5.3643 *  0.0000     2          
   291  Na    c      4.5078 *     1.3974 *    12.1259 *  0.0000     2          
   292  Na    c      4.5078 *   -12.1259 *    -1.3974 *  0.0000     2          
   293  O     c      0.0000      -3.1104 *   -12.6669 *  0.0000     1          
   294  Cl    c      6.7617 *     8.1591 *     7.6182 *  0.0000     2          
   295  Na    c      6.7617 *    -7.6182 *    -8.1591 *  0.0000     2          
   296  Na    c      0.0000       3.6513 *   -12.6669 *  0.0000     1          
   297  Na    c      0.0000      12.6669 *    -3.6513 *  0.0000     1          
   298  Na    c      9.0156 *     5.9052 *     7.6182 *  0.0000     2          
   299  Na    c      9.0156 *    -7.6182 *    -5.9052 *  0.0000     2          
   300  O     c      0.0000      10.4130 *    -8.1591 *  0.0000     1          
   301  Cl    c      2.2539 *    12.6669 *     3.1104 *  0.0000     2          
   302  Cl    c     11.2695 *     3.6513 *    -5.9052 *  0.0000     2          
   303  Na    c      2.2539 *    -3.1104 *   -12.6669 *  0.0000     2          
   304  Na    c     11.2695 *     5.9052 *    -3.6513 *  0.0000     2          
   305  O     c      4.5078 *    -7.6182 *     9.8721 *  0.0000     2          
   306  O     c      0.0000     -12.1259 *     5.3643 *  0.0000     1          
   307  Na    c      9.0156 *     8.1591 *     5.3643 *  0.0000     2          
   308  Na    c      9.0156 *    -5.3643 *    -8.1591 *  0.0000     2          
   309  Na    c      4.5078 *    -3.1104 *    12.1259 *  0.0000     2          
   310  Na    c      4.5078 *   -12.1259 *     3.1104 *  0.0000     2          
   311  Cl    c      6.7617 *    -9.8721 *    -5.9052 *  0.0000     2          
   312  Na    c      6.7617 *     5.9052 *     9.8721 *  0.0000     2          
   313  Na    c      9.0156 *    -0.8565 *     9.8721 *  0.0000     2          
   314  Na    c      9.0156 *    -9.8721 *     0.8565 *  0.0000     2          
   315  Cl    c      2.2539 *     8.1591 *   -10.4130 *  0.0000     2          
   316  Na    c      2.2539 *    10.4130 *    -8.1591 *  0.0000     2          
   317  O     c      9.0156 *     1.3974 *     9.8721 *  0.0000     2          
   318  O     c      4.5078 *   -12.1259 *    -3.6513 *  0.0000     2          
   319  Cl    c      2.2539 *    -5.3643 *    12.1259 *  0.0000     2          
   320  Na    c      2.2539 *   -12.1259 *     5.3643 *  0.0000     2          
   321  Na    c      4.5078 *    -0.8565 *   -12.6669 *  0.0000     2          
   322  Na    c      4.5078 *    12.6669 *     0.8565 *  0.0000     2          
   323  Na    c      0.0000       5.9052 *    12.1259 *  0.0000     1          
   324  Na    c      0.0000     -12.1259 *    -5.9052 *  0.0000     1          
   325  O     c     -4.5078 *     1.3974 *   -12.6669 *  0.0000     2          
   326  O     c      9.0156 *     5.9052 *    -8.1591 *  0.0000     2          
   327  Na    c      6.7617 *    10.4130 *     5.3643 *  0.0000     2          
   328  Cl    c      6.7617 *    -5.3643 *   -10.4130 *  0.0000     2          
   329  Na    c     -4.5078 *     8.1591 *     9.8721 *  0.0000     2          
   330  Na    c     -4.5078 *    -9.8721 *    -8.1591 *  0.0000     2          
   331  Na    c     13.5234 *    -0.8565 *     0.8565 *  0.0000     2          
   332  O     c     13.5234 *     1.3974 *     0.8565 *  0.0000     2          
   333  Cl    c     11.2695 *    -0.8565 *     7.6182 *  0.0000     2          
   334  Na    c     11.2695 *    -7.6182 *     0.8565 *  0.0000     2          
   335  Na    c      4.5078 *    10.4130 *     7.6182 *  0.0000     2          
   336  Na    c      4.5078 *    -7.6182 *   -10.4130 *  0.0000     2          
   337  Na    c     13.5234 *     1.3974 *    -1.3974 *  0.0000     2          
   338  O     c      9.0156 *    -3.1104 *     9.8721 *  0.0000     2          
   339  Na    c      0.0000      12.6669 *     5.3643 *  0.0000     1          
   340  Na    c      0.0000      -5.3643 *   -12.6669 *  0.0000     1          
   341  O     c      4.5078 *    -3.1104 *   -12.6669 *  0.0000     2          
   342  O     c      9.0156 *    10.4130 *     0.8565 *  0.0000     2          
   343  Cl    c     11.2695 *    -5.3643 *    -5.9052 *  0.0000     2          
   344  Na    c     11.2695 *     5.9052 *     5.3643 *  0.0000     2          
   345  Na    c      9.0156 *     1.3974 *   -10.4130 *  0.0000     2          
   346  Na    c      9.0156 *    10.4130 *    -1.3974 *  0.0000     2          
   347  Na    c      9.0156 *     3.6513 *     9.8721 *  0.0000     2          
   348  Na    c      9.0156 *    -9.8721 *    -3.6513 *  0.0000     2          
   349  O     c     13.5234 *    -3.1104 *     0.8565 *  0.0000     2          
   350  Cl    c      6.7617 *    -0.8565 *    12.1259 *  0.0000     2          
   351  Na    c      6.7617 *   -12.1259 *     0.8565 *  0.0000     2          
   352  Na    c      4.5078 *    12.6669 *    -3.6513 *  0.0000     2          
   353  Na    c      4.5078 *     3.6513 *   -12.6669 *  0.0000     2          
   354  Na    c     13.5234 *     1.3974 *     3.1104 *  0.0000     2          
   355  Na    c     13.5234 *    -3.1104 *    -1.3974 *  0.0000     2          
   356  Na    c      0.0000      -9.8721 *     9.8721 *  0.0000     1          
   357  O     c      0.0000       5.9052 *   -12.6669 *  0.0000     1          
   358  O     c      4.5078 *    10.4130 *    -8.1591 *  0.0000     2          
   359  Cl    c     11.2695 *     8.1591 *    -1.3974 *  0.0000     2          
   360  Na    c     11.2695 *     1.3974 *    -8.1591 *  0.0000     2          
   361  O     c      4.5078 *   -12.1259 *     5.3643 *  0.0000     2          
   362  Na    c     13.5234 *    -0.8565 *    -3.6513 *  0.0000     2          
   363  Na    c     13.5234 *     3.6513 *     0.8565 *  0.0000     2          
   364  Na    c      9.0156 *    -7.6182 *     7.6182 *  0.0000     2          
   365  O     c     13.5234 *     1.3974 *    -3.6513 *  0.0000     2          
   366  Cl    c     11.2695 *     3.6513 *     7.6182 *  0.0000     2          
   367  Na    c     11.2695 *    -7.6182 *    -3.6513 *  0.0000     2          
   368  Na    c      9.0156 *    -3.1104 *   -10.4130 *  0.0000     2          
   369  Na    c      9.0156 *    10.4130 *     3.1104 *  0.0000     2          
   370  Cl    c      2.2539 *    12.6669 *    -5.9052 *  0.0000     2          
   371  Na    c      2.2539 *     5.9052 *   -12.6669 *  0.0000     2          
   372  Cl    c      6.7617 *    -9.8721 *     7.6182 *  0.0000     2          
   373  Na    c      6.7617 *    -7.6182 *     9.8721 *  0.0000     2          
   374  Na    c      4.5078 *     5.9052 *    12.1259 *  0.0000     2          
   375  Na    c      4.5078 *   -12.1259 *    -5.9052 *  0.0000     2          
   376  Na    c     13.5234 *    -3.1104 *     3.1104 *  0.0000     2          
   377  O     c      9.0156 *    10.4130 *    -3.6513 *  0.0000     2          
   378  Cl    c     11.2695 *     8.1591 *     3.1104 *  0.0000     2          
   379  Na    c     11.2695 *    -3.1104 *    -8.1591 *  0.0000     2          
   380  Na    c      0.0000      -7.6182 *    12.1259 *  0.0000     1          
   381  Na    c      0.0000     -12.1259 *     7.6182 *  0.0000     1          
   382  O     c      0.0000      10.4130 *     9.8721 *  0.0000     1          
   383  O     c      9.0156 *    -7.6182 *    -8.1591 *  0.0000     2          
   384  O     c     13.5234 *    -3.1104 *    -3.6513 *  0.0000     2          
   385  Cl    c      6.7617 *     3.6513 *    12.1259 *  0.0000     2          
   386  Na    c      6.7617 *   -12.1259 *    -3.6513 *  0.0000     2          
   387  Na    c      0.0000      -0.8565 *    14.3798 *  0.0000     1          
   388  Na    c      0.0000     -14.3798 *     0.8565 *  0.0000     1          
   389  Na    c      9.0156 *    -5.3643 *     9.8721 *  0.0000     2          
   390  Na    c      9.0156 *    -9.8721 *     5.3643 *  0.0000     2          
   391  Cl    c      6.7617 *    12.6669 *    -1.3974 *  0.0000     2          
   392  Na    c      6.7617 *     1.3974 *   -12.6669 *  0.0000     2          
   393  O     c      0.0000       1.3974 *    14.3798 *  0.0000     1          
   394  Na    c      4.5078 *    12.6669 *     5.3643 *  0.0000     2          
   395  Na    c      4.5078 *    -5.3643 *   -12.6669 *  0.0000     2          
   396  Na    c     13.5234 *     3.6513 *    -3.6513 *  0.0000     2          
   397  Cl    c      2.2539 *    -9.8721 *   -10.4130 *  0.0000     2          
   398  Na    c      2.2539 *    10.4130 *     9.8721 *  0.0000     2          
   399  Na    c     13.5234 *    -0.8565 *     5.3643 *  0.0000     2          
   400  Na    c     13.5234 *    -5.3643 *     0.8565 *  0.0000     2          
   401  O     c      9.0156 *     5.9052 *     9.8721 *  0.0000     2          
   402  O     c      0.0000     -12.1259 *    -8.1591 *  0.0000     1          
   403  O     c     13.5234 *     1.3974 *     5.3643 *  0.0000     2          
   404  Cl    c      2.2539 *   -14.3798 *    -1.3974 *  0.0000     2          
   405  Cl    c     11.2695 *    -5.3643 *     7.6182 *  0.0000     2          
   406  Na    c      2.2539 *     1.3974 *    14.3798 *  0.0000     2          
   407  Na    c     11.2695 *    -7.6182 *     5.3643 *  0.0000     2          
   408  Na    c      9.0156 *     8.1591 *    -8.1591 *  0.0000     2          
   409  Na    c      4.5078 *    -9.8721 *     9.8721 *  0.0000     2          
   410  O     c      4.5078 *     5.9052 *   -12.6669 *  0.0000     2          
   411  Na    c      6.7617 *    -3.1104 *   -12.6669 *  0.0000     2          
   412  Cl    c      6.7617 *    12.6669 *     3.1104 *  0.0000     2          
   413  O     c      0.0000      -3.1104 *    14.3798 *  0.0000     1          
   414  Na    c      0.0000      10.4130 *   -10.4130 *  0.0000     1          
   415  O     c      0.0000      -7.6182 *   -12.6669 *  0.0000     1          
   416  O     c      9.0156 *    10.4130 *     5.3643 *  0.0000     2          
   417  O     c     13.5234 *     5.9052 *     0.8565 *  0.0000     2          
   418  Cl    c      2.2539 *     8.1591 *    12.1259 *  0.0000     2          
   419  Na    c      2.2539 *   -12.1259 *    -8.1591 *  0.0000     2          
   420  Na    c     13.5234 *     1.3974 *    -5.9052 *  0.0000     2          
   421  Na    c     13.5234 *     5.9052 *    -1.3974 *  0.0000     2          
   422  Na    c      0.0000       3.6513 *    14.3798 *  0.0000     1          
   423  Na    c      0.0000     -14.3798 *    -3.6513 *  0.0000     1          
   424  Cl    c      6.7617 *     8.1591 *   -10.4130 *  0.0000     2          
   425  Na    c      6.7617 *    10.4130 *    -8.1591 *  0.0000     2          
   426  O     c     13.5234 *    -3.1104 *     5.3643 *  0.0000     2          
   427  Cl    c      2.2539 *   -14.3798 *     3.1104 *  0.0000     2          
   428  Na    c      2.2539 *    -3.1104 *    14.3798 *  0.0000     2          
   429  Cl    c      6.7617 *    -5.3643 *    12.1259 *  0.0000     2          
   430  Na    c      6.7617 *   -12.1259 *     5.3643 *  0.0000     2          
   431  O     c      0.0000      14.9208 *     0.8565 *  0.0000     1          
   432  Cl    c      2.2539 *    12.6669 *     7.6182 *  0.0000     2          
   433  Na    c      2.2539 *    -7.6182 *   -12.6669 *  0.0000     2          
   434  Na    c      0.0000       1.3974 *   -14.9208 *  0.0000     1          
   435  Na    c      0.0000      14.9208 *    -1.3974 *  0.0000     1          
   436  Na    c      9.0156 *     5.9052 *   -10.4130 *  0.0000     2          
   437  Na    c      9.0156 *    10.4130 *    -5.9052 *  0.0000     2          
   438  Na    c     13.5234 *     3.6513 *     5.3643 *  0.0000     2          
   439  Na    c     13.5234 *    -5.3643 *    -3.6513 *  0.0000     2          
   440  Na    c      4.5078 *    -7.6182 *    12.1259 *  0.0000     2          
   441  Na    c      4.5078 *   -12.1259 *     7.6182 *  0.0000     2          
   442  O     c      4.5078 *    10.4130 *     9.8721 *  0.0000     2          
   443  Cl    c     11.2695 *    -9.8721 *    -1.3974 *  0.0000     2          
   444  Na    c     11.2695 *     1.3974 *     9.8721 *  0.0000     2          
   445  Na    c      0.0000       8.1591 *   -12.6669 *  0.0000     1          
   446  Na    c      0.0000      12.6669 *    -8.1591 *  0.0000     1          
   447  Na    c     13.5234 *     5.9052 *     3.1104 *  0.0000     2          
   448  Na    c     13.5234 *    -3.1104 *    -5.9052 *  0.0000     2          
   449  Na    c      4.5078 *    -0.8565 *    14.3798 *  0.0000     2          
   450  Na    c      4.5078 *   -14.3798 *     0.8565 *  0.0000     2          
   451  Cl    c     11.2695 *     8.1591 *    -5.9052 *  0.0000     2          
   452  Na    c     11.2695 *     5.9052 *    -8.1591 *  0.0000     2          
   453  Cl    c      2.2539 *    -0.8565 *   -14.9208 *  0.0000     2          
   454  Na    c      2.2539 *    14.9208 *     0.8565 *  0.0000     2          
   455  O     c     -4.5078 *     1.3974 *    14.3798 *  0.0000     2          
   456  O     c      9.0156 *   -12.1259 *     0.8565 *  0.0000     2          
   457  Na    c      9.0156 *     1.3974 *    12.1259 *  0.0000     2          
   458  Na    c      9.0156 *   -12.1259 *    -1.3974 *  0.0000     2          
   459  O     c     13.5234 *     5.9052 *    -3.6513 *  0.0000     2          
   460  Na    c      0.0000      14.9208 *     3.1104 *  0.0000     1          
   461  Na    c      0.0000      -3.1104 *   -14.9208 *  0.0000     1          
   462  O     c      4.5078 *   -12.1259 *    -8.1591 *  0.0000     2          
   463  Cl    c     11.2695 *    -9.8721 *     3.1104 *  0.0000     2          
   464  Na    c     11.2695 *    -3.1104 *     9.8721 *  0.0000     2          
   465  Na    c      0.0000      -5.3643 *    14.3798 *  0.0000     1          
   466  Na    c      0.0000     -14.3798 *     5.3643 *  0.0000     1          
   467  O     c      0.0000      14.9208 *    -3.6513 *  0.0000     1          
   468  Cl    c     11.2695 *    -0.8565 *   -10.4130 *  0.0000     2          
   469  Na    c     11.2695 *    10.4130 *     0.8565 *  0.0000     2          
   470  O     c      4.5078 *    -3.1104 *    14.3798 *  0.0000     2          
   471  O     c      9.0156 *    -7.6182 *     9.8721 *  0.0000     2          
   472  Na    c      4.5078 *    10.4130 *   -10.4130 *  0.0000     2          
   473  Na    c      9.0156 *    -3.1104 *    12.1259 *  0.0000     2          
   474  Na    c      9.0156 *   -12.1259 *     3.1104 *  0.0000     2          
   475  O     c     -4.5078 *    -7.6182 *   -12.6669 *  0.0000     2          
   476  Na    c      4.5078 *   -14.3798 *    -3.6513 *  0.0000     2          
   477  Na    c      4.5078 *     3.6513 *    14.3798 *  0.0000     2          
   478  Na    c     13.5234 *    -5.3643 *     5.3643 *  0.0000     2          
   479  Na    c      6.7617 *     5.9052 *   -12.6669 *  0.0000     2          
   480  Cl    c      2.2539 *     3.6513 *   -14.9208 *  0.0000     2          
   481  Cl    c      6.7617 *    12.6669 *    -5.9052 *  0.0000     2          
   482  Na    c      2.2539 *    14.9208 *    -3.6513 *  0.0000     2          
   483  O     c      0.0000       5.9052 *    14.3798 *  0.0000     1          
   484  O     c      9.0156 *   -12.1259 *    -3.6513 *  0.0000     2          
   485  O     c     13.5234 *    -7.6182 *     0.8565 *  0.0000     2          
   486  Na    c      9.0156 *    12.6669 *     0.8565 *  0.0000     2          
   487  Na    c      9.0156 *    -0.8565 *   -12.6669 *  0.0000     2          
   488  Na    c     13.5234 *     1.3974 *     7.6182 *  0.0000     2          
   489  Na    c     13.5234 *    -7.6182 *    -1.3974 *  0.0000     2          
   490  O     c      9.0156 *     1.3974 *   -12.6669 *  0.0000     2          
   491  O     c      4.5078 *    14.9208 *     0.8565 *  0.0000     2          
   492  O     c      0.0000     -12.1259 *     9.8721 *  0.0000     1          
   493  Na    c      4.5078 *    14.9208 *    -1.3974 *  0.0000     2          
   494  Na    c     -4.5078 *     1.3974 *   -14.9208 *  0.0000     2          
   495  Na    c      9.0156 *     8.1591 *     9.8721 *  0.0000     2          
   496  Na    c      9.0156 *    -9.8721 *    -8.1591 *  0.0000     2          
   497  O     c     13.5234 *     5.9052 *     5.3643 *  0.0000     2          
   498  Cl    c      2.2539 *   -14.3798 *    -5.9052 *  0.0000     2          
   499  Na    c      2.2539 *     5.9052 *    14.3798 *  0.0000     2          
   500  Na    c      4.5078 *     8.1591 *   -12.6669 *  0.0000     2          
   501  Na    c      4.5078 *    12.6669 *    -8.1591 *  0.0000     2          
   502  Na    c      9.0156 *    10.4130 *     7.6182 *  0.0000     2          
   503  Na    c      9.0156 *    -7.6182 *   -10.4130 *  0.0000     2          
   504  Cl    c     11.2695 *     3.6513 *   -10.4130 *  0.0000     2          
   505  Na    c     11.2695 *    10.4130 *    -3.6513 *  0.0000     2          
   506  Cl    c      2.2539 *    -9.8721 *    12.1259 *  0.0000     2          
   507  Na    c      2.2539 *   -12.1259 *     9.8721 *  0.0000     2          
   508  Na    c     13.5234 *    -0.8565 *    -8.1591 *  0.0000     2          
   509  Na    c     13.5234 *     8.1591 *     0.8565 *  0.0000     2          
   510  Na    c     13.5234 *    -3.1104 *     7.6182 *  0.0000     2          
   511  Na    c     13.5234 *    -7.6182 *     3.1104 *  0.0000     2          
   512  O     c      9.0156 *    -3.1104 *   -12.6669 *  0.0000     2          
   513  O     c      0.0000      14.9208 *     5.3643 *  0.0000     1          
   514  O     c     13.5234 *     1.3974 *    -8.1591 *  0.0000     2          
   515  Cl    c    -15.7773 *    -0.8565 *    -1.3974 *  0.0000     2          
   516  Na    c    -15.7773 *     1.3974 *     0.8565 *  0.0000     2          
   517  Cl    c     11.2695 *     8.1591 *     7.6182 *  0.0000     2          
   518  Na    c     11.2695 *    -7.6182 *    -8.1591 *  0.0000     2          
   519  Cl    c      6.7617 *    -9.8721 *   -10.4130 *  0.0000     2          
   520  Na    c      6.7617 *    10.4130 *     9.8721 *  0.0000     2          
   521  Na    c      4.5078 *    14.9208 *     3.1104 *  0.0000     2          
   522  Na    c      4.5078 *    -3.1104 *   -14.9208 *  0.0000     2          
   523  Na    c     13.5234 *     5.9052 *    -5.9052 *  0.0000     2          
   524  O     c     13.5234 *    -7.6182 *    -3.6513 *  0.0000     2          
   525  Cl    c      6.7617 *   -14.3798 *    -1.3974 *  0.0000     2          
   526  Na    c      6.7617 *     1.3974 *    14.3798 *  0.0000     2          
   527  Na    c      9.0156 *    12.6669 *    -3.6513 *  0.0000     2          
   528  Na    c      9.0156 *     3.6513 *   -12.6669 *  0.0000     2          
   529  Na    c      0.0000      10.4130 *    12.1259 *  0.0000     1          
   530  Na    c      0.0000     -12.1259 *   -10.4130 *  0.0000     1          
   531  Na    c      4.5078 *    -5.3643 *    14.3798 *  0.0000     2          
   532  Na    c      4.5078 *   -14.3798 *     5.3643 *  0.0000     2          
   533  O     s      0.0000       1.3974 *     0.8565 *  0.0000     1          
   534  Cl    s      2.2539 *    -0.8565 *    -1.3974 *  0.0000     2          
   535  O     s      0.0000      -3.1104 *     0.8565 *  0.0000     1          
   536  O     s      0.0000       1.3974 *    -3.6513 *  0.0000     1          
   537  Cl    s      2.2539 *    -0.8565 *     3.1104 *  0.0000     2          
   538  Cl    s      2.2539 *     3.6513 *    -1.3974 *  0.0000     2          
   539  O     s      0.0000      -3.1104 *    -3.6513 *  0.0000     1          
   540  O     s     -4.5078 *     1.3974 *     0.8565 *  0.0000     2          
   541  Cl    s      2.2539 *     3.6513 *     3.1104 *  0.0000     2          
   542  O     s      0.0000       1.3974 *     5.3643 *  0.0000     1          
   543  O     s     -4.5078 *    -3.1104 *     0.8565 *  0.0000     2          
   544  O     s     -4.5078 *     1.3974 *    -3.6513 *  0.0000     2          
   545  O     s      0.0000       5.9052 *     0.8565 *  0.0000     1          
   546  Cl    s      2.2539 *    -5.3643 *    -1.3974 *  0.0000     2          
   547  O     s      0.0000      -3.1104 *     5.3643 *  0.0000     1          
   548  Cl    s      2.2539 *    -0.8565 *    -5.9052 *  0.0000     2          
   549  O     s     -4.5078 *    -3.1104 *    -3.6513 *  0.0000     2          
   550  Cl    s      2.2539 *    -5.3643 *     3.1104 *  0.0000     2          
   551  O     s      0.0000       5.9052 *    -3.6513 *  0.0000     1          
   552  Cl    s      6.7617 *    -0.8565 *    -1.3974 *  0.0000     2          
   553  O     s     -4.5078 *     1.3974 *     5.3643 *  0.0000     2          
   554  Cl    s      2.2539 *     3.6513 *    -5.9052 *  0.0000     2          
   555  O     s      4.5078 *     5.9052 *     0.8565 *  0.0000     2          
   556  Cl    s      6.7617 *    -0.8565 *     3.1104 *  0.0000     2          
   557  O     s      0.0000      -7.6182 *     0.8565 *  0.0000     1          
   558  O     s      4.5078 *    -3.1104 *     5.3643 *  0.0000     2          
   559  Cl    s      6.7617 *     3.6513 *    -1.3974 *  0.0000     2          
   560  O     s      0.0000       5.9052 *     5.3643 *  0.0000     1          
   561  Cl    s      2.2539 *    -0.8565 *     7.6182 *  0.0000     2          
   562  O     s      0.0000       1.3974 *    -8.1591 *  0.0000     1          
   563  O     s      4.5078 *     5.9052 *    -3.6513 *  0.0000     2          
   564  Cl    s      6.7617 *     3.6513 *     3.1104 *  0.0000     2          
   565  Cl    s      2.2539 *    -5.3643 *    -5.9052 *  0.0000     2          
   566  O     s      0.0000      -7.6182 *    -3.6513 *  0.0000     1          
   567  Cl    s      2.2539 *     8.1591 *    -1.3974 *  0.0000     2          
   568  O     s      0.0000      -3.1104 *    -8.1591 *  0.0000     1          
   569  Cl    s      2.2539 *     3.6513 *     7.6182 *  0.0000     2          
   570  Cl    s      6.7617 *    -5.3643 *    -1.3974 *  0.0000     2          
   571  O     s     -4.5078 *    -7.6182 *     0.8565 *  0.0000     2          
   572  Cl    s      2.2539 *     8.1591 *     3.1104 *  0.0000     2          
   573  Cl    s      6.7617 *    -0.8565 *    -5.9052 *  0.0000     2          
   574  O     s      9.0156 *     1.3974 *     0.8565 *  0.0000     2          
   575  O     s      4.5078 *     5.9052 *     5.3643 *  0.0000     2          
   576  Cl    s      6.7617 *    -5.3643 *     3.1104 *  0.0000     2          
   577  O     s      0.0000      -7.6182 *     5.3643 *  0.0000     1          
   578  O     s     -4.5078 *     1.3974 *    -8.1591 *  0.0000     2          
   579  O     s      9.0156 *    -3.1104 *     0.8565 *  0.0000     2          
   580  O     s     -4.5078 *    -7.6182 *    -3.6513 *  0.0000     2          
   581  Cl    s      2.2539 *    -5.3643 *     7.6182 *  0.0000     2          
   582  Cl    s      6.7617 *     3.6513 *    -5.9052 *  0.0000     2          
   583  O     s      4.5078 *    -3.1104 *    -8.1591 *  0.0000     2          
   584  O     s      9.0156 *     1.3974 *    -3.6513 *  0.0000     2          
   585  O     s      0.0000       1.3974 *     9.8721 *  0.0000     1          
   586  O     s      0.0000       5.9052 *    -8.1591 *  0.0000     1          
   587  O     s      9.0156 *    -3.1104 *    -3.6513 *  0.0000     2          
   588  Cl    s      2.2539 *    -9.8721 *    -1.3974 *  0.0000     2          
   589  Cl    s      6.7617 *    -0.8565 *     7.6182 *  0.0000     2          
   590  Cl    s      2.2539 *     8.1591 *    -5.9052 *  0.0000     2          
   591  O     s      0.0000      -3.1104 *     9.8721 *  0.0000     1          
   592  O     s     -4.5078 *    -7.6182 *     5.3643 *  0.0000     2          
   593  O     s      0.0000      10.4130 *     0.8565 *  0.0000     1          
   594  Cl    s      6.7617 *    -5.3643 *    -5.9052 *  0.0000     2          
   595  O     s      9.0156 *     1.3974 *     5.3643 *  0.0000     2          
   596  Cl    s      2.2539 *    -9.8721 *     3.1104 *  0.0000     2          
   597  Cl    s      6.7617 *     8.1591 *    -1.3974 *  0.0000     2          
   598  Cl    s      2.2539 *    -0.8565 *   -10.4130 *  0.0000     2          
   599  O     s      9.0156 *     5.9052 *     0.8565 *  0.0000     2          
   600  Cl    s      6.7617 *     3.6513 *     7.6182 *  0.0000     2          
   601  O     s     -4.5078 *     1.3974 *     9.8721 *  0.0000     2          
   602  O     s      9.0156 *    -3.1104 *     5.3643 *  0.0000     2          
   603  O     s      4.5078 *     5.9052 *    -8.1591 *  0.0000     2          
   604  O     s      0.0000      10.4130 *    -3.6513 *  0.0000     1          
   605  Cl    s      6.7617 *     8.1591 *     3.1104 *  0.0000     2          
   606  O     s      0.0000      -7.6182 *    -8.1591 *  0.0000     1          
   607  Cl    s      2.2539 *     3.6513 *   -10.4130 *  0.0000     2          
   608  O     s      4.5078 *    -3.1104 *     9.8721 *  0.0000     2          
   609  O     s      9.0156 *     5.9052 *    -3.6513 *  0.0000     2          
   610  O     s      4.5078 *    10.4130 *     0.8565 *  0.0000     2          
   611  Cl    s     11.2695 *    -0.8565 *    -1.3974 *  0.0000     2          
   612  Cl    s      2.2539 *     8.1591 *     7.6182 *  0.0000     2          
   613  O     s      0.0000       5.9052 *     9.8721 *  0.0000     1          
   614  Cl    s      6.7617 *    -5.3643 *     7.6182 *  0.0000     2          
   615  O     s      0.0000      10.4130 *     5.3643 *  0.0000     1          
   616  Cl    s     11.2695 *    -0.8565 *     3.1104 *  0.0000     2          
   617  Cl    s      2.2539 *    -9.8721 *    -5.9052 *  0.0000     2          
   618  O     s      9.0156 *    -7.6182 *     0.8565 *  0.0000     2          
   619  O     s      4.5078 *    10.4130 *    -3.6513 *  0.0000     2          
   620  Cl    s     11.2695 *     3.6513 *    -1.3974 *  0.0000     2          
   621  Cl    s      2.2539 *    -5.3643 *   -10.4130 *  0.0000     2          
   622  O     s      9.0156 *     5.9052 *     5.3643 *  0.0000     2          
   623  O     s     -4.5078 *    -7.6182 *    -8.1591 *  0.0000     2          
   624  Cl    s      6.7617 *    -9.8721 *    -1.3974 *  0.0000     2          
   625  Cl    s      6.7617 *     8.1591 *    -5.9052 *  0.0000     2          
   626  O     s      0.0000     -12.1259 *     0.8565 *  0.0000     1          
   627  O     s      9.0156 *     1.3974 *    -8.1591 *  0.0000     2          
   628  Cl    s     11.2695 *     3.6513 *     3.1104 *  0.0000     2          
   629  O     s      4.5078 *     5.9052 *     9.8721 *  0.0000     2          
   630  O     s      9.0156 *    -7.6182 *    -3.6513 *  0.0000     2          
   631  Cl    s      2.2539 *    -0.8565 *    12.1259 *  0.0000     2          
   632  Cl    s      6.7617 *    -9.8721 *     3.1104 *  0.0000     2          
   633  Cl    s      6.7617 *    -0.8565 *   -10.4130 *  0.0000     2          
   634  O     s      0.0000      -7.6182 *     9.8721 *  0.0000     1          
   635  O     s      4.5078 *    10.4130 *     5.3643 *  0.0000     2          
   636  O     s      9.0156 *    -3.1104 *    -8.1591 *  0.0000     2          
   637  Cl    s     11.2695 *    -5.3643 *    -1.3974 *  0.0000     2          
   638  O     s      0.0000     -12.1259 *    -3.6513 *  0.0000     1          
   639  Cl    s      2.2539 *    -9.8721 *     7.6182 *  0.0000     2          
   640  O     s      0.0000       1.3974 *   -12.6669 *  0.0000     1          
   641  Cl    s     11.2695 *    -0.8565 *    -5.9052 *  0.0000     2          
   642  Cl    s      2.2539 *     3.6513 *    12.1259 *  0.0000     2          
   643  Cl    s     11.2695 *    -5.3643 *     3.1104 *  0.0000     2          
   644  Cl    s      2.2539 *    12.6669 *    -1.3974 *  0.0000     2          
   645  Cl    s      6.7617 *     3.6513 *   -10.4130 *  0.0000     2          
   646  O     s      4.5078 *   -12.1259 *     0.8565 *  0.0000     2          
   647  O     s      9.0156 *    -7.6182 *     5.3643 *  0.0000     2          
   648  O     s      0.0000      -3.1104 *   -12.6669 *  0.0000     1          
   649  Cl    s      6.7617 *     8.1591 *     7.6182 *  0.0000     2          
   650  O     s      0.0000      10.4130 *    -8.1591 *  0.0000     1          
   651  Cl    s      2.2539 *    12.6669 *     3.1104 *  0.0000     2          
   652  Cl    s     11.2695 *     3.6513 *    -5.9052 *  0.0000     2          
   653  O     s      4.5078 *    -7.6182 *     9.8721 *  0.0000     2          
   654  O     s      0.0000     -12.1259 *     5.3643 *  0.0000     1          
   655  Cl    s      6.7617 *    -9.8721 *    -5.9052 *  0.0000     2          
   656  Cl    s      2.2539 *     8.1591 *   -10.4130 *  0.0000     2          
   657  O     s      9.0156 *     1.3974 *     9.8721 *  0.0000     2          
   658  O     s      4.5078 *   -12.1259 *    -3.6513 *  0.0000     2          
   659  Cl    s      2.2539 *    -5.3643 *    12.1259 *  0.0000     2          
   660  O     s     -4.5078 *     1.3974 *   -12.6669 *  0.0000     2          
   661  O     s      9.0156 *     5.9052 *    -8.1591 *  0.0000     2          
   662  Cl    s      6.7617 *    -5.3643 *   -10.4130 *  0.0000     2          
   663  O     s     13.5234 *     1.3974 *     0.8565 *  0.0000     2          
   664  Cl    s     11.2695 *    -0.8565 *     7.6182 *  0.0000     2          
   665  O     s      9.0156 *    -3.1104 *     9.8721 *  0.0000     2          
   666  O     s      4.5078 *    -3.1104 *   -12.6669 *  0.0000     2          
   667  O     s      9.0156 *    10.4130 *     0.8565 *  0.0000     2          
   668  Cl    s     11.2695 *    -5.3643 *    -5.9052 *  0.0000     2          
   669  O     s     13.5234 *    -3.1104 *     0.8565 *  0.0000     2          
   670  Cl    s      6.7617 *    -0.8565 *    12.1259 *  0.0000     2          
   671  O     s      0.0000       5.9052 *   -12.6669 *  0.0000     1          
   672  O     s      4.5078 *    10.4130 *    -8.1591 *  0.0000     2          
   673  Cl    s     11.2695 *     8.1591 *    -1.3974 *  0.0000     2          
   674  O     s      4.5078 *   -12.1259 *     5.3643 *  0.0000     2          
   675  O     s     13.5234 *     1.3974 *    -3.6513 *  0.0000     2          
   676  Cl    s     11.2695 *     3.6513 *     7.6182 *  0.0000     2          
   677  Cl    s      2.2539 *    12.6669 *    -5.9052 *  0.0000     2          
   678  Cl    s      6.7617 *    -9.8721 *     7.6182 *  0.0000     2          
   679  O     s      9.0156 *    10.4130 *    -3.6513 *  0.0000     2          
   680  Cl    s     11.2695 *     8.1591 *     3.1104 *  0.0000     2          
   681  O     s      0.0000      10.4130 *     9.8721 *  0.0000     1          
   682  O     s      9.0156 *    -7.6182 *    -8.1591 *  0.0000     2          
   683  O     s     13.5234 *    -3.1104 *    -3.6513 *  0.0000     2          
   684  Cl    s      6.7617 *     3.6513 *    12.1259 *  0.0000     2          
   685  Cl    s      6.7617 *    12.6669 *    -1.3974 *  0.0000     2          
   686  O     s      0.0000       1.3974 *    14.3798 *  0.0000     1          
   687  Cl    s      2.2539 *    -9.8721 *   -10.4130 *  0.0000     2          
   688  O     s      9.0156 *     5.9052 *     9.8721 *  0.0000     2          
   689  O     s      0.0000     -12.1259 *    -8.1591 *  0.0000     1          
   690  O     s     13.5234 *     1.3974 *     5.3643 *  0.0000     2          
   691  Cl    s      2.2539 *   -14.3798 *    -1.3974 *  0.0000     2          
   692  Cl    s     11.2695 *    -5.3643 *     7.6182 *  0.0000     2          
   693  O     s      4.5078 *     5.9052 *   -12.6669 *  0.0000     2          
   694  Cl    s      6.7617 *    12.6669 *     3.1104 *  0.0000     2          
   695  O     s      0.0000      -3.1104 *    14.3798 *  0.0000     1          
   696  O     s      0.0000      -7.6182 *   -12.6669 *  0.0000     1          
   697  O     s      9.0156 *    10.4130 *     5.3643 *  0.0000     2          
   698  O     s     13.5234 *     5.9052 *     0.8565 *  0.0000     2          
   699  Cl    s      2.2539 *     8.1591 *    12.1259 *  0.0000     2          
   700  Cl    s      6.7617 *     8.1591 *   -10.4130 *  0.0000     2          
   701  O     s     13.5234 *    -3.1104 *     5.3643 *  0.0000     2          
   702  Cl    s      2.2539 *   -14.3798 *     3.1104 *  0.0000     2          
   703  Cl    s      6.7617 *    -5.3643 *    12.1259 *  0.0000     2          
   704  O     s      0.0000      14.9208 *     0.8565 *  0.0000     1          
   705  Cl    s      2.2539 *    12.6669 *     7.6182 *  0.0000     2          
   706  O     s      4.5078 *    10.4130 *     9.8721 *  0.0000     2          
   707  Cl    s     11.2695 *    -9.8721 *    -1.3974 *  0.0000     2          
   708  Cl    s     11.2695 *     8.1591 *    -5.9052 *  0.0000     2          
   709  Cl    s      2.2539 *    -0.8565 *   -14.9208 *  0.0000     2          
   710  O     s     -4.5078 *     1.3974 *    14.3798 *  0.0000     2          
   711  O     s      9.0156 *   -12.1259 *     0.8565 *  0.0000     2          
   712  O     s     13.5234 *     5.9052 *    -3.6513 *  0.0000     2          
   713  O     s      4.5078 *   -12.1259 *    -8.1591 *  0.0000     2          
   714  Cl    s     11.2695 *    -9.8721 *     3.1104 *  0.0000     2          
   715  O     s      0.0000      14.9208 *    -3.6513 *  0.0000     1          
   716  Cl    s     11.2695 *    -0.8565 *   -10.4130 *  0.0000     2          
   717  O     s      4.5078 *    -3.1104 *    14.3798 *  0.0000     2          
   718  O     s      9.0156 *    -7.6182 *     9.8721 *  0.0000     2          
   719  O     s     -4.5078 *    -7.6182 *   -12.6669 *  0.0000     2          
   720  Cl    s      2.2539 *     3.6513 *   -14.9208 *  0.0000     2          
   721  Cl    s      6.7617 *    12.6669 *    -5.9052 *  0.0000     2          
   722  O     s      0.0000       5.9052 *    14.3798 *  0.0000     1          
   723  O     s      9.0156 *   -12.1259 *    -3.6513 *  0.0000     2          
   724  O     s     13.5234 *    -7.6182 *     0.8565 *  0.0000     2          
   725  O     s      9.0156 *     1.3974 *   -12.6669 *  0.0000     2          
   726  O     s      4.5078 *    14.9208 *     0.8565 *  0.0000     2          
   727  O     s      0.0000     -12.1259 *     9.8721 *  0.0000     1          
   728  O     s     13.5234 *     5.9052 *     5.3643 *  0.0000     2          
   729  Cl    s      2.2539 *   -14.3798 *    -5.9052 *  0.0000     2          
   730  Cl    s     11.2695 *     3.6513 *   -10.4130 *  0.0000     2          
   731  Cl    s      2.2539 *    -9.8721 *    12.1259 *  0.0000     2          
   732  O     s      9.0156 *    -3.1104 *   -12.6669 *  0.0000     2          
   733  O     s      0.0000      14.9208 *     5.3643 *  0.0000     1          
   734  O     s     13.5234 *     1.3974 *    -8.1591 *  0.0000     2          
   735  Cl    s    -15.7773 *    -0.8565 *    -1.3974 *  0.0000     2          
   736  Cl    s     11.2695 *     8.1591 *     7.6182 *  0.0000     2          
   737  Cl    s      6.7617 *    -9.8721 *   -10.4130 *  0.0000     2          
   738  O     s     13.5234 *    -7.6182 *    -3.6513 *  0.0000     2          
   739  Cl    s      6.7617 *   -14.3798 *    -1.3974 *  0.0000     2          
--------------------------------------------------------------------------------

  Components of defect energy : 

--------------------------------------------------------------------------------
  Region 1 - region 1                   =      0.91898821 eV
  Region 1 - region 2a (unrelaxed)      =      9.29075714 eV
  Region 1 - 2a (relaxed - correction)  =     -0.17217248 eV
  Region 1 (Total)                      =     10.03757288 eV
  Region 2a                             =      0.08606446 eV
  Region 2b                             =     -0.34426063 eV
--------------------------------------------------------------------------------
  Total defect energy                   =      9.77937670 eV
--------------------------------------------------------------------------------

  Largest displacement in region 2 =   0.0128 Angstroms


  Number of variables =     2058

  Maximum number of calculations  =        1000
  Maximum Hessian update interval =          10
  Maximum step size               =   1.0000000
  Maximum parameter tolerance     =   0.0000100
  Maximum function  tolerance     =   0.0000100
  Maximum gradient  tolerance     =   0.0010000

  Symmetry adapted optimisation

  Symmetry to be used for second derivatives

  Newton-Raphson optimiser to be used

  BFGS hessian update to be used

  Lower half triangular hessian to be used

  Start of defect optimisation :

  Cycle:      0 Defect Energy:   9.779377  Gnorm:     0.009625  CPU:   14.025
  ** Hessian calculated **
  Cycle:      1 Defect Energy:   8.721661  Gnorm:     0.008231  CPU:   57.597
  Cycle:      2 Defect Energy:   8.382355  Gnorm:     0.007688  CPU:   83.710
  ** Hessian calculated **
  Cycle:      3 Defect Energy:   7.142969  Gnorm:     0.005627  CPU:  123.302
  ** Hessian calculated **
  Cycle:      4 Defect Energy:   6.549848  Gnorm:     0.002862  CPU:  159.112
  Cycle:      5 Defect Energy:   6.425518  Gnorm:     0.003100  CPU:  182.617
  Cycle:      6 Defect Energy:   6.318935  Gnorm:     0.002458  CPU:  203.471
  Cycle:      7 Defect Energy:   6.158887  Gnorm:     0.002900  CPU:  231.234
  Cycle:      8 Defect Energy:   5.969375  Gnorm:     0.001916  CPU:  254.717
  Cycle:      9 Defect Energy:   5.870370  Gnorm:     0.001742  CPU:  259.653
  Cycle:     10 Defect Energy:   5.727925  Gnorm:     0.001485  CPU:  264.652
  Cycle:     11 Defect Energy:   5.543160  Gnorm:     0.001271  CPU:  269.185
  Cycle:     12 Defect Energy:   5.356381  Gnorm:     0.001110  CPU:  273.908
  Cycle:     13 Defect Energy:   5.216342  Gnorm:     0.000886  CPU:  279.455
  ** Hessian calculated **
  Cycle:     14 Defect Energy:   5.189461  Gnorm:     0.000817  CPU:  299.265
  Cycle:     15 Defect Energy:   5.153835  Gnorm:     0.000789  CPU:  303.879
  Cycle:     16 Defect Energy:   5.106857  Gnorm:     0.000753  CPU:  308.432
  Cycle:     17 Defect Energy:   5.044838  Gnorm:     0.000734  CPU:  316.344
  Cycle:     18 Defect Energy:   4.965635  Gnorm:     0.000743  CPU:  321.664
  Cycle:     19 Defect Energy:   4.871653  Gnorm:     0.000801  CPU:  326.616
  Cycle:     20 Defect Energy:   4.811902  Gnorm:     0.000832  CPU:  331.562
  Cycle:     21 Defect Energy:   4.778177  Gnorm:     0.000849  CPU:  336.244
  Cycle:     22 Defect Energy:   4.743062  Gnorm:     0.000868  CPU:  340.759
  Cycle:     23 Defect Energy:   4.696539  Gnorm:     0.000884  CPU:  344.880
  ** Hessian calculated **
  Cycle:     24 Defect Energy:   4.655889  Gnorm:     0.000841  CPU:  366.548
  ** Hessian calculated **
  Cycle:     25 Defect Energy:   4.605363  Gnorm:     0.000774  CPU:  387.069
  Cycle:     26 Defect Energy:   4.588484  Gnorm:     0.000694  CPU:  392.214
  ** Hessian calculated **
  Cycle:     27 Defect Energy:   4.575885  Gnorm:     0.000641  CPU:  408.280
  Cycle:     28 Defect Energy:   4.560251  Gnorm:     0.000621  CPU:  412.194
  Cycle:     29 Defect Energy:   4.539494  Gnorm:     0.000592  CPU:  420.483
  Cycle:     30 Defect Energy:   4.513361  Gnorm:     0.000572  CPU:  425.862
  Cycle:     31 Defect Energy:   4.480601  Gnorm:     0.000557  CPU:  430.602
  Cycle:     32 Defect Energy:   4.445267  Gnorm:     0.000564  CPU:  435.291
  Cycle:     33 Defect Energy:   4.404871  Gnorm:     0.000605  CPU:  439.977
  Cycle:     34 Defect Energy:   4.351834  Gnorm:     0.000663  CPU:  444.205
  Cycle:     35 Defect Energy:   4.293235  Gnorm:     0.000784  CPU:  452.435
  Cycle:     36 Defect Energy:   4.246479  Gnorm:     0.000843  CPU:  457.838
  ** Hessian calculated **
  Cycle:     37 Defect Energy:   4.202259  Gnorm:     0.000763  CPU:  473.588
  Cycle:     38 Defect Energy:   4.145753  Gnorm:     0.000726  CPU:  478.756
  Cycle:     39 Defect Energy:   4.073273  Gnorm:     0.000671  CPU:  486.034
  Cycle:     40 Defect Energy:   3.985889  Gnorm:     0.000631  CPU:  491.066
  Cycle:     41 Defect Energy:   3.911034  Gnorm:     0.000636  CPU:  495.934
  Cycle:     42 Defect Energy:   3.853806  Gnorm:     0.000657  CPU:  500.776
  Cycle:     43 Defect Energy:   3.807497  Gnorm:     0.000706  CPU:  505.348
  Cycle:     44 Defect Energy:   3.765809  Gnorm:     0.000730  CPU:  512.226
  Cycle:     45 Defect Energy:   3.727080  Gnorm:     0.000769  CPU:  518.257
  Cycle:     46 Defect Energy:   3.685699  Gnorm:     0.000784  CPU:  523.452
  ** Hessian calculated **
  Cycle:     47 Defect Energy:   3.667928  Gnorm:     0.000757  CPU:  539.005
  Cycle:     48 Defect Energy:   3.644278  Gnorm:     0.000747  CPU:  546.423
  Cycle:     49 Defect Energy:   3.612174  Gnorm:     0.000722  CPU:  551.699
  Cycle:     50 Defect Energy:   3.571705  Gnorm:     0.000705  CPU:  556.733
  Cycle:     51 Defect Energy:   3.528715  Gnorm:     0.000707  CPU:  561.653
  Cycle:     52 Defect Energy:   3.495732  Gnorm:     0.000709  CPU:  566.526
  Cycle:     53 Defect Energy:   3.468291  Gnorm:     0.000734  CPU:  570.683
  Cycle:     54 Defect Energy:   3.443626  Gnorm:     0.000736  CPU:  575.556
  Cycle:     55 Defect Energy:   3.421000  Gnorm:     0.000757  CPU:  583.681
  Cycle:     56 Defect Energy:   3.396570  Gnorm:     0.000765  CPU:  589.015
  ** Hessian calculated **
  Cycle:     57 Defect Energy:   3.368866  Gnorm:     0.000742  CPU:  605.112
  Cycle:     58 Defect Energy:   3.353470  Gnorm:     0.000727  CPU:  612.863
  ** Hessian calculated **
  Cycle:     59 Defect Energy:   3.259176  Gnorm:     0.000647  CPU:  631.779
  Cycle:     60 Defect Energy:   3.102426  Gnorm:     0.000376  CPU:  636.322
  Cycle:     61 Defect Energy:   3.051822  Gnorm:     0.000238  CPU:  640.643
  Cycle:     62 Defect Energy:   3.058123  Gnorm:     0.000250  CPU:  648.623
  ** Hessian calculated **
  Cycle:     63 Defect Energy:   3.042354  Gnorm:     0.000177  CPU:  665.984
  Cycle:     64 Defect Energy:   3.033595  Gnorm:     0.000127  CPU:  670.639
  Cycle:     65 Defect Energy:   3.028036  Gnorm:     0.000090  CPU:  674.778
  Cycle:     66 Defect Energy:   3.024363  Gnorm:     0.000065  CPU:  682.755
  Cycle:     67 Defect Energy:   3.021751  Gnorm:     0.000047  CPU:  688.090
  Cycle:     68 Defect Energy:   3.019722  Gnorm:     0.000035  CPU:  693.046
  Cycle:     69 Defect Energy:   3.017958  Gnorm:     0.000029  CPU:  697.694
  Cycle:     70 Defect Energy:   3.016194  Gnorm:     0.000027  CPU:  702.216
  Cycle:     71 Defect Energy:   3.014317  Gnorm:     0.000030  CPU:  706.654
  Cycle:     72 Defect Energy:   3.012624  Gnorm:     0.000035  CPU:  710.634
  ** Hessian calculated **
  Cycle:     73 Defect Energy:   3.012567  Gnorm:     0.000021  CPU:  731.381
  Cycle:     74 Defect Energy:   3.012514  Gnorm:     0.000017  CPU:  735.937
  Cycle:     75 Defect Energy:   3.012462  Gnorm:     0.000015  CPU:  740.387
  Cycle:     76 Defect Energy:   3.012414  Gnorm:     0.000015  CPU:  747.659
  Cycle:     77 Defect Energy:   3.012382  Gnorm:     0.000015  CPU:  753.812
  Cycle:     78 Defect Energy:   3.012351  Gnorm:     0.000016  CPU:  758.606
  Cycle:     79 Defect Energy:   3.012326  Gnorm:     0.000017  CPU:  763.345
  Cycle:     80 Defect Energy:   3.012291  Gnorm:     0.000018  CPU:  767.851
  Cycle:     81 Defect Energy:   3.012266  Gnorm:     0.000019  CPU:  772.248
  Cycle:     82 Defect Energy:   3.012220  Gnorm:     0.000019  CPU:  778.824
  ** Hessian calculated **
  Cycle:     83 Defect Energy:   3.012182  Gnorm:     0.000019  CPU:  796.753
  Cycle:     84 Defect Energy:   3.012125  Gnorm:     0.000019  CPU:  801.267
  Cycle:     85 Defect Energy:   3.012041  Gnorm:     0.000019  CPU:  805.737
  Cycle:     86 Defect Energy:   3.011917  Gnorm:     0.000019  CPU:  810.148
  Cycle:     87 Defect Energy:   3.011726  Gnorm:     0.000019  CPU:  813.920
