********************************************************************************
*                       GENERAL UTILITY LATTICE PROGRAM                        *
*                                 Julian Gale                                  *
*                       Curtin Institute for Computation                       *
*                    School of Molecular and Life Sciences                     *
*                    Curtin University, Western Australia                      *
********************************************************************************
* Version = 5.2.0 * Last modified =  10th September 2020                       *
********************************************************************************
*  optimise     - perform optimisation run                                     *
*  conp         - constant pressure calculation                                *
*  property     - calculate properties for final geometry                      *
*  defect       - perform defect calculation after bulk run                    *
*  compare      - compare initial and final structures                         *
********************************************************************************

  Job Started  at 21:07.46 30th November   2020                               

  Number of CPUs =     1


  Total number of configurations input =      1

********************************************************************************
*  Input for Configuration =   1                                               *
********************************************************************************

  Formula = ClONa3                                                      

  Number of irreducible atoms/shells =       5


  Total number atoms/shells =       7

  Dimensionality = 3               :  Bulk   


  Symmetry :

  Crystal family                   :  Cubic       
  Crystal class  (Groth - 1921)    :  Cubic Hexakisoctahedral              

  Space group (centrosymmetric)    :  P M 3 M         

  Patterson group                  :  P m -3 m 

  Cartesian lattice vectors (Angstroms) :

        4.504000    0.000000    0.000000
        0.000000    4.504000    0.000000
        0.000000    0.000000    4.504000

  Cell parameters (Angstroms/Degrees):

  a =       4.5040    alpha =  90.0000
  b =       4.5040    beta  =  90.0000
  c =       4.5040    gamma =  90.0000

  Initial cell volume =          91.368216 Angs**3

  Temperature of configuration =   0.00     K 

  Pressure of configuration =         0.000 GPa 

  Fractional coordinates of asymmetric unit :

--------------------------------------------------------------------------------
   No.  Atomic       x           y          z         Charge      Occupancy
        Label      (Frac)      (Frac)     (Frac)        (e)         (Frac)  
--------------------------------------------------------------------------------
      1 Cl    c    0.000000    0.000000    0.000000     1.48500    1.000000    
      2 O     c    0.500000    0.500000    0.500000     0.18300    1.000000    
      3 Na    c    0.500000    0.500000    0.000000     1.00000    1.000000    
      4 Cl    s    0.000000    0.000000    0.000000    -2.48500    1.000000    
      5 O     s    0.500000    0.500000    0.500000    -2.18300    1.000000    
--------------------------------------------------------------------------------


  Constraints : 

--------------------------------------------------------------------------------
  Constraint no.      Unconstrained     Constrained    Coefficient    Offset
                         Variable         Variable
--------------------------------------------------------------------------------
           1              Strain 1        Strain 2       1.00000      0.0000
           2              Strain 1        Strain 3       1.00000      0.0000
--------------------------------------------------------------------------------


********************************************************************************
*  General input information                                                   *
********************************************************************************

  Species output for all configurations : 

--------------------------------------------------------------------------------
  Species    Type    Atomic    Atomic    Charge       Radii (Angs)     Library
                     Number     Mass       (e)     Cova   Ionic  VDW   Symbol
--------------------------------------------------------------------------------
    Na       Core       11      22.99   1.000000   0.970  0.000  2.300          
    O        Core        8      16.00   0.183000   0.730  0.000  1.360          
    O        Shell       8       0.00  -2.183000   0.730  0.000  1.360          
    Cl       Core       17      35.45   1.485000   0.990  0.000  1.650          
    Cl       Shell      17       0.00  -2.485000   0.990  0.000  1.650          
    Mg       Core       12      24.31   0.415000   1.100  0.000  0.000          
    Mg       Shell      12       0.00   1.585000   1.100  0.000  0.000          
    Ca       Core       20      40.08  -1.135000   0.990  0.000  0.000          
    Ca       Shell      20       0.00   3.135000   0.990  0.000  0.000          
    Sr       Core       38      87.62  -1.251000   1.120  0.000  0.000          
    Sr       Shell      38       0.00   3.251000   1.120  0.000  0.000          
    Ba       Core       56     137.33  -7.203000   1.340  0.000  0.000          
    Ba       Shell      56       0.00   9.203000   1.340  0.000  0.000          
--------------------------------------------------------------------------------


  Lattice summation method               =    Ewald          (3-D)
                                         =    Parry          (2-D)
                                         =    Saunders et al (1-D)
  Accuracy factor for lattice sums       =   12.000


  Analytic derivatives to be used

  Time limit = Infinity

  Maximum range for interatomic potentials =    100000.000000 Angstroms

  General interatomic potentials :

--------------------------------------------------------------------------------
Atom  Types   Potential      Parameter       Value         Units   Cutoffs(Ang)
  1     2                                                            Min /  Max 
--------------------------------------------------------------------------------
O    c O    s Spring (c-s)  Spring k 2       593.71600    eV*Ang^-2 0.000  0.800
                            Spring k 4       0.0000000    eV*Ang^-4 
--------------------------------------------------------------------------------
Cl   c Cl   s Spring (c-s)  Spring k 2       29.380000    eV*Ang^-2 0.000  0.800
                            Spring k 4       0.0000000    eV*Ang^-4 
--------------------------------------------------------------------------------
Mg   c Mg   s Spring (c-s)  Spring k 2       361.60000    eV*Ang^-2 0.000  0.800
                            Spring k 4       0.0000000    eV*Ang^-4 
--------------------------------------------------------------------------------
Ca   c Ca   s Spring (c-s)  Spring k 2       110.20000    eV*Ang^-2 0.000  0.800
                            Spring k 4       0.0000000    eV*Ang^-4 
--------------------------------------------------------------------------------
Sr   c Sr   s Spring (c-s)  Spring k 2       71.700000    eV*Ang^-2 0.000  0.800
                            Spring k 4       0.0000000    eV*Ang^-4 
--------------------------------------------------------------------------------
Ba   c Ba   s Spring (c-s)  Spring k 2       495.20000    eV*Ang^-2 0.000  0.800
                            Spring k 4       0.0000000    eV*Ang^-4 
--------------------------------------------------------------------------------
Na   c Na   c Buckingham    Buckingham A     1788.1900    eV        0.000 12.000
                            Buckingham rho  0.15900000    Ang       
                            Buckingham C     0.0000000    eV*Ang^6  
--------------------------------------------------------------------------------
Na   c O    s Buckingham    Buckingham A     1226.8400    eV        0.000 12.000
                            Buckingham rho  0.30700000    Ang       
                            Buckingham C     0.0000000    eV*Ang^6  
--------------------------------------------------------------------------------
Na   c Cl   s Buckingham    Buckingham A     2314.7000    eV        0.000 12.000
                            Buckingham rho  0.29000000    Ang       
                            Buckingham C     0.0000000    eV*Ang^6  
--------------------------------------------------------------------------------
O    s O    s Buckingham    Buckingham A     22764.300    eV        0.000 12.000
                            Buckingham rho  0.14900000    Ang       
                            Buckingham C     13.190000    eV*Ang^6  
--------------------------------------------------------------------------------
O    s Cl   s Buckingham    Buckingham A     8286.9100    eV        0.000 12.000
                            Buckingham rho  0.25900000    Ang       
                            Buckingham C     62.200000    eV*Ang^6  
--------------------------------------------------------------------------------
Cl   s Cl   s Buckingham    Buckingham A     1227.2000    eV        0.000 12.000
                            Buckingham rho  0.32100000    Ang       
                            Buckingham C     14.530000    eV*Ang^6  
--------------------------------------------------------------------------------
O    s Mg   s Buckingham    Buckingham A     1428.5000    eV        0.000 12.000
                            Buckingham rho  0.29450000    Ang       
                            Buckingham C     0.0000000    eV*Ang^6  
--------------------------------------------------------------------------------
Mg   s Cl   s Buckingham    Buckingham A     4914.5400    eV        0.000 12.000
                            Buckingham rho  0.25700000    Ang       
                            Buckingham C     0.0000000    eV*Ang^6  
--------------------------------------------------------------------------------
O    s Ca   s Buckingham    Buckingham A     1090.4000    eV        0.000 12.000
                            Buckingham rho  0.34370000    Ang       
                            Buckingham C     0.0000000    eV*Ang^6  
--------------------------------------------------------------------------------
Cl   s Ca   s Buckingham    Buckingham A     2302.0000    eV        0.000 12.000
                            Buckingham rho  0.34020000    Ang       
                            Buckingham C     0.0000000    eV*Ang^6  
--------------------------------------------------------------------------------
O    s Sr   s Buckingham    Buckingham A     959.10000    eV        0.000 12.000
                            Buckingham rho  0.37210000    Ang       
                            Buckingham C     0.0000000    eV*Ang^6  
--------------------------------------------------------------------------------
Cl   s Sr   s Buckingham    Buckingham A     2191.0900    eV        0.000 12.000
                            Buckingham rho  0.34570000    Ang       
                            Buckingham C     0.0000000    eV*Ang^6  
--------------------------------------------------------------------------------
O    s Ba   s Buckingham    Buckingham A     905.70000    eV        0.000 12.000
                            Buckingham rho  0.39760000    Ang       
                            Buckingham C     0.0000000    eV*Ang^6  
--------------------------------------------------------------------------------
Cl   s Ba   s Buckingham    Buckingham A     2704.5500    eV        0.000 12.000
                            Buckingham rho  0.35280000    Ang       
                            Buckingham C     0.0000000    eV*Ang^6  
--------------------------------------------------------------------------------

********************************************************************************
*  Output for configuration   1                                                *
********************************************************************************


  Components of energy : 

--------------------------------------------------------------------------------
  Interatomic potentials     =           5.13022605 eV    
  Monopole - monopole (real) =         -10.03624526 eV    
  Monopole - monopole (recip)=         -29.53581274 eV    
  Monopole - monopole (total)=         -39.57205800 eV    
--------------------------------------------------------------------------------
  Total lattice energy       =         -34.44183194 eV    
--------------------------------------------------------------------------------
  Total lattice energy       =           -3323.1103 kJ/(mole unit cells)
--------------------------------------------------------------------------------


  Number of variables =        1

  Maximum number of calculations  =          1000
  Maximum Hessian update interval =            10
  Maximum step size               =   1.000000000
  Maximum parameter tolerance     =   0.000010000
  Maximum function  tolerance     =   0.000010000
  Maximum gradient  tolerance     =   0.001000000
  Maximum gradient  component     =   0.010000000

  Symmetry constrained optimisation

  Symmetry used for second derivatives

  Cell parameters to be optimised using strains

  Newton-Raphson optimiser to be used

  BFGS hessian update to be used

  Lower half triangular hessian to be used

  Start of bulk optimisation :

  Cycle:      0 Energy:       -34.441832  Gnorm:      0.196570  CPU:    0.070
  ** Hessian calculated **
  Cycle:      1 Energy:       -34.441914  Gnorm:      0.000103  CPU:    0.088


  **** Optimisation achieved ****


  Final energy =     -34.44191447 eV
  Final Gnorm  =       0.00000000

  Components of energy : 

--------------------------------------------------------------------------------
  Interatomic potentials     =           5.09689708 eV    
  Monopole - monopole (real) =         -10.02781331 eV    
  Monopole - monopole (recip)=         -29.51099824 eV    
  Monopole - monopole (total)=         -39.53881155 eV    
--------------------------------------------------------------------------------
  Total lattice energy       =         -34.44191447 eV    
--------------------------------------------------------------------------------
  Total lattice energy       =           -3323.1183 kJ/(mole unit cells)
--------------------------------------------------------------------------------

  Final asymmetric unit coordinates :

--------------------------------------------------------------------------------
   No.  Atomic        x           y           z         Radius
        Label       (Frac)      (Frac)      (Frac)       (Angs) 
--------------------------------------------------------------------------------
     1  Cl    c     0.000000    0.000000    0.000000    0.000000
     2  O     c     0.500000    0.500000    0.500000    0.000000
     3  Na    c     0.500000    0.500000    0.000000    0.000000
     4  Cl    s     0.000000    0.000000    0.000000    0.000000
     5  O     s     0.500000    0.500000    0.500000    0.000000
--------------------------------------------------------------------------------

  Final Cartesian lattice vectors (Angstroms) :

        4.507787    0.000000    0.000000
        0.000000    4.507787    0.000000
        0.000000    0.000000    4.507787


  Final cell parameters and derivatives :

--------------------------------------------------------------------------------
       a            4.507787 Angstrom     dE/de1(xx)     0.000000 eV/strain
       b            4.507787 Angstrom     dE/de2(yy)     0.000000 eV/strain
       c            4.507787 Angstrom     dE/de3(zz)     0.000000 eV/strain
       alpha       90.000000 Degrees      dE/de4(yz)     0.000000 eV/strain
       beta        90.000000 Degrees      dE/de5(xz)     0.000000 eV/strain
       gamma       90.000000 Degrees      dE/de6(xy)     0.000000 eV/strain
--------------------------------------------------------------------------------

  Primitive cell volume =            91.598892 Angs**3

  Density of cell =      2.183054 g/cm**3

  Non-primitive cell volume =            91.598892 Angs**3


  Final internal derivatives :

--------------------------------------------------------------------------------
   No.  Atomic          a             b             c           Radius
        Label          (eV)          (eV)          (eV)        (eV/Angs)
--------------------------------------------------------------------------------
      1 Cl    c       0.000000      0.000000      0.000000      0.000000
      2 O     c       0.000000      0.000000      0.000000      0.000000
      3 Na    c       0.000000      0.000000      0.000000      0.000000
      4 Cl    s       0.000000      0.000000      0.000000      0.000000
      5 O     s       0.000000      0.000000      0.000000      0.000000
--------------------------------------------------------------------------------
  Maximum abs         0.000000      0.000000      0.000000      0.000000
--------------------------------------------------------------------------------

  Comparison of initial and final structures : 

--------------------------------------------------------------------------------
  Parameter   Initial value   Final value   Difference    Units      Percent
--------------------------------------------------------------------------------
    Volume        91.368216     91.598892     0.230676    Angs**3      0.25
    a              4.504000      4.507787     0.003787    Angstroms    0.08
    b              4.504000      4.507787     0.003787    Angstroms    0.08
    c              4.504000      4.507787     0.003787    Angstroms    0.08
    alpha         90.000000     90.000000     0.000000    Degrees      0.00
    beta          90.000000     90.000000     0.000000    Degrees      0.00
    gamma         90.000000     90.000000     0.000000    Degrees      0.00
      1 x          0.000000      0.000000     0.000000    Fractional   0.00
      1 y          0.000000      0.000000     0.000000    Fractional   0.00
      1 z          0.000000      0.000000     0.000000    Fractional   0.00
      2 x          0.500000      0.500000     0.000000    Fractional   0.00
      2 y          0.500000      0.500000     0.000000    Fractional   0.00
      2 z          0.500000      0.500000     0.000000    Fractional   0.00
      3 x          0.500000      0.500000     0.000000    Fractional   0.00
      3 y          0.500000      0.500000     0.000000    Fractional   0.00
      3 z          0.000000      0.000000     0.000000    Fractional   0.00
      4 x          0.000000      0.000000     0.000000    Fractional   0.00
      4 y          0.000000      0.000000     0.000000    Fractional   0.00
      4 z          0.000000      0.000000     0.000000    Fractional   0.00
      5 x          0.500000      0.500000     0.000000    Fractional   0.00
      5 y          0.500000      0.500000     0.000000    Fractional   0.00
      5 z          0.500000      0.500000     0.000000    Fractional   0.00
--------------------------------------------------------------------------------


  Born effective charge tensors : 

-------------------------------------------------------------------------------
  Atom             x           y             z
-------------------------------------------------------------------------------
    1 Cl    x      -1.0181     -0.0000      0.0000
            y      -0.0000     -1.0181      0.0000
            z       0.0000      0.0000     -1.0181
-------------------------------------------------------------------------------
    2 O     x      -2.2647      0.0000     -0.0000
            y       0.0000     -2.2647     -0.0000
            z      -0.0000     -0.0000     -2.2647
-------------------------------------------------------------------------------
    3 Na    x       1.2258     -0.0000      0.0000
            y      -0.0000      1.2258     -0.0000
            z       0.0000     -0.0000      0.8313
-------------------------------------------------------------------------------




  Elastic Constant Matrix: (Units=GPa)

-------------------------------------------------------------------------------
  Indices      1         2         3         4         5         6    
-------------------------------------------------------------------------------
       1     95.8177   20.0737   20.0737   -0.0000   -0.0000    0.0000
       2     20.0737   95.8177   20.0737   -0.0000   -0.0000    0.0000
       3     20.0737   20.0737   95.8177   -0.0000   -0.0000    0.0000
       4     -0.0000   -0.0000   -0.0000   20.0737   -0.0000    0.0000
       5     -0.0000   -0.0000   -0.0000   -0.0000   20.0737    0.0000
       6      0.0000    0.0000    0.0000    0.0000    0.0000   20.0737
-------------------------------------------------------------------------------


  Elastic Compliance Matrix: (Units=1/GPa)

-------------------------------------------------------------------------------
  Indices      1         2         3         4         5         6    
-------------------------------------------------------------------------------
       1    0.011253 -0.001949 -0.001949  0.000000  0.000000 -0.000000
       2   -0.001949  0.011253 -0.001949  0.000000  0.000000  0.000000
       3   -0.001949 -0.001949  0.011253  0.000000  0.000000 -0.000000
       4    0.000000  0.000000  0.000000  0.049816  0.000000 -0.000000
       5    0.000000  0.000000  0.000000  0.000000  0.049816 -0.000000
       6   -0.000000  0.000000 -0.000000 -0.000000 -0.000000  0.049816
-------------------------------------------------------------------------------

  Mechanical properties :

-------------------------------------------------------------------------------
  Convention :                    Reuss         Voigt         Hill
-------------------------------------------------------------------------------
  Bulk  Modulus (GPa)     =      45.32174      45.32174      45.32174
  Shear Modulus (GPa)     =      24.72085      27.19304      25.95695
-------------------------------------------------------------------------------
  Velocity S-wave (km/s)  =       3.36511       3.52937       3.44822
  Velocity P-wave (km/s)  =       5.98827       6.11304       6.05098
-------------------------------------------------------------------------------
  Compressibility (1/GPa) =    0.02206447
-------------------------------------------------------------------------------
  Stress axis :                     x             y             z
-------------------------------------------------------------------------------
  Youngs Moduli (GPa)     =      88.86373      88.86373      88.86373
-------------------------------------------------------------------------------
  Poissons Ratio (x)      =                     0.17321       0.17321
  Poissons Ratio (y)      =       0.17321                     0.17321
  Poissons Ratio (z)      =       0.17321       0.17321
-------------------------------------------------------------------------------


  Piezoelectric Strain Matrix: (Units=C/m**2)

-------------------------------------------------------------------------------
  Indices      1         2         3         4         5         6    
-------------------------------------------------------------------------------
       x    -0.00000  -0.00000  -0.00000   0.00000  -0.00000  -0.00000
       y    -0.00000  -0.00000   0.00000  -0.00000   0.00000   0.00000
       z    -0.00000  -0.00000  -0.00000  -0.00000   0.00000   0.00000
-------------------------------------------------------------------------------


  Piezoelectric Stress Matrix: (Units=10**-11 C/N)

-------------------------------------------------------------------------------
  Indices      1         2         3         4         5         6    
-------------------------------------------------------------------------------
       x    -0.00000   0.00000   0.00000   0.00000  -0.00000  -0.00000
       y    -0.00000  -0.00000   0.00000  -0.00000   0.00000   0.00000
       z     0.00000   0.00000  -0.00000  -0.00000   0.00000   0.00000
-------------------------------------------------------------------------------


  Static dielectric constant tensor : 

-------------------------------------------------------------------------------
              x         y         z
-------------------------------------------------------------------------------
       x    22.84729   0.00000   0.00000
       y     0.00000  22.84729  -0.00000
       z     0.00000  -0.00000  22.84729
--------------------------------------------------------------------------------

  High frequency dielectric constant tensor : 

-------------------------------------------------------------------------------
              x         y         z
-------------------------------------------------------------------------------
       x     1.47557   0.00000  -0.00000
       y     0.00000   1.47557  -0.00000
       z    -0.00000  -0.00000   1.47557
-------------------------------------------------------------------------------

  Static refractive indices : 

-------------------------------------------------------------------------------
    1 =    4.77988      2 =    4.77988      3 =    4.77988
-------------------------------------------------------------------------------

  High frequency refractive indices : 

-------------------------------------------------------------------------------
    1 =    1.21473      2 =    1.21473      3 =    1.21473
-------------------------------------------------------------------------------


  Time to end of optimisation =       0.1306 seconds

********************************************************************************
*  Defect calculation for configuration   1 :                                  *
********************************************************************************

  Total number of defects =      3

  Total charge on defect  =  -1.00

  Defect centre is at   0.5000   0.2700   0.2300  Frac

  Region 1 radius =  16.0000      Number of ions =   1319

  Number of symmetry inequivalent region 1 ions  =    738

  Region 2 radius =  20.0000      Number of ions =   1256

  Number of symmetry inequivalent region 2a ions =    675

  Region 2a mode = 4 : screened electrostatics due to region 1 
                       neglect correction to region 1 forces from 2a
                       region 2a displacements based on defects only

  Region 2a ions will only interact with defects in region 1

  Vacancies:

--------------------------------------------------------------------------------
    Specification type     Symbol/Number         x          y          z
--------------------------------------------------------------------------------
    Fractional                               0.500000   0.500000   0.000000
    Fractional                               0.500000   0.000000   0.500000
--------------------------------------------------------------------------------

  Interstitials:

--------------------------------------------------------------------------------
    Specification type     Symbol/Number         x          y          z
--------------------------------------------------------------------------------
    Atom/Fractional         Na               0.500000   0.270000   0.230000
--------------------------------------------------------------------------------


  Symmetry reduced region 1 (Relative to defect centre) :

--------------------------------------------------------------------------------
   No.   Atomic       x            y             z       Radius  Multiplicity   
         Label      (Angs)       (Angs)        (Angs)    (Angs)     
--------------------------------------------------------------------------------
     1  Na    c      0.0000       0.0000       0.0000    0.0000     1    Defect
     2  O     c      0.0000       1.0368 *     1.2171 *  0.0000     1          
     3  Cl    c      2.2539 *    -1.2171 *    -1.0368 *  0.0000     2          
     4  Na    c      2.2539 *     1.0368 *     1.2171 *  0.0000     2          
     5  O     c      0.0000       1.0368 *    -3.2907 *  0.0000     1          
     6  Na    c      0.0000      -1.2171 *    -3.2907 *  0.0000     1          
     7  Na    c      0.0000       3.2907 *     1.2171 *  0.0000     1          
     8  Na    c      0.0000       1.0368 *     3.4710 *  0.0000     1          
     9  Na    c      0.0000      -3.4710 *    -1.0368 *  0.0000     1          
    10  O     c      0.0000      -3.4710 *     1.2171 *  0.0000     1          
    11  Cl    c      2.2539 *     3.2907 *    -1.0368 *  0.0000     2          
    12  Na    c      2.2539 *     1.0368 *    -3.2907 *  0.0000     2          
    13  Cl    c      2.2539 *    -1.2171 *     3.4710 *  0.0000     2          
    14  Na    c      2.2539 *    -3.4710 *     1.2171 *  0.0000     2          
    15  Na    c      0.0000       3.2907 *    -3.2907 *  0.0000     1          
    16  Na    c     -4.5078 *     1.0368 *    -1.0368 *  0.0000     2          
    17  O     c     -4.5078 *     1.0368 *     1.2171 *  0.0000     2          
    18  O     c      0.0000      -3.4710 *    -3.2907 *  0.0000     1          
    19  Na    c     -4.5078 *    -1.2171 *     1.2171 *  0.0000     2          
    20  Na    c      0.0000      -3.4710 *     3.4710 *  0.0000     1          
    21  Cl    c      2.2539 *     3.2907 *     3.4710 *  0.0000     2          
    22  Na    c      2.2539 *    -3.4710 *    -3.2907 *  0.0000     2          
    23  Na    c      0.0000       1.0368 *    -5.5446 *  0.0000     1          
    24  Na    c      0.0000       5.5446 *    -1.0368 *  0.0000     1          
    25  O     c      0.0000       5.5446 *     1.2171 *  0.0000     1          
    26  O     c     -4.5078 *     1.0368 *    -3.2907 *  0.0000     2          
    27  Na    c     -4.5078 *    -1.2171 *    -3.2907 *  0.0000     2          
    28  Na    c     -4.5078 *     3.2907 *     1.2171 *  0.0000     2          
    29  Na    c     -4.5078 *     1.0368 *     3.4710 *  0.0000     2          
    30  Na    c     -4.5078 *    -3.4710 *    -1.0368 *  0.0000     2          
    31  O     c      0.0000       1.0368 *     5.7249 *  0.0000     1          
    32  O     c     -4.5078 *    -3.4710 *     1.2171 *  0.0000     2          
    33  Na    c      0.0000      -1.2171 *     5.7249 *  0.0000     1          
    34  Na    c      0.0000      -5.7249 *     1.2171 *  0.0000     1          
    35  Cl    c      2.2539 *    -1.2171 *    -5.5446 *  0.0000     2          
    36  Na    c      2.2539 *     5.5446 *     1.2171 *  0.0000     2          
    37  Cl    c      2.2539 *    -5.7249 *    -1.0368 *  0.0000     2          
    38  Na    c      2.2539 *     1.0368 *     5.7249 *  0.0000     2          
    39  O     c      0.0000       5.5446 *    -3.2907 *  0.0000     1          
    40  Na    c     -4.5078 *     3.2907 *    -3.2907 *  0.0000     2          
    41  Na    c      0.0000       5.5446 *     3.4710 *  0.0000     1          
    42  Na    c      0.0000      -3.4710 *    -5.5446 *  0.0000     1          
    43  O     c     -4.5078 *    -3.4710 *    -3.2907 *  0.0000     2          
    44  Na    c      0.0000       3.2907 *     5.7249 *  0.0000     1          
    45  Na    c      0.0000      -5.7249 *    -3.2907 *  0.0000     1          
    46  Na    c     -4.5078 *    -3.4710 *     3.4710 *  0.0000     2          
    47  O     c      0.0000      -3.4710 *     5.7249 *  0.0000     1          
    48  Cl    c      2.2539 *     3.2907 *    -5.5446 *  0.0000     2          
    49  Na    c      2.2539 *     5.5446 *    -3.2907 *  0.0000     2          
    50  Cl    c      6.7617 *    -1.2171 *    -1.0368 *  0.0000     2          
    51  Na    c      6.7617 *     1.0368 *     1.2171 *  0.0000     2          
    52  Cl    c      2.2539 *    -5.7249 *     3.4710 *  0.0000     2          
    53  Na    c      2.2539 *    -3.4710 *     5.7249 *  0.0000     2          
    54  Na    c     -4.5078 *     1.0368 *    -5.5446 *  0.0000     2          
    55  Na    c     -4.5078 *     5.5446 *    -1.0368 *  0.0000     2          
    56  O     c     -4.5078 *     5.5446 *     1.2171 *  0.0000     2          
    57  O     c     -4.5078 *     1.0368 *     5.7249 *  0.0000     2          
    58  Na    c     -4.5078 *    -1.2171 *     5.7249 *  0.0000     2          
    59  Na    c      4.5078 *    -5.7249 *     1.2171 *  0.0000     2          
    60  Cl    c      6.7617 *     3.2907 *    -1.0368 *  0.0000     2          
    61  Na    c      6.7617 *     1.0368 *    -3.2907 *  0.0000     2          
    62  Cl    c      6.7617 *    -1.2171 *     3.4710 *  0.0000     2          
    63  Na    c      6.7617 *    -3.4710 *     1.2171 *  0.0000     2          
    64  Na    c      0.0000       5.5446 *    -5.5446 *  0.0000     1          
    65  O     c     -4.5078 *     5.5446 *    -3.2907 *  0.0000     2          
    66  O     c      0.0000       1.0368 *    -7.7985 *  0.0000     1          
    67  Na    c      0.0000       7.7985 *     1.2171 *  0.0000     1          
    68  Na    c      0.0000      -1.2171 *    -7.7985 *  0.0000     1          
    69  Na    c     -4.5078 *     5.5446 *     3.4710 *  0.0000     2          
    70  Na    c     -4.5078 *    -3.4710 *    -5.5446 *  0.0000     2          
    71  O     c      0.0000       5.5446 *     5.7249 *  0.0000     1          
    72  Na    c     -4.5078 *     3.2907 *     5.7249 *  0.0000     2          
    73  Na    c      4.5078 *    -5.7249 *    -3.2907 *  0.0000     2          
    74  Na    c      0.0000       1.0368 *     7.9788 *  0.0000     1          
    75  Na    c      0.0000      -7.9788 *    -1.0368 *  0.0000     1          
    76  O     c      0.0000      -7.9788 *     1.2171 *  0.0000     1          
    77  O     c      4.5078 *    -3.4710 *     5.7249 *  0.0000     2          
    78  Na    c      0.0000      -5.7249 *     5.7249 *  0.0000     1          
    79  Cl    c      2.2539 *     7.7985 *    -1.0368 *  0.0000     2          
    80  Na    c      2.2539 *     1.0368 *    -7.7985 *  0.0000     2          
    81  Cl    c      2.2539 *    -5.7249 *    -5.5446 *  0.0000     2          
    82  Cl    c      6.7617 *     3.2907 *     3.4710 *  0.0000     2          
    83  Na    c      2.2539 *     5.5446 *     5.7249 *  0.0000     2          
    84  Na    c      6.7617 *    -3.4710 *    -3.2907 *  0.0000     2          
    85  Cl    c      2.2539 *    -1.2171 *     7.9788 *  0.0000     2          
    86  Na    c      2.2539 *    -7.9788 *     1.2171 *  0.0000     2          
    87  Na    c      0.0000       7.7985 *    -3.2907 *  0.0000     1          
    88  Na    c      0.0000       3.2907 *    -7.7985 *  0.0000     1          
    89  O     c      0.0000      -3.4710 *    -7.7985 *  0.0000     1          
    90  O     c      0.0000      -7.9788 *    -3.2907 *  0.0000     1          
    91  Na    c      0.0000      -3.4710 *     7.9788 *  0.0000     1          
    92  Na    c      0.0000      -7.9788 *     3.4710 *  0.0000     1          
    93  Cl    c      2.2539 *     7.7985 *     3.4710 *  0.0000     2          
    94  Na    c      6.7617 *     5.5446 *     1.2171 *  0.0000     2          
    95  Cl    c      6.7617 *    -1.2171 *    -5.5446 *  0.0000     2          
    96  Na    c      2.2539 *    -3.4710 *    -7.7985 *  0.0000     2          
    97  Cl    c      2.2539 *     3.2907 *     7.9788 *  0.0000     2          
    98  Na    c      2.2539 *    -7.9788 *    -3.2907 *  0.0000     2          
    99  Cl    c      6.7617 *    -5.7249 *    -1.0368 *  0.0000     2          
   100  Na    c      6.7617 *     1.0368 *     5.7249 *  0.0000     2          
   101  Na    c     -4.5078 *     5.5446 *    -5.5446 *  0.0000     2          
   102  O     c     -4.5078 *     1.0368 *    -7.7985 *  0.0000     2          
   103  Na    c     -4.5078 *     7.7985 *     1.2171 *  0.0000     2          
   104  Na    c     -4.5078 *    -1.2171 *    -7.7985 *  0.0000     2          
   105  Na    c      9.0156 *     1.0368 *    -1.0368 *  0.0000     2          
   106  O     c      4.5078 *     5.5446 *     5.7249 *  0.0000     2          
   107  O     c      9.0156 *     1.0368 *     1.2171 *  0.0000     2          
   108  Na    c      9.0156 *    -1.2171 *     1.2171 *  0.0000     2          
   109  Na    c      4.5078 *     1.0368 *     7.9788 *  0.0000     2          
   110  Na    c      4.5078 *    -7.9788 *    -1.0368 *  0.0000     2          
   111  O     c      4.5078 *    -7.9788 *     1.2171 *  0.0000     2          
   112  Na    c      4.5078 *    -5.7249 *     5.7249 *  0.0000     2          
   113  Cl    c      6.7617 *     3.2907 *    -5.5446 *  0.0000     2          
   114  Na    c      6.7617 *     5.5446 *    -3.2907 *  0.0000     2          
   115  Cl    c      6.7617 *    -5.7249 *     3.4710 *  0.0000     2          
   116  Na    c      6.7617 *    -3.4710 *     5.7249 *  0.0000     2          
   117  O     c      0.0000       5.5446 *    -7.7985 *  0.0000     1          
   118  Na    c     -4.5078 *     7.7985 *    -3.2907 *  0.0000     2          
   119  Na    c      4.5078 *     3.2907 *    -7.7985 *  0.0000     2          
   120  O     c      4.5078 *    -3.4710 *    -7.7985 *  0.0000     2          
   121  O     c      9.0156 *     1.0368 *    -3.2907 *  0.0000     2          
   122  Na    c      0.0000       7.7985 *     5.7249 *  0.0000     1          
   123  Na    c      9.0156 *    -1.2171 *    -3.2907 *  0.0000     2          
   124  Na    c      9.0156 *     3.2907 *     1.2171 *  0.0000     2          
   125  Na    c      0.0000      -5.7249 *    -7.7985 *  0.0000     1          
   126  Na    c      0.0000       5.5446 *     7.9788 *  0.0000     1          
   127  Na    c      0.0000      -7.9788 *    -5.5446 *  0.0000     1          
   128  Na    c      9.0156 *     1.0368 *     3.4710 *  0.0000     2          
   129  Na    c      9.0156 *    -3.4710 *    -1.0368 *  0.0000     2          
   130  O     c      4.5078 *    -7.9788 *    -3.2907 *  0.0000     2          
   131  O     c      9.0156 *    -3.4710 *     1.2171 *  0.0000     2          
   132  Na    c     -4.5078 *    -3.4710 *     7.9788 *  0.0000     2          
   133  Na    c      4.5078 *    -7.9788 *     3.4710 *  0.0000     2          
   134  O     c      0.0000      -7.9788 *     5.7249 *  0.0000     1          
   135  Cl    c      2.2539 *     7.7985 *    -5.5446 *  0.0000     2          
   136  Na    c      2.2539 *     5.5446 *    -7.7985 *  0.0000     2          
   137  Cl    c      2.2539 *    -5.7249 *     7.9788 *  0.0000     2          
   138  Na    c      2.2539 *    -7.9788 *     5.7249 *  0.0000     2          
   139  Na    c      0.0000       1.0368 *   -10.0524 *  0.0000     1          
   140  Na    c      0.0000      10.0524 *    -1.0368 *  0.0000     1          
   141  O     c      0.0000      10.0524 *     1.2171 *  0.0000     1          
   142  Na    c      9.0156 *     3.2907 *    -3.2907 *  0.0000     2          
   143  O     c      9.0156 *    -3.4710 *    -3.2907 *  0.0000     2          
   144  Na    c      9.0156 *    -3.4710 *     3.4710 *  0.0000     2          
   145  O     c      0.0000       1.0368 *    10.2327 *  0.0000     1          
   146  Na    c      0.0000      -1.2171 *    10.2327 *  0.0000     1          
   147  Na    c      0.0000     -10.2327 *     1.2171 *  0.0000     1          
   148  Cl    c      2.2539 *    -1.2171 *   -10.0524 *  0.0000     2          
   149  Cl    c      6.7617 *     7.7985 *    -1.0368 *  0.0000     2          
   150  Na    c      2.2539 *    10.0524 *     1.2171 *  0.0000     2          
   151  Na    c      6.7617 *     1.0368 *    -7.7985 *  0.0000     2          
   152  Cl    c      6.7617 *    -5.7249 *    -5.5446 *  0.0000     2          
   153  Na    c      6.7617 *     5.5446 *     5.7249 *  0.0000     2          
   154  Cl    c      6.7617 *    -1.2171 *     7.9788 *  0.0000     2          
   155  Na    c      6.7617 *    -7.9788 *     1.2171 *  0.0000     2          
   156  Cl    c      2.2539 *   -10.2327 *    -1.0368 *  0.0000     2          
   157  Na    c      2.2539 *     1.0368 *    10.2327 *  0.0000     2          
   158  O     c      0.0000      10.0524 *    -3.2907 *  0.0000     1          
   159  O     c     -4.5078 *     5.5446 *    -7.7985 *  0.0000     2          
   160  Na    c      9.0156 *     1.0368 *    -5.5446 *  0.0000     2          
   161  Na    c      9.0156 *     5.5446 *    -1.0368 *  0.0000     2          
   162  Na    c      0.0000      10.0524 *     3.4710 *  0.0000     1          
   163  Na    c      0.0000      -3.4710 *   -10.0524 *  0.0000     1          
   164  O     c      9.0156 *     5.5446 *     1.2171 *  0.0000     2          
   165  Na    c     -4.5078 *     7.7985 *     5.7249 *  0.0000     2          
   166  Na    c      4.5078 *    -5.7249 *    -7.7985 *  0.0000     2          
   167  Na    c     -4.5078 *     5.5446 *     7.9788 *  0.0000     2          
   168  Na    c      4.5078 *    -7.9788 *    -5.5446 *  0.0000     2          
   169  O     c      9.0156 *     1.0368 *     5.7249 *  0.0000     2          
   170  Na    c      9.0156 *    -1.2171 *     5.7249 *  0.0000     2          
   171  Na    c      9.0156 *    -5.7249 *     1.2171 *  0.0000     2          
   172  Na    c      0.0000       3.2907 *    10.2327 *  0.0000     1          
   173  Na    c      0.0000     -10.2327 *    -3.2907 *  0.0000     1          
   174  O     c      4.5078 *    -7.9788 *     5.7249 *  0.0000     2          
   175  O     c      0.0000      -3.4710 *    10.2327 *  0.0000     1          
   176  Cl    c      2.2539 *     3.2907 *   -10.0524 *  0.0000     2          
   177  Na    c      2.2539 *    10.0524 *    -3.2907 *  0.0000     2          
   178  Cl    c      6.7617 *     7.7985 *     3.4710 *  0.0000     2          
   179  Na    c      6.7617 *    -3.4710 *    -7.7985 *  0.0000     2          
   180  Cl    c      6.7617 *     3.2907 *     7.9788 *  0.0000     2          
   181  Na    c      6.7617 *    -7.9788 *    -3.2907 *  0.0000     2          
   182  Na    c      0.0000       7.7985 *    -7.7985 *  0.0000     1          
   183  Cl    c      2.2539 *   -10.2327 *     3.4710 *  0.0000     2          
   184  Na    c      2.2539 *    -3.4710 *    10.2327 *  0.0000     2          
   185  Na    c      4.5078 *     1.0368 *   -10.0524 *  0.0000     2          
   186  Na    c     -4.5078 *    10.0524 *    -1.0368 *  0.0000     2          
   187  O     c      9.0156 *     5.5446 *    -3.2907 *  0.0000     2          
   188  O     c     -4.5078 *    10.0524 *     1.2171 *  0.0000     2          
   189  Na    c      9.0156 *     5.5446 *     3.4710 *  0.0000     2          
   190  Na    c      9.0156 *    -3.4710 *    -5.5446 *  0.0000     2          
   191  O     c      0.0000      -7.9788 *    -7.7985 *  0.0000     1          
   192  Na    c      9.0156 *     3.2907 *     5.7249 *  0.0000     2          
   193  Na    c      9.0156 *    -5.7249 *    -3.2907 *  0.0000     2          
   194  O     c      9.0156 *    -3.4710 *     5.7249 *  0.0000     2          
   195  O     c     -4.5078 *     1.0368 *    10.2327 *  0.0000     2          
   196  Na    c     -4.5078 *    -1.2171 *    10.2327 *  0.0000     2          
   197  Na    c     -4.5078 *   -10.2327 *     1.2171 *  0.0000     2          
   198  Na    c      0.0000      -7.9788 *     7.9788 *  0.0000     1          
   199  Cl    c     11.2695 *    -1.2171 *    -1.0368 *  0.0000     2          
   200  Na    c     11.2695 *     1.0368 *     1.2171 *  0.0000     2          
   201  Cl    c      2.2539 *     7.7985 *     7.9788 *  0.0000     2          
   202  Na    c      2.2539 *    -7.9788 *    -7.7985 *  0.0000     2          
   203  Na    c      0.0000       5.5446 *   -10.0524 *  0.0000     1          
   204  Na    c      0.0000      10.0524 *    -5.5446 *  0.0000     1          
   205  O     c     -4.5078 *    10.0524 *    -3.2907 *  0.0000     2          
   206  Na    c     -4.5078 *    10.0524 *     3.4710 *  0.0000     2          
   207  Na    c     -4.5078 *    -3.4710 *   -10.0524 *  0.0000     2          
   208  O     c      0.0000      10.0524 *     5.7249 *  0.0000     1          
   209  O     c      0.0000       5.5446 *    10.2327 *  0.0000     1          
   210  Na    c      4.5078 *     3.2907 *    10.2327 *  0.0000     2          
   211  Na    c      4.5078 *   -10.2327 *    -3.2907 *  0.0000     2          
   212  O     c      4.5078 *    -3.4710 *    10.2327 *  0.0000     2          
   213  Cl    c      6.7617 *     7.7985 *    -5.5446 *  0.0000     2          
   214  Na    c      6.7617 *     5.5446 *    -7.7985 *  0.0000     2          
   215  Na    c      0.0000      -5.7249 *    10.2327 *  0.0000     1          
   216  Na    c      0.0000     -10.2327 *     5.7249 *  0.0000     1          
   217  Cl    c     11.2695 *     3.2907 *    -1.0368 *  0.0000     2          
   218  Na    c     11.2695 *     1.0368 *    -3.2907 *  0.0000     2          
   219  Cl    c      2.2539 *    -5.7249 *   -10.0524 *  0.0000     2          
   220  Na    c      2.2539 *    10.0524 *     5.7249 *  0.0000     2          
   221  Cl    c     11.2695 *    -1.2171 *     3.4710 *  0.0000     2          
   222  Na    c     11.2695 *    -3.4710 *     1.2171 *  0.0000     2          
   223  Cl    c      2.2539 *   -10.2327 *    -5.5446 *  0.0000     2          
   224  Na    c      2.2539 *     5.5446 *    10.2327 *  0.0000     2          
   225  Na    c      4.5078 *     7.7985 *    -7.7985 *  0.0000     2          
   226  Cl    c      6.7617 *    -5.7249 *     7.9788 *  0.0000     2          
   227  Na    c      6.7617 *    -7.9788 *     5.7249 *  0.0000     2          
   228  Na    c      9.0156 *     5.5446 *    -5.5446 *  0.0000     2          
   229  O     c      9.0156 *     1.0368 *    -7.7985 *  0.0000     2          
   230  Na    c      9.0156 *    -1.2171 *    -7.7985 *  0.0000     2          
   231  Na    c      9.0156 *     7.7985 *     1.2171 *  0.0000     2          
   232  O     c      4.5078 *    -7.9788 *    -7.7985 *  0.0000     2          
   233  O     c      9.0156 *     5.5446 *     5.7249 *  0.0000     2          
   234  Na    c      9.0156 *     1.0368 *     7.9788 *  0.0000     2          
   235  Na    c      9.0156 *    -7.9788 *    -1.0368 *  0.0000     2          
   236  O     c      9.0156 *    -7.9788 *     1.2171 *  0.0000     2          
   237  Na    c      9.0156 *    -5.7249 *     5.7249 *  0.0000     2          
   238  Na    c      4.5078 *    -7.9788 *     7.9788 *  0.0000     2          
   239  Cl    c      6.7617 *    -1.2171 *   -10.0524 *  0.0000     2          
   240  Na    c      6.7617 *    10.0524 *     1.2171 *  0.0000     2          
   241  Cl    c     11.2695 *     3.2907 *     3.4710 *  0.0000     2          
   242  Na    c     11.2695 *    -3.4710 *    -3.2907 *  0.0000     2          
   243  Cl    c      6.7617 *   -10.2327 *    -1.0368 *  0.0000     2          
   244  Na    c      6.7617 *     1.0368 *    10.2327 *  0.0000     2          
   245  Na    c      4.5078 *     5.5446 *   -10.0524 *  0.0000     2          
   246  Na    c      4.5078 *    10.0524 *    -5.5446 *  0.0000     2          
   247  O     c      0.0000       1.0368 *   -12.3063 *  0.0000     1          
   248  Na    c      0.0000      -1.2171 *   -12.3063 *  0.0000     1          
   249  Na    c      9.0156 *     3.2907 *    -7.7985 *  0.0000     2          
   250  Na    c      9.0156 *     7.7985 *    -3.2907 *  0.0000     2          
   251  Na    c      0.0000      12.3063 *     1.2171 *  0.0000     1          
   252  O     c     -4.5078 *    10.0524 *     5.7249 *  0.0000     2          
   253  O     c      9.0156 *    -3.4710 *    -7.7985 *  0.0000     2          
   254  O     c      4.5078 *     5.5446 *    10.2327 *  0.0000     2          
   255  O     c      9.0156 *    -7.9788 *    -3.2907 *  0.0000     2          
   256  Na    c      0.0000       1.0368 *    12.4866 *  0.0000     1          
   257  Na    c      0.0000     -12.4866 *    -1.0368 *  0.0000     1          
   258  Na    c      9.0156 *    -3.4710 *     7.9788 *  0.0000     2          
   259  Na    c      9.0156 *    -7.9788 *     3.4710 *  0.0000     2          
   260  O     c      0.0000     -12.4866 *     1.2171 *  0.0000     1          
   261  Na    c      2.2539 *     1.0368 *   -12.3063 *  0.0000     2          
   262  Cl    c      2.2539 *    12.3063 *    -1.0368 *  0.0000     2          
   263  Cl    c      6.7617 *     3.2907 *   -10.0524 *  0.0000     2          
   264  Na    c      6.7617 *    10.0524 *    -3.2907 *  0.0000     2          
   265  Na    c      4.5078 *    -5.7249 *    10.2327 *  0.0000     2          
   266  Na    c      4.5078 *   -10.2327 *     5.7249 *  0.0000     2          
   267  Cl    c     11.2695 *    -1.2171 *    -5.5446 *  0.0000     2          
   268  Na    c     11.2695 *     5.5446 *     1.2171 *  0.0000     2          
   269  Cl    c     11.2695 *    -5.7249 *    -1.0368 *  0.0000     2          
   270  Na    c     11.2695 *     1.0368 *     5.7249 *  0.0000     2          
   271  O     c      0.0000      10.0524 *    -7.7985 *  0.0000     1          
   272  Na    c      0.0000       3.2907 *   -12.3063 *  0.0000     1          
   273  Na    c      0.0000      12.3063 *    -3.2907 *  0.0000     1          
   274  Cl    c      2.2539 *    -1.2171 *    12.4866 *  0.0000     2          
   275  Na    c      2.2539 *   -12.4866 *     1.2171 *  0.0000     2          
   276  Na    c      6.7617 *    -3.4710 *    10.2327 *  0.0000     2          
   277  Cl    c      6.7617 *   -10.2327 *     3.4710 *  0.0000     2          
   278  O     c      0.0000      -3.4710 *   -12.3063 *  0.0000     1          
   279  Na    c      0.0000      10.0524 *     7.9788 *  0.0000     1          
   280  Na    c      0.0000      -7.9788 *   -10.0524 *  0.0000     1          
   281  Na    c      0.0000       7.7985 *    10.2327 *  0.0000     1          
   282  Na    c      0.0000     -10.2327 *    -7.7985 *  0.0000     1          
   283  O     c      0.0000     -12.4866 *    -3.2907 *  0.0000     1          
   284  Cl    c      2.2539 *     7.7985 *   -10.0524 *  0.0000     2          
   285  Na    c      2.2539 *    10.0524 *    -7.7985 *  0.0000     2          
   286  Na    c      0.0000      -3.4710 *    12.4866 *  0.0000     1          
   287  Na    c      0.0000     -12.4866 *     3.4710 *  0.0000     1          
   288  O     c      0.0000      -7.9788 *    10.2327 *  0.0000     1          
   289  Cl    c     11.2695 *     3.2907 *    -5.5446 *  0.0000     2          
   290  Na    c     11.2695 *     5.5446 *    -3.2907 *  0.0000     2          
   291  Na    c      2.2539 *    -3.4710 *   -12.3063 *  0.0000     2          
   292  Cl    c      2.2539 *    12.3063 *     3.4710 *  0.0000     2          
   293  Cl    c      6.7617 *     7.7985 *     7.9788 *  0.0000     2          
   294  Na    c      6.7617 *    -7.9788 *    -7.7985 *  0.0000     2          
   295  Cl    c      2.2539 *     3.2907 *    12.4866 *  0.0000     2          
   296  Na    c      2.2539 *   -12.4866 *    -3.2907 *  0.0000     2          
   297  Cl    c     11.2695 *    -5.7249 *     3.4710 *  0.0000     2          
   298  Na    c     11.2695 *    -3.4710 *     5.7249 *  0.0000     2          
   299  O     c      9.0156 *     5.5446 *    -7.7985 *  0.0000     2          
   300  O     c     -4.5078 *     1.0368 *   -12.3063 *  0.0000     2          
   301  Na    c     -4.5078 *    -1.2171 *   -12.3063 *  0.0000     2          
   302  Na    c      4.5078 *    12.3063 *     1.2171 *  0.0000     2          
   303  Cl    c      2.2539 *   -10.2327 *     7.9788 *  0.0000     2          
   304  Na    c      2.2539 *    -7.9788 *    10.2327 *  0.0000     2          
   305  Na    c      9.0156 *     7.7985 *     5.7249 *  0.0000     2          
   306  Na    c      9.0156 *    -5.7249 *    -7.7985 *  0.0000     2          
   307  Na    c      9.0156 *     5.5446 *     7.9788 *  0.0000     2          
   308  Na    c      9.0156 *    -7.9788 *    -5.5446 *  0.0000     2          
   309  Na    c      4.5078 *   -12.4866 *    -1.0368 *  0.0000     2          
   310  Na    c     -4.5078 *     1.0368 *    12.4866 *  0.0000     2          
   311  O     c      4.5078 *   -12.4866 *     1.2171 *  0.0000     2          
   312  O     c      9.0156 *    -7.9788 *     5.7249 *  0.0000     2          
   313  Cl    c      6.7617 *    -5.7249 *   -10.0524 *  0.0000     2          
   314  Na    c      6.7617 *    10.0524 *     5.7249 *  0.0000     2          
   315  Cl    c      6.7617 *   -10.2327 *    -5.5446 *  0.0000     2          
   316  Na    c      6.7617 *     5.5446 *    10.2327 *  0.0000     2          
   317  O     c      0.0000       5.5446 *   -12.3063 *  0.0000     1          
   318  O     c      4.5078 *    10.0524 *    -7.7985 *  0.0000     2          
   319  Na    c      4.5078 *     3.2907 *   -12.3063 *  0.0000     2          
   320  Na    c      4.5078 *    12.3063 *    -3.2907 *  0.0000     2          
   321  Na    c      9.0156 *    10.0524 *    -1.0368 *  0.0000     2          
   322  Na    c      9.0156 *     1.0368 *   -10.0524 *  0.0000     2          
   323  O     c      4.5078 *    -3.4710 *   -12.3063 *  0.0000     2          
   324  O     c      9.0156 *    10.0524 *     1.2171 *  0.0000     2          
   325  Na    c      0.0000      -5.7249 *   -12.3063 *  0.0000     1          
   326  Na    c      0.0000      12.3063 *     5.7249 *  0.0000     1          
   327  Na    c      4.5078 *    10.0524 *     7.9788 *  0.0000     2          
   328  Na    c      4.5078 *    -7.9788 *   -10.0524 *  0.0000     2          
   329  Na    c     13.5234 *     1.0368 *    -1.0368 *  0.0000     2          
   330  O     c     13.5234 *     1.0368 *     1.2171 *  0.0000     2          
   331  Na    c      4.5078 *     7.7985 *    10.2327 *  0.0000     2          
   332  Na    c      4.5078 *   -10.2327 *    -7.7985 *  0.0000     2          
   333  Na    c     13.5234 *    -1.2171 *     1.2171 *  0.0000     2          
   334  Na    c      0.0000       5.5446 *    12.4866 *  0.0000     1          
   335  Na    c      0.0000     -12.4866 *    -5.5446 *  0.0000     1          
   336  O     c      4.5078 *   -12.4866 *    -3.2907 *  0.0000     2          
   337  O     c      9.0156 *     1.0368 *    10.2327 *  0.0000     2          
   338  Na    c      2.2539 *     5.5446 *   -12.3063 *  0.0000     2          
   339  Cl    c      2.2539 *    12.3063 *    -5.5446 *  0.0000     2          
   340  Na    c      9.0156 *    -1.2171 *    10.2327 *  0.0000     2          
   341  Na    c      9.0156 *   -10.2327 *     1.2171 *  0.0000     2          
   342  Na    c      4.5078 *    -3.4710 *    12.4866 *  0.0000     2          
   343  Na    c      4.5078 *   -12.4866 *     3.4710 *  0.0000     2          
   344  O     c      0.0000     -12.4866 *     5.7249 *  0.0000     1          
   345  O     c      4.5078 *    -7.9788 *    10.2327 *  0.0000     2          
   346  Cl    c     11.2695 *     7.7985 *    -1.0368 *  0.0000     2          
   347  Na    c     11.2695 *     1.0368 *    -7.7985 *  0.0000     2          
   348  Cl    c     11.2695 *    -5.7249 *    -5.5446 *  0.0000     2          
   349  Na    c     11.2695 *     5.5446 *     5.7249 *  0.0000     2          
   350  Cl    c     11.2695 *    -1.2171 *     7.9788 *  0.0000     2          
   351  Na    c     11.2695 *    -7.9788 *     1.2171 *  0.0000     2          
   352  O     c      9.0156 *    10.0524 *    -3.2907 *  0.0000     2          
   353  Cl    c      2.2539 *    -5.7249 *    12.4866 *  0.0000     2          
   354  Na    c      2.2539 *   -12.4866 *     5.7249 *  0.0000     2          
   355  Na    c      9.0156 *    10.0524 *     3.4710 *  0.0000     2          
   356  Na    c      9.0156 *    -3.4710 *   -10.0524 *  0.0000     2          
   357  O     c     13.5234 *     1.0368 *    -3.2907 *  0.0000     2          
   358  Na    c     13.5234 *    -1.2171 *    -3.2907 *  0.0000     2          
   359  Na    c     13.5234 *     3.2907 *     1.2171 *  0.0000     2          
   360  Na    c     13.5234 *     1.0368 *     3.4710 *  0.0000     2          
   361  Na    c     13.5234 *    -3.4710 *    -1.0368 *  0.0000     2          
   362  O     c     13.5234 *    -3.4710 *     1.2171 *  0.0000     2          
   363  Na    c      9.0156 *     3.2907 *    10.2327 *  0.0000     2          
   364  Na    c      9.0156 *   -10.2327 *    -3.2907 *  0.0000     2          
   365  O     c      9.0156 *    -3.4710 *    10.2327 *  0.0000     2          
   366  Na    c      6.7617 *     1.0368 *   -12.3063 *  0.0000     2          
   367  Cl    c      6.7617 *    12.3063 *    -1.0368 *  0.0000     2          
   368  Cl    c     11.2695 *     7.7985 *     3.4710 *  0.0000     2          
   369  Na    c     11.2695 *    -3.4710 *    -7.7985 *  0.0000     2          
   370  Cl    c     11.2695 *     3.2907 *     7.9788 *  0.0000     2          
   371  Na    c     11.2695 *    -7.9788 *    -3.2907 *  0.0000     2          
   372  Na    c      0.0000      10.0524 *   -10.0524 *  0.0000     1          
   373  O     c     -4.5078 *     5.5446 *   -12.3063 *  0.0000     2          
   374  Na    c      9.0156 *     7.7985 *    -7.7985 *  0.0000     2          
   375  Na    c      6.7617 *   -12.4866 *     1.2171 *  0.0000     2          
   376  Cl    c      6.7617 *    -1.2171 *    12.4866 *  0.0000     2          
   377  Na    c      4.5078 *    -5.7249 *   -12.3063 *  0.0000     2          
   378  Na    c      4.5078 *    12.3063 *     5.7249 *  0.0000     2          
   379  Na    c     13.5234 *     3.2907 *    -3.2907 *  0.0000     2          
   380  O     c      9.0156 *    -7.9788 *    -7.7985 *  0.0000     2          
   381  O     c      0.0000      10.0524 *    10.2327 *  0.0000     1          
   382  O     c     13.5234 *    -3.4710 *    -3.2907 *  0.0000     2          
   383  Na    c      4.5078 *   -12.4866 *    -5.5446 *  0.0000     2          
   384  Na    c     -4.5078 *     5.5446 *    12.4866 *  0.0000     2          
   385  Na    c     13.5234 *    -3.4710 *     3.4710 *  0.0000     2          
   386  Cl    c      6.7617 *     7.7985 *   -10.0524 *  0.0000     2          
   387  Na    c      6.7617 *    10.0524 *    -7.7985 *  0.0000     2          
   388  Na    c      9.0156 *    -7.9788 *     7.9788 *  0.0000     2          
   389  O     c      4.5078 *   -12.4866 *     5.7249 *  0.0000     2          
   390  Na    c      6.7617 *    -3.4710 *   -12.3063 *  0.0000     2          
   391  Cl    c      6.7617 *    12.3063 *     3.4710 *  0.0000     2          
   392  Na    c      0.0000     -10.2327 *    10.2327 *  0.0000     1          
   393  Cl    c      2.2539 *   -10.2327 *   -10.0524 *  0.0000     2          
   394  Na    c      2.2539 *    10.0524 *    10.2327 *  0.0000     2          
   395  Na    c      0.0000       7.7985 *   -12.3063 *  0.0000     1          
   396  Na    c      0.0000      12.3063 *    -7.7985 *  0.0000     1          
   397  Cl    c      6.7617 *     3.2907 *    12.4866 *  0.0000     2          
   398  Na    c      6.7617 *   -12.4866 *    -3.2907 *  0.0000     2          
   399  Na    c      0.0000       1.0368 *   -14.5602 *  0.0000     1          
   400  Na    c      0.0000      14.5602 *    -1.0368 *  0.0000     1          
   401  Na    c      9.0156 *     5.5446 *   -10.0524 *  0.0000     2          
   402  Na    c      9.0156 *    10.0524 *    -5.5446 *  0.0000     2          
   403  O     c      0.0000      14.5602 *     1.2171 *  0.0000     1          
   404  Cl    c      6.7617 *   -10.2327 *     7.9788 *  0.0000     2          
   405  Na    c      6.7617 *    -7.9788 *    10.2327 *  0.0000     2          
   406  Na    c     13.5234 *     1.0368 *    -5.5446 *  0.0000     2          
   407  Na    c     13.5234 *     5.5446 *    -1.0368 *  0.0000     2          
   408  O     c      0.0000      -7.9788 *   -12.3063 *  0.0000     1          
   409  O     c      9.0156 *    10.0524 *     5.7249 *  0.0000     2          
   410  O     c     13.5234 *     5.5446 *     1.2171 *  0.0000     2          
   411  O     c      0.0000     -12.4866 *    -7.7985 *  0.0000     1          
   412  O     c      9.0156 *     5.5446 *    10.2327 *  0.0000     2          
   413  O     c     13.5234 *     1.0368 *     5.7249 *  0.0000     2          
   414  Na    c     13.5234 *    -1.2171 *     5.7249 *  0.0000     2          
   415  Na    c     13.5234 *    -5.7249 *     1.2171 *  0.0000     2          
   416  O     c      0.0000       1.0368 *    14.7405 *  0.0000     1          
   417  Cl    c     11.2695 *     7.7985 *    -5.5446 *  0.0000     2          
   418  Cl    c      2.2539 *    -1.2171 *   -14.5602 *  0.0000     2          
   419  Na    c      2.2539 *    14.5602 *     1.2171 *  0.0000     2          
   420  Na    c     11.2695 *     5.5446 *    -7.7985 *  0.0000     2          
   421  Na    c      0.0000      -1.2171 *    14.7405 *  0.0000     1          
   422  Na    c      0.0000     -14.7405 *     1.2171 *  0.0000     1          
   423  Na    c      9.0156 *    -5.7249 *    10.2327 *  0.0000     2          
   424  Na    c      9.0156 *   -10.2327 *     5.7249 *  0.0000     2          
   425  Na    c      0.0000      -7.9788 *    12.4866 *  0.0000     1          
   426  Na    c      0.0000     -12.4866 *     7.9788 *  0.0000     1          
   427  Na    c      2.2539 *    -7.9788 *   -12.3063 *  0.0000     2          
   428  Cl    c      2.2539 *    12.3063 *     7.9788 *  0.0000     2          
   429  Cl    c      2.2539 *     7.7985 *    12.4866 *  0.0000     2          
   430  Na    c      2.2539 *   -12.4866 *    -7.7985 *  0.0000     2          
   431  Na    c     -4.5078 *    10.0524 *   -10.0524 *  0.0000     2          
   432  O     c      0.0000      14.5602 *    -3.2907 *  0.0000     1          
   433  Cl    c      2.2539 *   -14.7405 *    -1.0368 *  0.0000     2          
   434  Cl    c     11.2695 *    -5.7249 *     7.9788 *  0.0000     2          
   435  Na    c      2.2539 *     1.0368 *    14.7405 *  0.0000     2          
   436  Na    c     11.2695 *    -7.9788 *     5.7249 *  0.0000     2          
   437  Na    c      0.0000      14.5602 *     3.4710 *  0.0000     1          
   438  Na    c      0.0000      -3.4710 *   -14.5602 *  0.0000     1          
   439  O     c     13.5234 *     5.5446 *    -3.2907 *  0.0000     2          
   440  Na    c     13.5234 *     5.5446 *     3.4710 *  0.0000     2          
   441  Na    c     13.5234 *    -3.4710 *    -5.5446 *  0.0000     2          
   442  O     c      4.5078 *    10.0524 *    10.2327 *  0.0000     2          
   443  Na    c     13.5234 *     3.2907 *     5.7249 *  0.0000     2          
   444  Na    c     13.5234 *    -5.7249 *    -3.2907 *  0.0000     2          
   445  O     c     13.5234 *    -3.4710 *     5.7249 *  0.0000     2          
   446  Cl    c      2.2539 *     3.2907 *   -14.5602 *  0.0000     2          
   447  Na    c      2.2539 *    14.5602 *    -3.2907 *  0.0000     2          
   448  Na    c      6.7617 *     5.5446 *   -12.3063 *  0.0000     2          
   449  Cl    c      6.7617 *    12.3063 *    -5.5446 *  0.0000     2          
   450  Na    c      0.0000       3.2907 *    14.7405 *  0.0000     1          
   451  Na    c      0.0000     -14.7405 *    -3.2907 *  0.0000     1          
   452  O     c      0.0000      -3.4710 *    14.7405 *  0.0000     1          
   453  Cl    c     11.2695 *    -1.2171 *   -10.0524 *  0.0000     2          
   454  Na    c     11.2695 *    10.0524 *     1.2171 *  0.0000     2          
   455  Na    c      4.5078 *   -10.2327 *    10.2327 *  0.0000     2          
   456  Na    c     -4.5078 *     7.7985 *   -12.3063 *  0.0000     2          
   457  Na    c      4.5078 *    12.3063 *    -7.7985 *  0.0000     2          
   458  Cl    c     11.2695 *   -10.2327 *    -1.0368 *  0.0000     2          
   459  Na    c     11.2695 *     1.0368 *    10.2327 *  0.0000     2          
   460  Na    c      4.5078 *    14.5602 *    -1.0368 *  0.0000     2          
   461  Na    c      4.5078 *     1.0368 *   -14.5602 *  0.0000     2          
   462  O     c      4.5078 *    14.5602 *     1.2171 *  0.0000     2          
   463  O     c      9.0156 *     1.0368 *   -12.3063 *  0.0000     2          
   464  Na    c      9.0156 *    -1.2171 *   -12.3063 *  0.0000     2          
   465  Na    c      9.0156 *    12.3063 *     1.2171 *  0.0000     2          
   466  Cl    c      6.7617 *    -5.7249 *    12.4866 *  0.0000     2          
   467  Na    c      6.7617 *   -12.4866 *     5.7249 *  0.0000     2          
   468  Cl    c      2.2539 *   -14.7405 *     3.4710 *  0.0000     2          
   469  Na    c      2.2539 *    -3.4710 *    14.7405 *  0.0000     2          
   470  O     c      4.5078 *    -7.9788 *   -12.3063 *  0.0000     2          
   471  O     c      4.5078 *   -12.4866 *    -7.7985 *  0.0000     2          
   472  Na    c      9.0156 *     1.0368 *    12.4866 *  0.0000     2          
   473  Na    c      9.0156 *   -12.4866 *    -1.0368 *  0.0000     2          
   474  O     c      9.0156 *   -12.4866 *     1.2171 *  0.0000     2          
   475  O     c     -4.5078 *     1.0368 *    14.7405 *  0.0000     2          
   476  Na    c     11.2695 *    10.0524 *    -3.2907 *  0.0000     2          
   477  Cl    c     11.2695 *     3.2907 *   -10.0524 *  0.0000     2          
   478  Na    c      4.5078 *   -14.7405 *     1.2171 *  0.0000     2          
   479  Na    c     -4.5078 *    -1.2171 *    14.7405 *  0.0000     2          
   480  Na    c      4.5078 *   -12.4866 *     7.9788 *  0.0000     2          
   481  Na    c      4.5078 *    -7.9788 *    12.4866 *  0.0000     2          
   482  Na    c      0.0000       5.5446 *   -14.5602 *  0.0000     1          
   483  Na    c      0.0000      14.5602 *    -5.5446 *  0.0000     1          
   484  O     c      4.5078 *    14.5602 *    -3.2907 *  0.0000     2          
   485  O     c      9.0156 *    10.0524 *    -7.7985 *  0.0000     2          
   486  Na    c      9.0156 *     3.2907 *   -12.3063 *  0.0000     2          
   487  Na    c      9.0156 *    12.3063 *    -3.2907 *  0.0000     2          
   488  Cl    c     11.2695 *   -10.2327 *     3.4710 *  0.0000     2          
   489  Na    c     11.2695 *    -3.4710 *    10.2327 *  0.0000     2          
   490  Na    c      4.5078 *    14.5602 *     3.4710 *  0.0000     2          
   491  Na    c      4.5078 *    -3.4710 *   -14.5602 *  0.0000     2          
   492  Na    c     13.5234 *     5.5446 *    -5.5446 *  0.0000     2          
   493  O     c      0.0000      14.5602 *     5.7249 *  0.0000     1          
   494  O     c      9.0156 *    -3.4710 *   -12.3063 *  0.0000     2          
   495  O     c     13.5234 *     1.0368 *    -7.7985 *  0.0000     2          
   496  Na    c     13.5234 *    -1.2171 *    -7.7985 *  0.0000     2          
   497  Na    c     13.5234 *     7.7985 *     1.2171 *  0.0000     2          
   498  Na    c      9.0156 *    10.0524 *     7.9788 *  0.0000     2          
   499  Na    c      9.0156 *    -7.9788 *   -10.0524 *  0.0000     2          
   500  O     c     13.5234 *     5.5446 *     5.7249 *  0.0000     2          
   501  Na    c      9.0156 *     7.7985 *    10.2327 *  0.0000     2          
   502  Na    c      9.0156 *   -10.2327 *    -7.7985 *  0.0000     2          
   503  Na    c     13.5234 *     1.0368 *     7.9788 *  0.0000     2          
   504  Na    c     13.5234 *    -7.9788 *    -1.0368 *  0.0000     2          
   505  O     c      0.0000       5.5446 *    14.7405 *  0.0000     1          
   506  O     c      9.0156 *   -12.4866 *    -3.2907 *  0.0000     2          
   507  O     c     13.5234 *    -7.9788 *     1.2171 *  0.0000     2          
   508  Na    c      4.5078 *     3.2907 *    14.7405 *  0.0000     2          
   509  Na    c      4.5078 *   -14.7405 *    -3.2907 *  0.0000     2          
   510  Na    c     13.5234 *    -5.7249 *     5.7249 *  0.0000     2          
   511  Na    c      9.0156 *    -3.4710 *    12.4866 *  0.0000     2          
   512  Na    c      9.0156 *   -12.4866 *     3.4710 *  0.0000     2          
   513  O     c      4.5078 *    -3.4710 *    14.7405 *  0.0000     2          
   514  O     c      9.0156 *    -7.9788 *    10.2327 *  0.0000     2          
   515  Cl    c      2.2539 *    -5.7249 *   -14.5602 *  0.0000     2          
   516  Na    c      2.2539 *    14.5602 *     5.7249 *  0.0000     2          
   517  Na    c      0.0000      -5.7249 *    14.7405 *  0.0000     1          
   518  Na    c      0.0000     -14.7405 *     5.7249 *  0.0000     1          
   519  Cl    c     11.2695 *     7.7985 *     7.9788 *  0.0000     2          
   520  Cl    c    -15.7773 *    -1.2171 *    -1.0368 *  0.0000     2          
   521  Na    c    -15.7773 *     1.0368 *     1.2171 *  0.0000     2          
   522  Na    c     11.2695 *    -7.9788 *    -7.7985 *  0.0000     2          
   523  Na    c      6.7617 *    10.0524 *    10.2327 *  0.0000     2          
   524  Cl    c      6.7617 *   -10.2327 *   -10.0524 *  0.0000     2          
   525  O     c      0.0000      10.0524 *   -12.3063 *  0.0000     1          
   526  Cl    c      2.2539 *   -14.7405 *    -5.5446 *  0.0000     2          
   527  Na    c      2.2539 *     5.5446 *    14.7405 *  0.0000     2          
   528  Na    c     13.5234 *     3.2907 *    -7.7985 *  0.0000     2          
   529  Na    c     13.5234 *     7.7985 *    -3.2907 *  0.0000     2          
   530  O     c     13.5234 *    -3.4710 *    -7.7985 *  0.0000     2          
   531  O     s      0.0000       1.0368 *     1.2171 *  0.0000     1          
   532  Cl    s      2.2539 *    -1.2171 *    -1.0368 *  0.0000     2          
   533  O     s      0.0000       1.0368 *    -3.2907 *  0.0000     1          
   534  O     s      0.0000      -3.4710 *     1.2171 *  0.0000     1          
   535  Cl    s      2.2539 *     3.2907 *    -1.0368 *  0.0000     2          
   536  Cl    s      2.2539 *    -1.2171 *     3.4710 *  0.0000     2          
   537  O     s     -4.5078 *     1.0368 *     1.2171 *  0.0000     2          
   538  O     s      0.0000      -3.4710 *    -3.2907 *  0.0000     1          
   539  Cl    s      2.2539 *     3.2907 *     3.4710 *  0.0000     2          
   540  O     s      0.0000       5.5446 *     1.2171 *  0.0000     1          
   541  O     s     -4.5078 *     1.0368 *    -3.2907 *  0.0000     2          
   542  O     s      0.0000       1.0368 *     5.7249 *  0.0000     1          
   543  O     s     -4.5078 *    -3.4710 *     1.2171 *  0.0000     2          
   544  Cl    s      2.2539 *    -1.2171 *    -5.5446 *  0.0000     2          
   545  Cl    s      2.2539 *    -5.7249 *    -1.0368 *  0.0000     2          
   546  O     s      0.0000       5.5446 *    -3.2907 *  0.0000     1          
   547  O     s     -4.5078 *    -3.4710 *    -3.2907 *  0.0000     2          
   548  O     s      0.0000      -3.4710 *     5.7249 *  0.0000     1          
   549  Cl    s      2.2539 *     3.2907 *    -5.5446 *  0.0000     2          
   550  Cl    s      6.7617 *    -1.2171 *    -1.0368 *  0.0000     2          
   551  Cl    s      2.2539 *    -5.7249 *     3.4710 *  0.0000     2          
   552  O     s     -4.5078 *     5.5446 *     1.2171 *  0.0000     2          
   553  O     s     -4.5078 *     1.0368 *     5.7249 *  0.0000     2          
   554  Cl    s      6.7617 *     3.2907 *    -1.0368 *  0.0000     2          
   555  Cl    s      6.7617 *    -1.2171 *     3.4710 *  0.0000     2          
   556  O     s     -4.5078 *     5.5446 *    -3.2907 *  0.0000     2          
   557  O     s      0.0000       1.0368 *    -7.7985 *  0.0000     1          
   558  O     s      0.0000       5.5446 *     5.7249 *  0.0000     1          
   559  O     s      0.0000      -7.9788 *     1.2171 *  0.0000     1          
   560  O     s      4.5078 *    -3.4710 *     5.7249 *  0.0000     2          
   561  Cl    s      2.2539 *     7.7985 *    -1.0368 *  0.0000     2          
   562  Cl    s      2.2539 *    -5.7249 *    -5.5446 *  0.0000     2          
   563  Cl    s      6.7617 *     3.2907 *     3.4710 *  0.0000     2          
   564  Cl    s      2.2539 *    -1.2171 *     7.9788 *  0.0000     2          
   565  O     s      0.0000      -3.4710 *    -7.7985 *  0.0000     1          
   566  O     s      0.0000      -7.9788 *    -3.2907 *  0.0000     1          
   567  Cl    s      2.2539 *     7.7985 *     3.4710 *  0.0000     2          
   568  Cl    s      6.7617 *    -1.2171 *    -5.5446 *  0.0000     2          
   569  Cl    s      2.2539 *     3.2907 *     7.9788 *  0.0000     2          
   570  Cl    s      6.7617 *    -5.7249 *    -1.0368 *  0.0000     2          
   571  O     s     -4.5078 *     1.0368 *    -7.7985 *  0.0000     2          
   572  O     s      4.5078 *     5.5446 *     5.7249 *  0.0000     2          
   573  O     s      9.0156 *     1.0368 *     1.2171 *  0.0000     2          
   574  O     s      4.5078 *    -7.9788 *     1.2171 *  0.0000     2          
   575  Cl    s      6.7617 *     3.2907 *    -5.5446 *  0.0000     2          
   576  Cl    s      6.7617 *    -5.7249 *     3.4710 *  0.0000     2          
   577  O     s      0.0000       5.5446 *    -7.7985 *  0.0000     1          
   578  O     s      4.5078 *    -3.4710 *    -7.7985 *  0.0000     2          
   579  O     s      9.0156 *     1.0368 *    -3.2907 *  0.0000     2          
   580  O     s      4.5078 *    -7.9788 *    -3.2907 *  0.0000     2          
   581  O     s      9.0156 *    -3.4710 *     1.2171 *  0.0000     2          
   582  O     s      0.0000      -7.9788 *     5.7249 *  0.0000     1          
   583  Cl    s      2.2539 *     7.7985 *    -5.5446 *  0.0000     2          
   584  Cl    s      2.2539 *    -5.7249 *     7.9788 *  0.0000     2          
   585  O     s      0.0000      10.0524 *     1.2171 *  0.0000     1          
   586  O     s      9.0156 *    -3.4710 *    -3.2907 *  0.0000     2          
   587  O     s      0.0000       1.0368 *    10.2327 *  0.0000     1          
   588  Cl    s      2.2539 *    -1.2171 *   -10.0524 *  0.0000     2          
   589  Cl    s      6.7617 *     7.7985 *    -1.0368 *  0.0000     2          
   590  Cl    s      6.7617 *    -5.7249 *    -5.5446 *  0.0000     2          
   591  Cl    s      6.7617 *    -1.2171 *     7.9788 *  0.0000     2          
   592  Cl    s      2.2539 *   -10.2327 *    -1.0368 *  0.0000     2          
   593  O     s      0.0000      10.0524 *    -3.2907 *  0.0000     1          
   594  O     s     -4.5078 *     5.5446 *    -7.7985 *  0.0000     2          
   595  O     s      9.0156 *     5.5446 *     1.2171 *  0.0000     2          
   596  O     s      9.0156 *     1.0368 *     5.7249 *  0.0000     2          
   597  O     s      4.5078 *    -7.9788 *     5.7249 *  0.0000     2          
   598  O     s      0.0000      -3.4710 *    10.2327 *  0.0000     1          
   599  Cl    s      2.2539 *     3.2907 *   -10.0524 *  0.0000     2          
   600  Cl    s      6.7617 *     7.7985 *     3.4710 *  0.0000     2          
   601  Cl    s      6.7617 *     3.2907 *     7.9788 *  0.0000     2          
   602  Cl    s      2.2539 *   -10.2327 *     3.4710 *  0.0000     2          
   603  O     s      9.0156 *     5.5446 *    -3.2907 *  0.0000     2          
   604  O     s     -4.5078 *    10.0524 *     1.2171 *  0.0000     2          
   605  O     s      0.0000      -7.9788 *    -7.7985 *  0.0000     1          
   606  O     s      9.0156 *    -3.4710 *     5.7249 *  0.0000     2          
   607  O     s     -4.5078 *     1.0368 *    10.2327 *  0.0000     2          
   608  Cl    s     11.2695 *    -1.2171 *    -1.0368 *  0.0000     2          
   609  Cl    s      2.2539 *     7.7985 *     7.9788 *  0.0000     2          
   610  O     s     -4.5078 *    10.0524 *    -3.2907 *  0.0000     2          
   611  O     s      0.0000      10.0524 *     5.7249 *  0.0000     1          
   612  O     s      0.0000       5.5446 *    10.2327 *  0.0000     1          
   613  O     s      4.5078 *    -3.4710 *    10.2327 *  0.0000     2          
   614  Cl    s      6.7617 *     7.7985 *    -5.5446 *  0.0000     2          
   615  Cl    s     11.2695 *     3.2907 *    -1.0368 *  0.0000     2          
   616  Cl    s      2.2539 *    -5.7249 *   -10.0524 *  0.0000     2          
   617  Cl    s     11.2695 *    -1.2171 *     3.4710 *  0.0000     2          
   618  Cl    s      2.2539 *   -10.2327 *    -5.5446 *  0.0000     2          
   619  Cl    s      6.7617 *    -5.7249 *     7.9788 *  0.0000     2          
   620  O     s      9.0156 *     1.0368 *    -7.7985 *  0.0000     2          
   621  O     s      4.5078 *    -7.9788 *    -7.7985 *  0.0000     2          
   622  O     s      9.0156 *     5.5446 *     5.7249 *  0.0000     2          
   623  O     s      9.0156 *    -7.9788 *     1.2171 *  0.0000     2          
   624  Cl    s      6.7617 *    -1.2171 *   -10.0524 *  0.0000     2          
   625  Cl    s     11.2695 *     3.2907 *     3.4710 *  0.0000     2          
   626  Cl    s      6.7617 *   -10.2327 *    -1.0368 *  0.0000     2          
   627  O     s      0.0000       1.0368 *   -12.3063 *  0.0000     1          
   628  O     s     -4.5078 *    10.0524 *     5.7249 *  0.0000     2          
   629  O     s      9.0156 *    -3.4710 *    -7.7985 *  0.0000     2          
   630  O     s      4.5078 *     5.5446 *    10.2327 *  0.0000     2          
   631  O     s      9.0156 *    -7.9788 *    -3.2907 *  0.0000     2          
   632  O     s      0.0000     -12.4866 *     1.2171 *  0.0000     1          
   633  Cl    s      2.2539 *    12.3063 *    -1.0368 *  0.0000     2          
   634  Cl    s      6.7617 *     3.2907 *   -10.0524 *  0.0000     2          
   635  Cl    s     11.2695 *    -1.2171 *    -5.5446 *  0.0000     2          
   636  Cl    s     11.2695 *    -5.7249 *    -1.0368 *  0.0000     2          
   637  O     s      0.0000      10.0524 *    -7.7985 *  0.0000     1          
   638  Cl    s      2.2539 *    -1.2171 *    12.4866 *  0.0000     2          
   639  Cl    s      6.7617 *   -10.2327 *     3.4710 *  0.0000     2          
   640  O     s      0.0000      -3.4710 *   -12.3063 *  0.0000     1          
   641  O     s      0.0000     -12.4866 *    -3.2907 *  0.0000     1          
   642  Cl    s      2.2539 *     7.7985 *   -10.0524 *  0.0000     2          
   643  O     s      0.0000      -7.9788 *    10.2327 *  0.0000     1          
   644  Cl    s     11.2695 *     3.2907 *    -5.5446 *  0.0000     2          
   645  Cl    s      2.2539 *    12.3063 *     3.4710 *  0.0000     2          
   646  Cl    s      6.7617 *     7.7985 *     7.9788 *  0.0000     2          
   647  Cl    s      2.2539 *     3.2907 *    12.4866 *  0.0000     2          
   648  Cl    s     11.2695 *    -5.7249 *     3.4710 *  0.0000     2          
   649  O     s      9.0156 *     5.5446 *    -7.7985 *  0.0000     2          
[...]
    658 y         -2.253894     -2.253850     0.000043    Cartesian   -0.00
    658 z        -11.269468    -11.237218     0.032250    Cartesian   -0.29
    659 x         11.269468     11.271717     0.002249    Cartesian    0.02
    659 y         11.269468     11.249103    -0.020365    Cartesian   -0.18
    659 z          2.253894      2.243088    -0.010806    Cartesian   -0.48
    660 x         15.777255     15.773792    -0.003463    Cartesian   -0.02
    660 y          2.253894      2.241973    -0.011921    Cartesian   -0.53
    660 z          2.253894      2.248349    -0.005545    Cartesian   -0.25
    661 x          6.761681      6.766598     0.004917    Cartesian    0.07
    661 y        -11.269468    -11.246601     0.022868    Cartesian   -0.20
    661 z         -2.253894     -2.241727     0.012166    Cartesian   -0.54
    662 x         11.269468     11.278404     0.008936    Cartesian    0.08
    662 y          2.253894      2.256928     0.003034    Cartesian    0.13
    662 z         11.269468     11.247230    -0.022238    Cartesian   -0.20
    663 x          4.507787      4.550656     0.042869    Cartesian    0.95
    663 y         13.523362     13.560292     0.036930    Cartesian    0.27
    663 z         -4.507787     -4.519440    -0.011652    Cartesian    0.26
    664 x          2.253894      2.253894     0.000000    Cartesian    0.00
    664 y        -11.269468    -11.230387     0.039081    Cartesian   -0.35
    664 z          6.761681      6.768322     0.006641    Cartesian    0.10
    665 x          6.761681      6.768009     0.006328    Cartesian    0.09
    665 y         -6.761681     -6.737576     0.024105    Cartesian   -0.36
    665 z         11.269468     11.261855    -0.007613    Cartesian   -0.07
    666 x         13.523362     13.562926     0.039565    Cartesian    0.29
    666 y          9.015574      9.056558     0.040984    Cartesian    0.45
    666 z          0.000000     -0.026119    -0.026119    Cartesian    0.00
    667 x         13.523362     13.570426     0.047065    Cartesian    0.35
    667 y         -4.507787     -4.542133    -0.034346    Cartesian    0.76
    667 z         -4.507787     -4.499265     0.008523    Cartesian   -0.19
    668 x         13.523362     13.546685     0.023323    Cartesian    0.17
    668 y          0.000000      0.008418     0.008418    Cartesian    0.00
    668 z          9.015574      8.983449    -0.032125    Cartesian   -0.36
    669 x         11.269468     11.259126    -0.010342    Cartesian   -0.09
    669 y         11.269468     11.249799    -0.019670    Cartesian   -0.17
    669 z         -2.253894     -2.241042     0.012852    Cartesian   -0.57
    670 x          4.507787      4.502193    -0.005594    Cartesian   -0.12
    670 y         -4.507787     -4.515387    -0.007600    Cartesian    0.17
    670 z         13.523362     13.523885     0.000524    Cartesian    0.00
    671 x         15.777255     15.775444    -0.001811    Cartesian   -0.01
    671 y          2.253894      2.241437    -0.012456    Cartesian   -0.55
    671 z         -2.253894     -2.236485     0.017408    Cartesian   -0.77
    672 x         15.777255     15.774492    -0.002763    Cartesian   -0.02
    672 y         -2.253894     -2.246784     0.007110    Cartesian   -0.32
    672 z          2.253894      2.255162     0.001268    Cartesian    0.06
    673 x         11.269468     11.274127     0.004659    Cartesian    0.04
    673 y         -2.253894     -2.256236    -0.002342    Cartesian    0.10
    673 z         11.269468     11.242693    -0.026775    Cartesian   -0.24
    674 x          9.015574      9.028991     0.013417    Cartesian    0.15
    674 y         13.523362     13.570169     0.046807    Cartesian    0.35
    674 z          0.000000      0.013605     0.013605    Cartesian    0.00
    675 x         13.523362     13.551864     0.028502    Cartesian    0.21
    675 y          9.015574      9.030038     0.014464    Cartesian    0.16
    675 z          4.507787      4.518949     0.011162    Cartesian    0.25
    676 x         13.523362     13.569027     0.045665    Cartesian    0.34
    676 y          4.507787      4.511298     0.003510    Cartesian    0.08
    676 z          9.015574      9.029303     0.013729    Cartesian    0.15
    677 x         -2.253894     -2.254735    -0.000842    Cartesian    0.04
    677 y          6.761681      6.730622    -0.031059    Cartesian   -0.46
    677 z        -11.269468    -11.257091     0.012377    Cartesian   -0.11
    678 x          9.015574      9.044089     0.028515    Cartesian    0.32
    678 y          0.000000     -0.008709    -0.008709    Cartesian    0.00
    678 z         13.523362     13.573778     0.050416    Cartesian    0.37
    679 x         11.269468     11.260690    -0.008778    Cartesian   -0.08
    679 y         -6.761681     -6.746618     0.015063    Cartesian   -0.22
    679 z         -6.761681     -6.735110     0.026571    Cartesian   -0.39
    680 x          2.253894      2.253894     0.000000    Cartesian    0.00
    680 y         11.269468     11.255762    -0.013706    Cartesian   -0.12
    680 z         11.269468     11.263365    -0.006103    Cartesian   -0.05
    681 x         15.777255     15.777636     0.000381    Cartesian    0.00
    681 y         -2.253894     -2.228755     0.025139    Cartesian   -1.12
    681 z         -2.253894     -2.245310     0.008584    Cartesian   -0.38
    682 x          9.015574      9.044600     0.029026    Cartesian    0.32
    682 y          9.015574      9.050237     0.034663    Cartesian    0.38
    682 z         -9.015574     -9.063208    -0.047633    Cartesian    0.53
    683 x          6.761681      6.767208     0.005527    Cartesian    0.08
    683 y        -11.269468    -11.253111     0.016357    Cartesian   -0.15
    683 z          6.761681      6.768669     0.006988    Cartesian    0.10
    684 x          9.015574      9.027377     0.011803    Cartesian    0.13
    684 y         13.523362     13.590058     0.066696    Cartesian    0.49
    684 z          4.507787      4.516164     0.008377    Cartesian    0.19
    685 x          4.507787      4.500877    -0.006910    Cartesian   -0.15
    685 y         -9.015574     -9.025756    -0.010181    Cartesian    0.11
    685 z         -9.015574     -9.021877    -0.006302    Cartesian    0.07
    686 x          9.015574      9.065401     0.049827    Cartesian    0.55
    686 y          4.507787      4.511857     0.004070    Cartesian    0.09
    686 z         13.523362     13.576022     0.052661    Cartesian    0.39
    687 x          2.253894      2.253894     0.000000    Cartesian    0.00
    687 y         15.777255     15.778958     0.001703    Cartesian    0.01
    687 z          2.253894      2.233155    -0.020739    Cartesian   -0.92
    688 x          9.015574      9.033225     0.017651    Cartesian    0.20
    688 y         -9.015574     -9.062021    -0.046446    Cartesian    0.52
    688 z          9.015574      9.055156     0.039582    Cartesian    0.44
    689 x          2.253894      2.253894     0.000000    Cartesian    0.00
    689 y         -6.761681     -6.760669     0.001011    Cartesian   -0.01
    689 z        -11.269468    -11.253830     0.015638    Cartesian   -0.14
    690 x         11.269468     11.264566    -0.004902    Cartesian   -0.04
    690 y         11.269468     11.256937    -0.012531    Cartesian   -0.11
    690 z          6.761681      6.763850     0.002169    Cartesian    0.03
    691 x         15.777255     15.779874     0.002619    Cartesian    0.02
    691 y          6.761681      6.741725    -0.019956    Cartesian   -0.30
    691 z          2.253894      2.241520    -0.012374    Cartesian   -0.55
    692 x          2.253894      2.253894     0.000000    Cartesian    0.00
    692 y        -11.269468    -11.263665     0.005803    Cartesian   -0.05
    692 z         -6.761681     -6.749263     0.012418    Cartesian   -0.18
    693 x         11.269468     11.268240    -0.001228    Cartesian   -0.01
    693 y          6.761681      6.746083    -0.015598    Cartesian   -0.23
    693 z         11.269468     11.260204    -0.009264    Cartesian   -0.08
    694 x         15.777255     15.779521     0.002266    Cartesian    0.01
    694 y          2.253894      2.247321    -0.006573    Cartesian   -0.29
    694 z          6.761681      6.740680    -0.021001    Cartesian   -0.31
    695 x          2.253894      2.253894     0.000000    Cartesian    0.00
    695 y          2.253894      2.239416    -0.014477    Cartesian   -0.64
    695 z         15.777255     15.765863    -0.011393    Cartesian   -0.07
    696 x         13.523362     13.554029     0.030667    Cartesian    0.23
    696 y          9.015574      9.016044     0.000469    Cartesian    0.01
    696 z         -4.507787     -4.509132    -0.001345    Cartesian    0.03
    697 x          4.507787      4.552627     0.044840    Cartesian    0.99
    697 y          0.000000     -0.001446    -0.001446    Cartesian    0.00
    697 z        -13.523362    -13.557071    -0.033709    Cartesian    0.25
    698 x          4.507787      4.489693    -0.018094    Cartesian   -0.40
    698 y         13.523362     13.536191     0.012830    Cartesian    0.09
    698 z          9.015574      9.037035     0.021461    Cartesian    0.24
    699 x          4.507787      4.515358     0.007570    Cartesian    0.17
    699 y          9.015574      9.003204    -0.012371    Cartesian   -0.14
    699 z         13.523362     13.573829     0.050467    Cartesian    0.37
    700 x          2.253894      2.253894     0.000000    Cartesian    0.00
    700 y         15.777255     15.767643    -0.009612    Cartesian   -0.06
    700 z         -2.253894     -2.230749     0.023144    Cartesian   -1.03
    701 x          4.507787      4.518215     0.010428    Cartesian    0.23
    701 y        -13.523362    -13.478823     0.044538    Cartesian   -0.33
    701 z          0.000000     -0.005173    -0.005173    Cartesian    0.00
    702 x         13.523362     13.578529     0.055168    Cartesian    0.41
    702 y         -4.507787     -4.509521    -0.001734    Cartesian    0.04
    702 z          9.015574      9.030581     0.015007    Cartesian    0.17
    703 x         15.777255     15.779300     0.002044    Cartesian    0.01
    703 y          6.761681      6.756969    -0.004712    Cartesian   -0.07
    703 z         -2.253894     -2.240880     0.013014    Cartesian   -0.58
    704 x          6.761681      6.758917    -0.002764    Cartesian   -0.04
    704 y         11.269468     11.270508     0.001040    Cartesian    0.01
    704 z         11.269468     11.253973    -0.015495    Cartesian   -0.14
    705 x         15.777255     15.777992     0.000737    Cartesian    0.00
    705 y         -2.253894     -2.261273    -0.007379    Cartesian    0.33
    705 z          6.761681      6.744974    -0.016706    Cartesian   -0.25
    706 x          4.507787      4.485799    -0.021989    Cartesian   -0.49
    706 y          4.507787      4.519406     0.011619    Cartesian    0.26
    706 z        -13.523362    -13.563330    -0.039968    Cartesian    0.30
    707 x          9.015574      9.012375    -0.003199    Cartesian   -0.04
    707 y         13.523362     13.578160     0.054799    Cartesian    0.41
    707 z         -4.507787     -4.507994    -0.000207    Cartesian    0.00
    708 x          2.253894      2.253894     0.000000    Cartesian    0.00
    708 y         -2.253894     -2.235370     0.018524    Cartesian   -0.82
    708 z         15.777255     15.759103    -0.018152    Cartesian   -0.12
    709 x         13.523362     13.523331    -0.000031    Cartesian   -0.00
    709 y          0.000000     -0.003658    -0.003658    Cartesian    0.00
    709 z         -9.015574     -9.024941    -0.009367    Cartesian    0.10
    710 x         13.523362     13.563055     0.039693    Cartesian    0.29
    710 y         -9.015574     -9.014306     0.001268    Cartesian   -0.01
    710 z          0.000000     -0.019252    -0.019252    Cartesian    0.00
    711 x          6.761681      6.766624     0.004943    Cartesian    0.07
    711 y         15.777255     15.767536    -0.009719    Cartesian   -0.06
    711 z          2.253894      2.277381     0.023487    Cartesian    1.04
    712 x         11.269468     11.263816    -0.005652    Cartesian   -0.05
    712 y          2.253894      2.260735     0.006841    Cartesian    0.30
    712 z        -11.269468    -11.253134     0.016334    Cartesian   -0.14
    713 x          9.015574      9.051575     0.036001    Cartesian    0.40
    713 y         -4.507787     -4.530235    -0.022448    Cartesian    0.50
    713 z         13.523362     13.556593     0.033232    Cartesian    0.25
    714 x          4.507787      4.494583    -0.013204    Cartesian   -0.29
    714 y        -13.523362    -13.606901    -0.083540    Cartesian    0.62
    714 z          4.507787      4.492202    -0.015585    Cartesian   -0.35
    715 x          6.761681      6.765715     0.004034    Cartesian    0.06
    715 y         -6.761681     -6.742240     0.019440    Cartesian   -0.29
    715 z        -11.269468    -11.275054    -0.005586    Cartesian    0.05
    716 x          6.761681      6.759637    -0.002044    Cartesian   -0.03
    716 y        -11.269468    -11.245792     0.023676    Cartesian   -0.21
    716 z         -6.761681     -6.772671    -0.010990    Cartesian    0.16
    717 x         11.269468     11.275135     0.005667    Cartesian    0.05
    717 y        -11.269468    -11.248643     0.020825    Cartesian   -0.18
    717 z          2.253894      2.240707    -0.013187    Cartesian   -0.59
    718 x         -2.253894     -2.254893    -0.000999    Cartesian    0.04
    718 y          2.253894      2.236412    -0.017482    Cartesian   -0.78
    718 z         15.777255     15.771452    -0.005803    Cartesian   -0.04
    719 x         13.523362     13.559903     0.036541    Cartesian    0.27
    719 y          4.507787      4.507079    -0.000708    Cartesian   -0.02
    719 z         -9.015574     -9.011648     0.003927    Cartesian   -0.04
    720 x          6.761681      6.762755     0.001074    Cartesian    0.02
    720 y         15.777255     15.759122    -0.018133    Cartesian   -0.11
    720 z         -2.253894     -2.263454    -0.009560    Cartesian    0.42
    721 x         11.269468     11.270634     0.001166    Cartesian    0.01
    721 y         11.269468     11.256299    -0.013169    Cartesian   -0.12
    721 z         -6.761681     -6.756506     0.005175    Cartesian   -0.08
    722 x         13.523362     13.575872     0.052510    Cartesian    0.39
    722 y         -9.015574     -9.001731     0.013843    Cartesian   -0.15
    722 z          4.507787      4.515021     0.007234    Cartesian    0.16
    723 x          2.253894      2.253894     0.000000    Cartesian    0.00
    723 y         15.777255     15.768463    -0.008792    Cartesian   -0.06
    723 z          6.761681      6.765831     0.004150    Cartesian    0.06
    724 x         11.269468     11.274824     0.005356    Cartesian    0.05
    724 y         -2.253894     -2.258173    -0.004280    Cartesian    0.19
    724 z        -11.269468    -11.250313     0.019155    Cartesian   -0.17
    725 x         15.777255     15.770407    -0.006848    Cartesian   -0.04
    725 y          2.253894      2.262082     0.008188    Cartesian    0.36
    725 z         -6.761681     -6.751889     0.009791    Cartesian   -0.14
    726 x         15.777255     15.778712     0.001457    Cartesian    0.01
    726 y          6.761681      6.748870    -0.012811    Cartesian   -0.19
    726 z          6.761681      6.764733     0.003052    Cartesian    0.05
    727 x          2.253894      2.253894     0.000000    Cartesian    0.00
    727 y          6.761681      6.763066     0.001385    Cartesian    0.02
    727 z         15.777255     15.764389    -0.012866    Cartesian   -0.08
    728 x         11.269468     11.263918    -0.005550    Cartesian   -0.05
    728 y        -11.269468    -11.268504     0.000964    Cartesian   -0.01
    728 z         -2.253894     -2.243661     0.010232    Cartesian   -0.45
    729 x         15.777255     15.772189    -0.005066    Cartesian   -0.03
    729 y         -6.761681     -6.760380     0.001301    Cartesian   -0.02
    729 z          2.253894      2.242260    -0.011634    Cartesian   -0.52
    730 x          6.761681      6.758576    -0.003104    Cartesian   -0.05
    730 y         -2.253894     -2.246201     0.007693    Cartesian   -0.34
    730 z         15.777255     15.778270     0.001014    Cartesian    0.01
    731 x         11.269468     11.270221     0.000753    Cartesian    0.01
    731 y         -6.761681     -6.750781     0.010900    Cartesian   -0.16
    731 z         11.269468     11.265752    -0.003716    Cartesian   -0.03
    732 x          4.507787      4.520175     0.012388    Cartesian    0.27
    732 y         -4.507787     -4.511504    -0.003717    Cartesian    0.08
    732 z        -13.523362    -13.549832    -0.026470    Cartesian    0.20
    733 x         13.523362     13.557019     0.033658    Cartesian    0.25
    733 y          9.015574      9.002386    -0.013189    Cartesian   -0.15
    733 z          9.015574      9.028548     0.012973    Cartesian    0.14
    734 x        -13.523362    -13.591137    -0.067775    Cartesian    0.50
    734 y          0.000000     -0.002780    -0.002780    Cartesian    0.00
    734 z          0.000000      0.002814     0.002814    Cartesian    0.00
    735 x          9.015574      9.033976     0.018402    Cartesian    0.20
    735 y         -9.015574     -9.087494    -0.071920    Cartesian    0.80
    735 z         -9.015574     -9.011313     0.004261    Cartesian   -0.05
    736 x          2.253894      2.253894     0.000000    Cartesian    0.00
    736 y         11.269468     11.248594    -0.020874    Cartesian   -0.19
    736 z        -11.269468    -11.281574    -0.012106    Cartesian    0.11
    737 x          4.507787      4.500587    -0.007200    Cartesian   -0.16
    737 y        -13.523362    -13.585376    -0.062015    Cartesian    0.46
    737 z         -4.507787     -4.488003     0.019784    Cartesian   -0.44
    738 x         15.777255     15.779154     0.001899    Cartesian    0.01
    738 y         -2.253894     -2.254041    -0.000148    Cartesian    0.01
    738 z         -6.761681     -6.748368     0.013313    Cartesian   -0.20
--------------------------------------------------------------------------------


  Time to end of optimisation  =      813.8360 seconds


  Peak dynamic memory used =     519.67 MB 


  Timing analysis for GULP :

--------------------------------------------------------------------------------
  Task / Subroutine                                          Time (Seconds)
--------------------------------------------------------------------------------
  Calculation of reciprocal space energy and derivatives          0.0030
  Calculation of reciprocal space energy using symmetry           0.0043
  Calculation of real space energy and derivatives                0.0173
  Calculation of real space energy using symmetry                 0.0416
  Calculation for region 1 energy and derivatives (2-b)         461.8271
  Calculation for region 2a energy                              256.8838
  Calculation for region 2b energy                                0.0354
  Calculation and manipulation of Hessian matrix                  1.2039
  Calculation of matrix inversion                                91.0712
  Symmetry generation of equivalent positions                     0.0219
--------------------------------------------------------------------------------
  Total CPU time                                                813.8362
--------------------------------------------------------------------------------


  Dump file written as Na3OCl.grs


  Job Finished at 21:22.18 30th November   2020                               

