********************************************************************************
*                       GENERAL UTILITY LATTICE PROGRAM                        *
*                                 Julian Gale                                  *
*                       Curtin Institute for Computation                       *
*                    School of Molecular and Life Sciences                     *
*                    Curtin University, Western Australia                      *
********************************************************************************
* Version = 5.2.0 * Last modified =  10th September 2020                       *
********************************************************************************
*  optimise     - perform optimisation run                                     *
*  conp         - constant pressure calculation                                *
*  property     - calculate properties for final geometry                      *
*  defect       - perform defect calculation after bulk run                    *
*  compare      - compare initial and final structures                         *
********************************************************************************

  Job Started  at 21:37.23 30th November   2020                               

  Number of CPUs =     1


  Total number of configurations input =      1

********************************************************************************
*  Input for Configuration =   1                                               *
********************************************************************************

  Formula = ClONa3                                                      

  Number of irreducible atoms/shells =       5


  Total number atoms/shells =       7

  Dimensionality = 3               :  Bulk   


  Symmetry :

  Crystal family                   :  Cubic       
  Crystal class  (Groth - 1921)    :  Cubic Hexakisoctahedral              

  Space group (centrosymmetric)    :  P M 3 M         

  Patterson group                  :  P m -3 m 

  Cartesian lattice vectors (Angstroms) :

        4.504000    0.000000    0.000000
        0.000000    4.504000    0.000000
        0.000000    0.000000    4.504000

  Cell parameters (Angstroms/Degrees):

  a =       4.5040    alpha =  90.0000
  b =       4.5040    beta  =  90.0000
  c =       4.5040    gamma =  90.0000

  Initial cell volume =          91.368216 Angs**3

  Temperature of configuration =   0.00     K 

  Pressure of configuration =         0.000 GPa 

  Fractional coordinates of asymmetric unit :

--------------------------------------------------------------------------------
   No.  Atomic       x           y          z         Charge      Occupancy
        Label      (Frac)      (Frac)     (Frac)        (e)         (Frac)  
--------------------------------------------------------------------------------
      1 Cl    c    0.000000    0.000000    0.000000     1.48500    1.000000    
      2 O     c    0.500000    0.500000    0.500000     0.18300    1.000000    
      3 Na    c    0.500000    0.500000    0.000000     1.00000    1.000000    
      4 Cl    s    0.000000    0.000000    0.000000    -2.48500    1.000000    
      5 O     s    0.500000    0.500000    0.500000    -2.18300    1.000000    
--------------------------------------------------------------------------------


  Constraints : 

--------------------------------------------------------------------------------
  Constraint no.      Unconstrained     Constrained    Coefficient    Offset
                         Variable         Variable
--------------------------------------------------------------------------------
           1              Strain 1        Strain 2       1.00000      0.0000
           2              Strain 1        Strain 3       1.00000      0.0000
--------------------------------------------------------------------------------


********************************************************************************
*  General input information                                                   *
********************************************************************************

  Species output for all configurations : 

--------------------------------------------------------------------------------
  Species    Type    Atomic    Atomic    Charge       Radii (Angs)     Library
                     Number     Mass       (e)     Cova   Ionic  VDW   Symbol
--------------------------------------------------------------------------------
    Na       Core       11      22.99   1.000000   0.970  0.000  2.300          
    O        Core        8      16.00   0.183000   0.730  0.000  1.360          
    O        Shell       8       0.00  -2.183000   0.730  0.000  1.360          
    Cl       Core       17      35.45   1.485000   0.990  0.000  1.650          
    Cl       Shell      17       0.00  -2.485000   0.990  0.000  1.650          
    Mg       Core       12      24.31   0.415000   1.100  0.000  0.000          
    Mg       Shell      12       0.00   1.585000   1.100  0.000  0.000          
    Ca       Core       20      40.08  -1.135000   0.990  0.000  0.000          
    Ca       Shell      20       0.00   3.135000   0.990  0.000  0.000          
    Sr       Core       38      87.62  -1.251000   1.120  0.000  0.000          
    Sr       Shell      38       0.00   3.251000   1.120  0.000  0.000          
    Ba       Core       56     137.33  -7.203000   1.340  0.000  0.000          
    Ba       Shell      56       0.00   9.203000   1.340  0.000  0.000          
--------------------------------------------------------------------------------


  Lattice summation method               =    Ewald          (3-D)
                                         =    Parry          (2-D)
                                         =    Saunders et al (1-D)
  Accuracy factor for lattice sums       =   12.000


  Analytic derivatives to be used

  Time limit = Infinity

  Maximum range for interatomic potentials =    100000.000000 Angstroms

  General interatomic potentials :

--------------------------------------------------------------------------------
Atom  Types   Potential      Parameter       Value         Units   Cutoffs(Ang)
  1     2                                                            Min /  Max 
--------------------------------------------------------------------------------
O    c O    s Spring (c-s)  Spring k 2       593.71600    eV*Ang^-2 0.000  0.800
                            Spring k 4       0.0000000    eV*Ang^-4 
--------------------------------------------------------------------------------
Cl   c Cl   s Spring (c-s)  Spring k 2       29.380000    eV*Ang^-2 0.000  0.800
                            Spring k 4       0.0000000    eV*Ang^-4 
--------------------------------------------------------------------------------
Mg   c Mg   s Spring (c-s)  Spring k 2       361.60000    eV*Ang^-2 0.000  0.800
                            Spring k 4       0.0000000    eV*Ang^-4 
--------------------------------------------------------------------------------
Ca   c Ca   s Spring (c-s)  Spring k 2       110.20000    eV*Ang^-2 0.000  0.800
                            Spring k 4       0.0000000    eV*Ang^-4 
--------------------------------------------------------------------------------
Sr   c Sr   s Spring (c-s)  Spring k 2       71.700000    eV*Ang^-2 0.000  0.800
                            Spring k 4       0.0000000    eV*Ang^-4 
--------------------------------------------------------------------------------
Ba   c Ba   s Spring (c-s)  Spring k 2       495.20000    eV*Ang^-2 0.000  0.800
                            Spring k 4       0.0000000    eV*Ang^-4 
--------------------------------------------------------------------------------
Na   c Na   c Buckingham    Buckingham A     1788.1900    eV        0.000 12.000
                            Buckingham rho  0.15900000    Ang       
                            Buckingham C     0.0000000    eV*Ang^6  
--------------------------------------------------------------------------------
Na   c O    s Buckingham    Buckingham A     1226.8400    eV        0.000 12.000
                            Buckingham rho  0.30700000    Ang       
                            Buckingham C     0.0000000    eV*Ang^6  
--------------------------------------------------------------------------------
Na   c Cl   s Buckingham    Buckingham A     2314.7000    eV        0.000 12.000
                            Buckingham rho  0.29000000    Ang       
                            Buckingham C     0.0000000    eV*Ang^6  
--------------------------------------------------------------------------------
O    s O    s Buckingham    Buckingham A     22764.300    eV        0.000 12.000
                            Buckingham rho  0.14900000    Ang       
                            Buckingham C     13.190000    eV*Ang^6  
--------------------------------------------------------------------------------
O    s Cl   s Buckingham    Buckingham A     8286.9100    eV        0.000 12.000
                            Buckingham rho  0.25900000    Ang       
                            Buckingham C     62.200000    eV*Ang^6  
--------------------------------------------------------------------------------
Cl   s Cl   s Buckingham    Buckingham A     1227.2000    eV        0.000 12.000
                            Buckingham rho  0.32100000    Ang       
                            Buckingham C     14.530000    eV*Ang^6  
--------------------------------------------------------------------------------
O    s Mg   s Buckingham    Buckingham A     1428.5000    eV        0.000 12.000
                            Buckingham rho  0.29450000    Ang       
                            Buckingham C     0.0000000    eV*Ang^6  
--------------------------------------------------------------------------------
Mg   s Cl   s Buckingham    Buckingham A     4914.5400    eV        0.000 12.000
                            Buckingham rho  0.25700000    Ang       
                            Buckingham C     0.0000000    eV*Ang^6  
--------------------------------------------------------------------------------
O    s Ca   s Buckingham    Buckingham A     1090.4000    eV        0.000 12.000
                            Buckingham rho  0.34370000    Ang       
                            Buckingham C     0.0000000    eV*Ang^6  
--------------------------------------------------------------------------------
Cl   s Ca   s Buckingham    Buckingham A     2302.0000    eV        0.000 12.000
                            Buckingham rho  0.34020000    Ang       
                            Buckingham C     0.0000000    eV*Ang^6  
--------------------------------------------------------------------------------
O    s Sr   s Buckingham    Buckingham A     959.10000    eV        0.000 12.000
                            Buckingham rho  0.37210000    Ang       
                            Buckingham C     0.0000000    eV*Ang^6  
--------------------------------------------------------------------------------
Cl   s Sr   s Buckingham    Buckingham A     2191.0900    eV        0.000 12.000
                            Buckingham rho  0.34570000    Ang       
                            Buckingham C     0.0000000    eV*Ang^6  
--------------------------------------------------------------------------------
O    s Ba   s Buckingham    Buckingham A     905.70000    eV        0.000 12.000
                            Buckingham rho  0.39760000    Ang       
                            Buckingham C     0.0000000    eV*Ang^6  
--------------------------------------------------------------------------------
Cl   s Ba   s Buckingham    Buckingham A     2704.5500    eV        0.000 12.000
                            Buckingham rho  0.35280000    Ang       
                            Buckingham C     0.0000000    eV*Ang^6  
--------------------------------------------------------------------------------

********************************************************************************
*  Output for configuration   1                                                *
********************************************************************************


  Components of energy : 

--------------------------------------------------------------------------------
  Interatomic potentials     =           5.13022605 eV    
  Monopole - monopole (real) =         -10.03624526 eV    
  Monopole - monopole (recip)=         -29.53581274 eV    
  Monopole - monopole (total)=         -39.57205800 eV    
--------------------------------------------------------------------------------
  Total lattice energy       =         -34.44183194 eV    
--------------------------------------------------------------------------------
  Total lattice energy       =           -3323.1103 kJ/(mole unit cells)
--------------------------------------------------------------------------------


  Number of variables =        1

  Maximum number of calculations  =          1000
  Maximum Hessian update interval =            10
  Maximum step size               =   1.000000000
  Maximum parameter tolerance     =   0.000010000
  Maximum function  tolerance     =   0.000010000
  Maximum gradient  tolerance     =   0.001000000
  Maximum gradient  component     =   0.010000000

  Symmetry constrained optimisation

  Symmetry used for second derivatives

  Cell parameters to be optimised using strains

  Newton-Raphson optimiser to be used

  BFGS hessian update to be used

  Lower half triangular hessian to be used

  Start of bulk optimisation :

  Cycle:      0 Energy:       -34.441832  Gnorm:      0.196570  CPU:    0.018
  ** Hessian calculated **
  Cycle:      1 Energy:       -34.441914  Gnorm:      0.000103  CPU:    0.022


  **** Optimisation achieved ****


  Final energy =     -34.44191447 eV
  Final Gnorm  =       0.00000000

  Components of energy : 

--------------------------------------------------------------------------------
  Interatomic potentials     =           5.09689708 eV    
  Monopole - monopole (real) =         -10.02781331 eV    
  Monopole - monopole (recip)=         -29.51099824 eV    
  Monopole - monopole (total)=         -39.53881155 eV    
--------------------------------------------------------------------------------
  Total lattice energy       =         -34.44191447 eV    
--------------------------------------------------------------------------------
  Total lattice energy       =           -3323.1183 kJ/(mole unit cells)
--------------------------------------------------------------------------------

  Final asymmetric unit coordinates :

--------------------------------------------------------------------------------
   No.  Atomic        x           y           z         Radius
        Label       (Frac)      (Frac)      (Frac)       (Angs) 
--------------------------------------------------------------------------------
     1  Cl    c     0.000000    0.000000    0.000000    0.000000
     2  O     c     0.500000    0.500000    0.500000    0.000000
     3  Na    c     0.500000    0.500000    0.000000    0.000000
     4  Cl    s     0.000000    0.000000    0.000000    0.000000
     5  O     s     0.500000    0.500000    0.500000    0.000000
--------------------------------------------------------------------------------

  Final Cartesian lattice vectors (Angstroms) :

        4.507787    0.000000    0.000000
        0.000000    4.507787    0.000000
        0.000000    0.000000    4.507787


  Final cell parameters and derivatives :

--------------------------------------------------------------------------------
       a            4.507787 Angstrom     dE/de1(xx)     0.000000 eV/strain
       b            4.507787 Angstrom     dE/de2(yy)     0.000000 eV/strain
       c            4.507787 Angstrom     dE/de3(zz)     0.000000 eV/strain
       alpha       90.000000 Degrees      dE/de4(yz)     0.000000 eV/strain
       beta        90.000000 Degrees      dE/de5(xz)     0.000000 eV/strain
       gamma       90.000000 Degrees      dE/de6(xy)     0.000000 eV/strain
--------------------------------------------------------------------------------

  Primitive cell volume =            91.598892 Angs**3

  Density of cell =      2.183054 g/cm**3

  Non-primitive cell volume =            91.598892 Angs**3


  Final internal derivatives :

--------------------------------------------------------------------------------
   No.  Atomic          a             b             c           Radius
        Label          (eV)          (eV)          (eV)        (eV/Angs)
--------------------------------------------------------------------------------
      1 Cl    c       0.000000      0.000000      0.000000      0.000000
      2 O     c       0.000000      0.000000      0.000000      0.000000
      3 Na    c       0.000000      0.000000      0.000000      0.000000
      4 Cl    s       0.000000      0.000000      0.000000      0.000000
      5 O     s       0.000000      0.000000      0.000000      0.000000
--------------------------------------------------------------------------------
  Maximum abs         0.000000      0.000000      0.000000      0.000000
--------------------------------------------------------------------------------

  Comparison of initial and final structures : 

--------------------------------------------------------------------------------
  Parameter   Initial value   Final value   Difference    Units      Percent
--------------------------------------------------------------------------------
    Volume        91.368216     91.598892     0.230676    Angs**3      0.25
    a              4.504000      4.507787     0.003787    Angstroms    0.08
    b              4.504000      4.507787     0.003787    Angstroms    0.08
    c              4.504000      4.507787     0.003787    Angstroms    0.08
    alpha         90.000000     90.000000     0.000000    Degrees      0.00
    beta          90.000000     90.000000     0.000000    Degrees      0.00
    gamma         90.000000     90.000000     0.000000    Degrees      0.00
      1 x          0.000000      0.000000     0.000000    Fractional   0.00
      1 y          0.000000      0.000000     0.000000    Fractional   0.00
      1 z          0.000000      0.000000     0.000000    Fractional   0.00
      2 x          0.500000      0.500000     0.000000    Fractional   0.00
      2 y          0.500000      0.500000     0.000000    Fractional   0.00
      2 z          0.500000      0.500000     0.000000    Fractional   0.00
      3 x          0.500000      0.500000     0.000000    Fractional   0.00
      3 y          0.500000      0.500000     0.000000    Fractional   0.00
      3 z          0.000000      0.000000     0.000000    Fractional   0.00
      4 x          0.000000      0.000000     0.000000    Fractional   0.00
      4 y          0.000000      0.000000     0.000000    Fractional   0.00
      4 z          0.000000      0.000000     0.000000    Fractional   0.00
      5 x          0.500000      0.500000     0.000000    Fractional   0.00
      5 y          0.500000      0.500000     0.000000    Fractional   0.00
      5 z          0.500000      0.500000     0.000000    Fractional   0.00
--------------------------------------------------------------------------------


  Born effective charge tensors : 

-------------------------------------------------------------------------------
  Atom             x           y             z
-------------------------------------------------------------------------------
    1 Cl    x      -1.0181     -0.0000      0.0000
            y      -0.0000     -1.0181      0.0000
            z       0.0000      0.0000     -1.0181
-------------------------------------------------------------------------------
    2 O     x      -2.2647      0.0000     -0.0000
            y       0.0000     -2.2647     -0.0000
            z      -0.0000     -0.0000     -2.2647
-------------------------------------------------------------------------------
    3 Na    x       1.2258     -0.0000      0.0000
            y      -0.0000      1.2258     -0.0000
            z       0.0000     -0.0000      0.8313
-------------------------------------------------------------------------------




  Elastic Constant Matrix: (Units=GPa)

-------------------------------------------------------------------------------
  Indices      1         2         3         4         5         6    
-------------------------------------------------------------------------------
       1     95.8177   20.0737   20.0737   -0.0000   -0.0000    0.0000
       2     20.0737   95.8177   20.0737   -0.0000   -0.0000    0.0000
       3     20.0737   20.0737   95.8177   -0.0000   -0.0000    0.0000
       4     -0.0000   -0.0000   -0.0000   20.0737   -0.0000    0.0000
       5     -0.0000   -0.0000   -0.0000   -0.0000   20.0737    0.0000
       6      0.0000    0.0000    0.0000    0.0000    0.0000   20.0737
-------------------------------------------------------------------------------


  Elastic Compliance Matrix: (Units=1/GPa)

-------------------------------------------------------------------------------
  Indices      1         2         3         4         5         6    
-------------------------------------------------------------------------------
       1    0.011253 -0.001949 -0.001949  0.000000  0.000000 -0.000000
       2   -0.001949  0.011253 -0.001949  0.000000  0.000000  0.000000
       3   -0.001949 -0.001949  0.011253  0.000000  0.000000 -0.000000
       4    0.000000  0.000000  0.000000  0.049816  0.000000 -0.000000
       5    0.000000  0.000000  0.000000  0.000000  0.049816 -0.000000
       6   -0.000000  0.000000 -0.000000 -0.000000 -0.000000  0.049816
-------------------------------------------------------------------------------

  Mechanical properties :

-------------------------------------------------------------------------------
  Convention :                    Reuss         Voigt         Hill
-------------------------------------------------------------------------------
  Bulk  Modulus (GPa)     =      45.32174      45.32174      45.32174
  Shear Modulus (GPa)     =      24.72085      27.19304      25.95695
-------------------------------------------------------------------------------
  Velocity S-wave (km/s)  =       3.36511       3.52937       3.44822
  Velocity P-wave (km/s)  =       5.98827       6.11304       6.05098
-------------------------------------------------------------------------------
  Compressibility (1/GPa) =    0.02206447
-------------------------------------------------------------------------------
  Stress axis :                     x             y             z
-------------------------------------------------------------------------------
  Youngs Moduli (GPa)     =      88.86373      88.86373      88.86373
-------------------------------------------------------------------------------
  Poissons Ratio (x)      =                     0.17321       0.17321
  Poissons Ratio (y)      =       0.17321                     0.17321
  Poissons Ratio (z)      =       0.17321       0.17321
-------------------------------------------------------------------------------


  Piezoelectric Strain Matrix: (Units=C/m**2)

-------------------------------------------------------------------------------
  Indices      1         2         3         4         5         6    
-------------------------------------------------------------------------------
       x    -0.00000  -0.00000  -0.00000   0.00000  -0.00000  -0.00000
       y    -0.00000  -0.00000   0.00000  -0.00000   0.00000   0.00000
       z    -0.00000  -0.00000  -0.00000  -0.00000   0.00000   0.00000
-------------------------------------------------------------------------------


  Piezoelectric Stress Matrix: (Units=10**-11 C/N)

-------------------------------------------------------------------------------
  Indices      1         2         3         4         5         6    
-------------------------------------------------------------------------------
       x    -0.00000   0.00000   0.00000   0.00000  -0.00000  -0.00000
       y    -0.00000  -0.00000   0.00000  -0.00000   0.00000   0.00000
       z     0.00000   0.00000  -0.00000  -0.00000   0.00000   0.00000
-------------------------------------------------------------------------------


  Static dielectric constant tensor : 

-------------------------------------------------------------------------------
              x         y         z
-------------------------------------------------------------------------------
       x    22.84729   0.00000   0.00000
       y     0.00000  22.84729  -0.00000
       z     0.00000  -0.00000  22.84729
--------------------------------------------------------------------------------

  High frequency dielectric constant tensor : 

-------------------------------------------------------------------------------
              x         y         z
-------------------------------------------------------------------------------
       x     1.47557   0.00000  -0.00000
       y     0.00000   1.47557  -0.00000
       z    -0.00000  -0.00000   1.47557
-------------------------------------------------------------------------------

  Static refractive indices : 

-------------------------------------------------------------------------------
    1 =    4.77988      2 =    4.77988      3 =    4.77988
-------------------------------------------------------------------------------

  High frequency refractive indices : 

-------------------------------------------------------------------------------
    1 =    1.21473      2 =    1.21473      3 =    1.21473
-------------------------------------------------------------------------------


  Time to end of optimisation =       0.0333 seconds

********************************************************************************
*  Defect calculation for configuration   1 :                                  *
********************************************************************************

  Total number of defects =      3

  Total charge on defect  =  -1.00

  Defect centre is at   0.5000   0.4400   0.0600  Frac

  Region 1 radius =  16.0000      Number of ions =   1305

  Number of symmetry inequivalent region 1 ions  =    730

  Region 2 radius =  20.0000      Number of ions =   1251

  Number of symmetry inequivalent region 2a ions =    669

  Region 2a mode = 4 : screened electrostatics due to region 1 
                       neglect correction to region 1 forces from 2a
                       region 2a displacements based on defects only

  Region 2a ions will only interact with defects in region 1

  Vacancies:

--------------------------------------------------------------------------------
    Specification type     Symbol/Number         x          y          z
--------------------------------------------------------------------------------
    Fractional                               0.500000   0.500000   0.000000
    Fractional                               0.500000   0.000000   0.500000
--------------------------------------------------------------------------------

  Interstitials:

--------------------------------------------------------------------------------
    Specification type     Symbol/Number         x          y          z
--------------------------------------------------------------------------------
    Atom/Fractional         Na               0.500000   0.440000   0.060000
--------------------------------------------------------------------------------


  Symmetry reduced region 1 (Relative to defect centre) :

--------------------------------------------------------------------------------
   No.   Atomic       x            y             z       Radius  Multiplicity   
         Label      (Angs)       (Angs)        (Angs)    (Angs)     
--------------------------------------------------------------------------------
     1  Na    c      0.0000       0.0000       0.0000    0.0000     1    Defect
     2  O     c      0.0000       0.2705 *     1.9834 *  0.0000     1          
     3  O     c      0.0000       0.2705 *    -2.5244 *  0.0000     1          
     4  Na    c      2.2539 *     0.2705 *     1.9834 *  0.0000     2          
     5  Cl    c      2.2539 *    -1.9834 *    -0.2705 *  0.0000     2          
     6  Na    c      0.0000       2.5244 *     1.9834 *  0.0000     1          
     7  Na    c      0.0000      -1.9834 *    -2.5244 *  0.0000     1          
     8  Cl    c      2.2539 *     2.5244 *    -0.2705 *  0.0000     2          
     9  Na    c      2.2539 *     0.2705 *    -2.5244 *  0.0000     2          
    10  Na    c      0.0000       2.5244 *    -2.5244 *  0.0000     1          
    11  Na    c      0.0000       0.2705 *     4.2373 *  0.0000     1          
    12  Na    c      0.0000      -4.2373 *    -0.2705 *  0.0000     1          
    13  Na    c     -4.5078 *     0.2705 *    -0.2705 *  0.0000     2          
    14  O     c      0.0000      -4.2373 *     1.9834 *  0.0000     1          
    15  Na    c      0.0000       0.2705 *    -4.7783 *  0.0000     1          
    16  Na    c      0.0000       4.7783 *    -0.2705 *  0.0000     1          
    17  O     c     -4.5078 *     0.2705 *     1.9834 *  0.0000     2          
    18  O     c      0.0000      -4.2373 *    -2.5244 *  0.0000     1          
    19  O     c      0.0000       4.7783 *     1.9834 *  0.0000     1          
    20  O     c     -4.5078 *     0.2705 *    -2.5244 *  0.0000     2          
    21  Na    c      2.2539 *    -4.2373 *     1.9834 *  0.0000     2          
    22  Cl    c      2.2539 *    -1.9834 *     4.2373 *  0.0000     2          
    23  Na    c     -4.5078 *    -1.9834 *     1.9834 *  0.0000     2          
    24  O     c      0.0000       4.7783 *    -2.5244 *  0.0000     1          
    25  Cl    c      2.2539 *     2.5244 *     4.2373 *  0.0000     2          
    26  Na    c      2.2539 *    -4.2373 *    -2.5244 *  0.0000     2          
    27  Na    c     -4.5078 *     2.5244 *     1.9834 *  0.0000     2          
    28  Na    c     -4.5078 *    -1.9834 *    -2.5244 *  0.0000     2          
    29  Na    c      2.2539 *     4.7783 *     1.9834 *  0.0000     2          
    30  Cl    c      2.2539 *    -1.9834 *    -4.7783 *  0.0000     2          
    31  Na    c     -4.5078 *     2.5244 *    -2.5244 *  0.0000     2          
    32  Cl    c      2.2539 *     2.5244 *    -4.7783 *  0.0000     2          
    33  Na    c      2.2539 *     4.7783 *    -2.5244 *  0.0000     2          
    34  Na    c      0.0000      -4.2373 *     4.2373 *  0.0000     1          
    35  Na    c     -4.5078 *     0.2705 *     4.2373 *  0.0000     2          
    36  Na    c     -4.5078 *    -4.2373 *    -0.2705 *  0.0000     2          
    37  Na    c      0.0000       4.7783 *     4.2373 *  0.0000     1          
    38  Na    c      0.0000      -4.2373 *    -4.7783 *  0.0000     1          
    39  O     c      0.0000       0.2705 *     6.4912 *  0.0000     1          
    40  O     c     -4.5078 *    -4.2373 *     1.9834 *  0.0000     2          
    41  Na    c     -4.5078 *     0.2705 *    -4.7783 *  0.0000     2          
    42  Na    c     -4.5078 *     4.7783 *    -0.2705 *  0.0000     2          
    43  O     c     -4.5078 *    -4.2373 *    -2.5244 *  0.0000     2          
    44  Na    c      0.0000       4.7783 *    -4.7783 *  0.0000     1          
    45  Na    c      0.0000      -1.9834 *     6.4912 *  0.0000     1          
    46  Na    c      0.0000      -6.4912 *     1.9834 *  0.0000     1          
    47  O     c     -4.5078 *     4.7783 *     1.9834 *  0.0000     2          
    48  Cl    c      2.2539 *    -6.4912 *    -0.2705 *  0.0000     2          
    49  Na    c      2.2539 *     0.2705 *     6.4912 *  0.0000     2          
    50  Na    c      0.0000       2.5244 *     6.4912 *  0.0000     1          
    51  Na    c      0.0000      -6.4912 *    -2.5244 *  0.0000     1          
    52  O     c      0.0000       0.2705 *    -7.0321 *  0.0000     1          
    53  O     c     -4.5078 *     4.7783 *    -2.5244 *  0.0000     2          
    54  Cl    c      6.7617 *    -1.9834 *    -0.2705 *  0.0000     2          
    55  Na    c      6.7617 *     0.2705 *     1.9834 *  0.0000     2          
    56  Cl    c      6.7617 *     2.5244 *    -0.2705 *  0.0000     2          
    57  Na    c      6.7617 *     0.2705 *    -2.5244 *  0.0000     2          
    58  Na    c      0.0000       7.0321 *     1.9834 *  0.0000     1          
    59  Na    c      0.0000      -1.9834 *    -7.0321 *  0.0000     1          
    60  Cl    c      2.2539 *     7.0321 *    -0.2705 *  0.0000     2          
    61  Na    c      2.2539 *     0.2705 *    -7.0321 *  0.0000     2          
    62  Na    c      0.0000       7.0321 *    -2.5244 *  0.0000     1          
    63  Na    c      0.0000       2.5244 *    -7.0321 *  0.0000     1          
    64  Na    c      4.5078 *    -4.2373 *     4.2373 *  0.0000     2          
    65  O     c      0.0000      -4.2373 *     6.4912 *  0.0000     1          
    66  Na    c      4.5078 *     4.7783 *     4.2373 *  0.0000     2          
    67  Na    c      4.5078 *    -4.2373 *    -4.7783 *  0.0000     2          
    68  O     c      4.5078 *     0.2705 *     6.4912 *  0.0000     2          
    69  O     c      0.0000       4.7783 *     6.4912 *  0.0000     1          
    70  Cl    c      2.2539 *    -6.4912 *     4.2373 *  0.0000     2          
    71  Na    c      2.2539 *    -4.2373 *     6.4912 *  0.0000     2          
    72  Na    c      4.5078 *     4.7783 *    -4.7783 *  0.0000     2          
    73  Na    c     -4.5078 *    -6.4912 *     1.9834 *  0.0000     2          
    74  Na    c      4.5078 *    -1.9834 *     6.4912 *  0.0000     2          
    75  O     c      0.0000      -4.2373 *    -7.0321 *  0.0000     1          
    76  Na    c      6.7617 *    -4.2373 *     1.9834 *  0.0000     2          
    77  Cl    c      6.7617 *    -1.9834 *     4.2373 *  0.0000     2          
    78  Na    c     -4.5078 *     2.5244 *     6.4912 *  0.0000     2          
    79  Na    c     -4.5078 *    -6.4912 *    -2.5244 *  0.0000     2          
    80  O     c      4.5078 *     0.2705 *    -7.0321 *  0.0000     2          
    81  Cl    c      2.2539 *    -6.4912 *    -4.7783 *  0.0000     2          
    82  Na    c      2.2539 *     4.7783 *     6.4912 *  0.0000     2          
    83  Cl    c      6.7617 *     2.5244 *     4.2373 *  0.0000     2          
    84  Na    c      6.7617 *    -4.2373 *    -2.5244 *  0.0000     2          
    85  O     c      0.0000       4.7783 *    -7.0321 *  0.0000     1          
    86  Cl    c      2.2539 *     7.0321 *     4.2373 *  0.0000     2          
    87  Na    c      2.2539 *    -4.2373 *    -7.0321 *  0.0000     2          
    88  Na    c      6.7617 *     4.7783 *     1.9834 *  0.0000     2          
    89  Cl    c      6.7617 *    -1.9834 *    -4.7783 *  0.0000     2          
    90  Na    c      4.5078 *     7.0321 *     1.9834 *  0.0000     2          
    91  Na    c      4.5078 *    -1.9834 *    -7.0321 *  0.0000     2          
    92  Cl    c      6.7617 *     2.5244 *    -4.7783 *  0.0000     2          
    93  Na    c      6.7617 *     4.7783 *    -2.5244 *  0.0000     2          
    94  Na    c      4.5078 *     7.0321 *    -2.5244 *  0.0000     2          
    95  Na    c     -4.5078 *     2.5244 *    -7.0321 *  0.0000     2          
    96  Na    c      0.0000       0.2705 *     8.7451 *  0.0000     1          
    97  Na    c      0.0000      -8.7451 *    -0.2705 *  0.0000     1          
    98  Cl    c      2.2539 *     7.0321 *    -4.7783 *  0.0000     2          
    99  Na    c      2.2539 *     4.7783 *    -7.0321 *  0.0000     2          
   100  O     c     -4.5078 *    -4.2373 *     6.4912 *  0.0000     2          
   101  O     c      0.0000      -8.7451 *     1.9834 *  0.0000     1          
   102  Na    c      9.0156 *     0.2705 *    -0.2705 *  0.0000     2          
   103  O     c      0.0000      -8.7451 *    -2.5244 *  0.0000     1          
   104  Na    c      0.0000      -6.4912 *     6.4912 *  0.0000     1          
   105  O     c      4.5078 *     4.7783 *     6.4912 *  0.0000     2          
   106  O     c      9.0156 *     0.2705 *     1.9834 *  0.0000     2          
   107  Cl    c      2.2539 *    -1.9834 *     8.7451 *  0.0000     2          
   108  Na    c      2.2539 *    -8.7451 *     1.9834 *  0.0000     2          
   109  Na    c      0.0000       0.2705 *    -9.2860 *  0.0000     1          
   110  Na    c      0.0000       9.2860 *    -0.2705 *  0.0000     1          
   111  O     c     -4.5078 *    -4.2373 *    -7.0321 *  0.0000     2          
   112  O     c      9.0156 *     0.2705 *    -2.5244 *  0.0000     2          
   113  Cl    c      6.7617 *    -6.4912 *    -0.2705 *  0.0000     2          
   114  Na    c      6.7617 *     0.2705 *     6.4912 *  0.0000     2          
   115  Cl    c      2.2539 *     2.5244 *     8.7451 *  0.0000     2          
   116  Na    c      2.2539 *    -8.7451 *    -2.5244 *  0.0000     2          
   117  Na    c      9.0156 *    -1.9834 *     1.9834 *  0.0000     2          
   118  O     c      0.0000       9.2860 *     1.9834 *  0.0000     1          
   119  Na    c      0.0000       7.0321 *     6.4912 *  0.0000     1          
   120  Na    c      0.0000      -6.4912 *    -7.0321 *  0.0000     1          
   121  Na    c      9.0156 *     2.5244 *     1.9834 *  0.0000     2          
   122  Na    c      9.0156 *    -1.9834 *    -2.5244 *  0.0000     2          
   123  O     c      0.0000       9.2860 *    -2.5244 *  0.0000     1          
   124  O     c      4.5078 *     4.7783 *    -7.0321 *  0.0000     2          
   125  Na    c      9.0156 *     2.5244 *    -2.5244 *  0.0000     2          
   126  Na    c      0.0000      -4.2373 *     8.7451 *  0.0000     1          
   127  Na    c      0.0000      -8.7451 *     4.2373 *  0.0000     1          
   128  Na    c      2.2539 *     9.2860 *     1.9834 *  0.0000     2          
   129  Cl    c      2.2539 *    -1.9834 *    -9.2860 *  0.0000     2          
   130  Cl    c      6.7617 *     7.0321 *    -0.2705 *  0.0000     2          
   131  Na    c      6.7617 *     0.2705 *    -7.0321 *  0.0000     2          
   132  Na    c      4.5078 *     0.2705 *     8.7451 *  0.0000     2          
   133  Na    c     -4.5078 *    -8.7451 *    -0.2705 *  0.0000     2          
   134  Cl    c      2.2539 *     2.5244 *    -9.2860 *  0.0000     2          
   135  Na    c      2.2539 *     9.2860 *    -2.5244 *  0.0000     2          
   136  Na    c      0.0000       7.0321 *    -7.0321 *  0.0000     1          
   137  Na    c      9.0156 *     0.2705 *     4.2373 *  0.0000     2          
   138  Na    c      9.0156 *    -4.2373 *    -0.2705 *  0.0000     2          
   139  Na    c      0.0000       4.7783 *     8.7451 *  0.0000     1          
   140  Na    c      0.0000      -8.7451 *    -4.7783 *  0.0000     1          
   141  O     c     -4.5078 *    -8.7451 *     1.9834 *  0.0000     2          
   142  O     c      9.0156 *    -4.2373 *     1.9834 *  0.0000     2          
   143  O     c     -4.5078 *    -8.7451 *    -2.5244 *  0.0000     2          
   144  Na    c      0.0000       9.2860 *     4.2373 *  0.0000     1          
   145  Na    c      0.0000      -4.2373 *    -9.2860 *  0.0000     1          
   146  Na    c      9.0156 *     0.2705 *    -4.7783 *  0.0000     2          
   147  Na    c      9.0156 *     4.7783 *    -0.2705 *  0.0000     2          
   148  Na    c     -4.5078 *    -6.4912 *     6.4912 *  0.0000     2          
   149  O     c      9.0156 *    -4.2373 *    -2.5244 *  0.0000     2          
   150  Cl    c      6.7617 *    -6.4912 *     4.2373 *  0.0000     2          
   151  Na    c      6.7617 *    -4.2373 *     6.4912 *  0.0000     2          
   152  Na    c      4.5078 *     0.2705 *    -9.2860 *  0.0000     2          
   153  Na    c     -4.5078 *     9.2860 *    -0.2705 *  0.0000     2          
   154  O     c      9.0156 *     4.7783 *     1.9834 *  0.0000     2          
   155  Na    c      0.0000       4.7783 *    -9.2860 *  0.0000     1          
   156  Na    c      0.0000       9.2860 *    -4.7783 *  0.0000     1          
   157  O     c     -4.5078 *     9.2860 *     1.9834 *  0.0000     2          
   158  O     c      9.0156 *     4.7783 *    -2.5244 *  0.0000     2          
   159  Cl    c      6.7617 *    -6.4912 *    -4.7783 *  0.0000     2          
   160  Na    c      6.7617 *     4.7783 *     6.4912 *  0.0000     2          
   161  Na    c      4.5078 *     7.0321 *     6.4912 *  0.0000     2          
   162  Na    c     -4.5078 *    -6.4912 *    -7.0321 *  0.0000     2          
   163  O     c     -4.5078 *     9.2860 *    -2.5244 *  0.0000     2          
   164  Cl    c      6.7617 *     7.0321 *     4.2373 *  0.0000     2          
   165  Na    c      6.7617 *    -4.2373 *    -7.0321 *  0.0000     2          
   166  Na    c     -4.5078 *    -4.2373 *     8.7451 *  0.0000     2          
   167  Na    c     -4.5078 *    -8.7451 *     4.2373 *  0.0000     2          
   168  Na    c      9.0156 *    -4.2373 *     4.2373 *  0.0000     2          
   169  Cl    c      6.7617 *     7.0321 *    -4.7783 *  0.0000     2          
   170  Na    c      6.7617 *     4.7783 *    -7.0321 *  0.0000     2          
   171  O     c      0.0000      -8.7451 *     6.4912 *  0.0000     1          
   172  Na    c      4.5078 *     7.0321 *    -7.0321 *  0.0000     2          
   173  Na    c     -4.5078 *    -8.7451 *    -4.7783 *  0.0000     2          
   174  Na    c      4.5078 *     4.7783 *     8.7451 *  0.0000     2          
   175  O     c      0.0000       0.2705 *    10.9990 *  0.0000     1          
   176  Na    c      9.0156 *     4.7783 *     4.2373 *  0.0000     2          
   177  Na    c      9.0156 *    -4.2373 *    -4.7783 *  0.0000     2          
   178  O     c      9.0156 *     0.2705 *     6.4912 *  0.0000     2          
   179  Cl    c      2.2539 *    -6.4912 *     8.7451 *  0.0000     2          
   180  Na    c      2.2539 *    -8.7451 *     6.4912 *  0.0000     2          
   181  Na    c     -4.5078 *     9.2860 *     4.2373 *  0.0000     2          
   182  Na    c      4.5078 *    -4.2373 *    -9.2860 *  0.0000     2          
   183  Na    c      0.0000      -1.9834 *    10.9990 *  0.0000     1          
   184  Na    c      0.0000     -10.9990 *     1.9834 *  0.0000     1          
   185  O     c      0.0000      -8.7451 *    -7.0321 *  0.0000     1          
   186  Cl    c      2.2539 *   -10.9990 *    -0.2705 *  0.0000     2          
   187  Na    c      2.2539 *     0.2705 *    10.9990 *  0.0000     2          
   188  Na    c      6.7617 *    -8.7451 *     1.9834 *  0.0000     2          
   189  Cl    c      6.7617 *    -1.9834 *     8.7451 *  0.0000     2          
   190  Na    c      9.0156 *     4.7783 *    -4.7783 *  0.0000     2          
   191  Na    c      0.0000       2.5244 *    10.9990 *  0.0000     1          
   192  Na    c      0.0000     -10.9990 *    -2.5244 *  0.0000     1          
   193  Na    c      9.0156 *    -1.9834 *     6.4912 *  0.0000     2          
   194  Na    c      9.0156 *    -6.4912 *     1.9834 *  0.0000     2          
   195  O     c      0.0000       9.2860 *     6.4912 *  0.0000     1          
   196  Cl    c      6.7617 *     2.5244 *     8.7451 *  0.0000     2          
   197  Na    c      6.7617 *    -8.7451 *    -2.5244 *  0.0000     2          
   198  Na    c      4.5078 *     4.7783 *    -9.2860 *  0.0000     2          
   199  Na    c     -4.5078 *     9.2860 *    -4.7783 *  0.0000     2          
   200  Na    c      9.0156 *     2.5244 *     6.4912 *  0.0000     2          
   201  Na    c      9.0156 *    -6.4912 *    -2.5244 *  0.0000     2          
   202  O     c      9.0156 *     0.2705 *    -7.0321 *  0.0000     2          
   203  Cl    c     11.2695 *    -1.9834 *    -0.2705 *  0.0000     2          
   204  Na    c     11.2695 *     0.2705 *     1.9834 *  0.0000     2          
   205  Cl    c      2.2539 *     7.0321 *     8.7451 *  0.0000     2          
   206  Na    c      2.2539 *    -8.7451 *    -7.0321 *  0.0000     2          
   207  O     c      0.0000       0.2705 *   -11.5399 *  0.0000     1          
   208  Cl    c      2.2539 *    -6.4912 *    -9.2860 *  0.0000     2          
   209  Cl    c     11.2695 *     2.5244 *    -0.2705 *  0.0000     2          
   210  Na    c      2.2539 *     9.2860 *     6.4912 *  0.0000     2          
   211  Na    c     11.2695 *     0.2705 *    -2.5244 *  0.0000     2          
   212  Na    c      9.0156 *    -1.9834 *    -7.0321 *  0.0000     2          
   213  Na    c      9.0156 *     7.0321 *     1.9834 *  0.0000     2          
   214  O     c      0.0000       9.2860 *    -7.0321 *  0.0000     1          
   215  Cl    c      6.7617 *    -1.9834 *    -9.2860 *  0.0000     2          
   216  Na    c      6.7617 *     9.2860 *     1.9834 *  0.0000     2          
   217  Na    c      0.0000      11.5399 *     1.9834 *  0.0000     1          
   218  Na    c      0.0000      -1.9834 *   -11.5399 *  0.0000     1          
   219  Na    c      9.0156 *     2.5244 *    -7.0321 *  0.0000     2          
   220  Na    c      9.0156 *     7.0321 *    -2.5244 *  0.0000     2          
   221  Cl    c      6.7617 *     2.5244 *    -9.2860 *  0.0000     2          
   222  Cl    c      2.2539 *    11.5399 *    -0.2705 *  0.0000     2          
   223  Na    c      2.2539 *     0.2705 *   -11.5399 *  0.0000     2          
   224  Na    c      6.7617 *     9.2860 *    -2.5244 *  0.0000     2          
   225  O     c      0.0000      -4.2373 *    10.9990 *  0.0000     1          
   226  O     c     -4.5078 *    -8.7451 *     6.4912 *  0.0000     2          
   227  Na    c      0.0000       2.5244 *   -11.5399 *  0.0000     1          
   228  Na    c      0.0000      11.5399 *    -2.5244 *  0.0000     1          
   229  Cl    c      2.2539 *     7.0321 *    -9.2860 *  0.0000     2          
   230  Na    c      2.2539 *     9.2860 *    -7.0321 *  0.0000     2          
   231  O     c      4.5078 *     0.2705 *    10.9990 *  0.0000     2          
   232  O     c      9.0156 *    -4.2373 *     6.4912 *  0.0000     2          
   233  O     c      0.0000       4.7783 *    10.9990 *  0.0000     1          
   234  Cl    c      2.2539 *   -10.9990 *     4.2373 *  0.0000     2          
   235  Na    c      2.2539 *    -4.2373 *    10.9990 *  0.0000     2          
   236  Na    c      4.5078 *    -1.9834 *    10.9990 *  0.0000     2          
   237  Na    c      4.5078 *   -10.9990 *     1.9834 *  0.0000     2          
   238  O     c      9.0156 *     4.7783 *     6.4912 *  0.0000     2          
   239  O     c      4.5078 *    -8.7451 *    -7.0321 *  0.0000     2          
   240  Na    c      4.5078 *     2.5244 *    10.9990 *  0.0000     2          
   241  Na    c      4.5078 *   -10.9990 *    -2.5244 *  0.0000     2          
   242  O     c     -4.5078 *     9.2860 *     6.4912 *  0.0000     2          
   243  O     c      9.0156 *    -4.2373 *    -7.0321 *  0.0000     2          
   244  Cl    c      2.2539 *   -10.9990 *    -4.7783 *  0.0000     2          
   245  Na    c      2.2539 *     4.7783 *    10.9990 *  0.0000     2          
   246  Cl    c     11.2695 *    -1.9834 *     4.2373 *  0.0000     2          
   247  Na    c     11.2695 *    -4.2373 *     1.9834 *  0.0000     2          
   248  O     c      0.0000      -4.2373 *   -11.5399 *  0.0000     1          
   249  Cl    c     11.2695 *     2.5244 *     4.2373 *  0.0000     2          
   250  Na    c     11.2695 *    -4.2373 *    -2.5244 *  0.0000     2          
   251  Na    c      0.0000      -8.7451 *     8.7451 *  0.0000     1          
   252  O     c      4.5078 *     0.2705 *   -11.5399 *  0.0000     2          
   253  O     c      9.0156 *     4.7783 *    -7.0321 *  0.0000     2          
   254  Cl    c     11.2695 *    -1.9834 *    -4.7783 *  0.0000     2          
   255  Na    c     11.2695 *     4.7783 *     1.9834 *  0.0000     2          
   256  O     c      0.0000       4.7783 *   -11.5399 *  0.0000     1          
   257  O     c      4.5078 *     9.2860 *    -7.0321 *  0.0000     2          
   258  Cl    c     11.2695 *     2.5244 *    -4.7783 *  0.0000     2          
   259  Na    c     11.2695 *     4.7783 *    -2.5244 *  0.0000     2          
   260  Cl    c      2.2539 *    11.5399 *     4.2373 *  0.0000     2          
   261  Na    c      2.2539 *    -4.2373 *   -11.5399 *  0.0000     2          
   262  Na    c      4.5078 *    11.5399 *     1.9834 *  0.0000     2          
   263  Na    c      4.5078 *    -1.9834 *   -11.5399 *  0.0000     2          
   264  Na    c      9.0156 *     0.2705 *     8.7451 *  0.0000     2          
   265  Na    c      9.0156 *    -8.7451 *    -0.2705 *  0.0000     2          
   266  O     c      4.5078 *    -4.2373 *    10.9990 *  0.0000     2          
   267  Na    c      4.5078 *     2.5244 *   -11.5399 *  0.0000     2          
   268  Na    c      4.5078 *    11.5399 *    -2.5244 *  0.0000     2          
   269  Cl    c      2.2539 *    11.5399 *    -4.7783 *  0.0000     2          
   270  Na    c      2.2539 *     4.7783 *   -11.5399 *  0.0000     2          
   271  O     c      9.0156 *    -8.7451 *     1.9834 *  0.0000     2          
   272  Na    c      0.0000       9.2860 *     8.7451 *  0.0000     1          
   273  Na    c      0.0000      -8.7451 *    -9.2860 *  0.0000     1          
   274  Na    c      0.0000      -6.4912 *    10.9990 *  0.0000     1          
   275  Na    c      0.0000     -10.9990 *     6.4912 *  0.0000     1          
   276  O     c      4.5078 *     4.7783 *    10.9990 *  0.0000     2          
   277  O     c      9.0156 *    -8.7451 *    -2.5244 *  0.0000     2          
   278  Cl    c      6.7617 *    -6.4912 *     8.7451 *  0.0000     2          
   279  Na    c      6.7617 *    -8.7451 *     6.4912 *  0.0000     2          
   280  Na    c      9.0156 *    -6.4912 *     6.4912 *  0.0000     2          
   281  Na    c      6.7617 *     0.2705 *    10.9990 *  0.0000     2          
   282  Cl    c      6.7617 *   -10.9990 *    -0.2705 *  0.0000     2          
   283  Na    c      9.0156 *     0.2705 *    -9.2860 *  0.0000     2          
   284  Na    c      9.0156 *     9.2860 *    -0.2705 *  0.0000     2          
   285  Cl    c     11.2695 *    -6.4912 *    -0.2705 *  0.0000     2          
   286  Na    c     11.2695 *     0.2705 *     6.4912 *  0.0000     2          
   287  Na    c      0.0000       7.0321 *    10.9990 *  0.0000     1          
   288  Na    c      0.0000     -10.9990 *    -7.0321 *  0.0000     1          
   289  O     c      9.0156 *     9.2860 *     1.9834 *  0.0000     2          
   290  O     c      4.5078 *    -4.2373 *   -11.5399 *  0.0000     2          
   291  Cl    c      6.7617 *     7.0321 *     8.7451 *  0.0000     2          
   292  Na    c      6.7617 *    -8.7451 *    -7.0321 *  0.0000     2          
   293  Na    c      0.0000       9.2860 *    -9.2860 *  0.0000     1          
   294  Na    c      9.0156 *     7.0321 *     6.4912 *  0.0000     2          
   295  Na    c      9.0156 *    -6.4912 *    -7.0321 *  0.0000     2          
   296  Na    c     -4.5078 *    -8.7451 *     8.7451 *  0.0000     2          
   297  O     c      9.0156 *     9.2860 *    -2.5244 *  0.0000     2          
   298  Cl    c      6.7617 *    -6.4912 *    -9.2860 *  0.0000     2          
   299  Na    c      6.7617 *     9.2860 *     6.4912 *  0.0000     2          
   300  Na    c      0.0000      11.5399 *     6.4912 *  0.0000     1          
   301  Na    c      0.0000      -6.4912 *   -11.5399 *  0.0000     1          
   302  Na    c      0.0000       0.2705 *    13.2529 *  0.0000     1          
   303  Na    c      0.0000     -13.2529 *    -0.2705 *  0.0000     1          
   304  Na    c      9.0156 *    -4.2373 *     8.7451 *  0.0000     2          
   305  Na    c      9.0156 *    -8.7451 *     4.2373 *  0.0000     2          
   306  O     c      4.5078 *     4.7783 *   -11.5399 *  0.0000     2          
   307  Cl    c     11.2695 *     7.0321 *    -0.2705 *  0.0000     2          
   308  Na    c     11.2695 *     0.2705 *    -7.0321 *  0.0000     2          
   309  Na    c      6.7617 *     0.2705 *   -11.5399 *  0.0000     2          
   310  Cl    c      6.7617 *    11.5399 *    -0.2705 *  0.0000     2          
   311  O     c      0.0000     -13.2529 *     1.9834 *  0.0000     1          
   312  Na    c      9.0156 *     7.0321 *    -7.0321 *  0.0000     2          
   313  Na    c      9.0156 *     4.7783 *     8.7451 *  0.0000     2          
   314  Na    c      9.0156 *    -8.7451 *    -4.7783 *  0.0000     2          
   315  Cl    c      6.7617 *     7.0321 *    -9.2860 *  0.0000     2          
   316  Na    c      6.7617 *     9.2860 *    -7.0321 *  0.0000     2          
   317  O     c      0.0000     -13.2529 *    -2.5244 *  0.0000     1          
   318  Na    c      0.0000       7.0321 *   -11.5399 *  0.0000     1          
   319  Na    c      0.0000      11.5399 *    -7.0321 *  0.0000     1          
   320  Na    c     -4.5078 *     9.2860 *     8.7451 *  0.0000     2          
   321  Na    c     -4.5078 *    -8.7451 *    -9.2860 *  0.0000     2          
   322  Na    c     13.5234 *     0.2705 *    -0.2705 *  0.0000     2          
   323  Na    c      4.5078 *   -10.9990 *     6.4912 *  0.0000     2          
   324  Na    c     -4.5078 *    -6.4912 *    10.9990 *  0.0000     2          
   325  Na    c      6.7617 *    -4.2373 *    10.9990 *  0.0000     2          
   326  Cl    c      2.2539 *    -1.9834 *    13.2529 *  0.0000     2          
   327  Cl    c      6.7617 *   -10.9990 *     4.2373 *  0.0000     2          
   328  Na    c      2.2539 *   -13.2529 *     1.9834 *  0.0000     2          
   329  Na    c      9.0156 *     9.2860 *     4.2373 *  0.0000     2          
   330  Na    c      9.0156 *    -4.2373 *    -9.2860 *  0.0000     2          
   331  O     c     13.5234 *     0.2705 *     1.9834 *  0.0000     2          
   332  Cl    c      2.2539 *     2.5244 *    13.2529 *  0.0000     2          
   333  Cl    c     11.2695 *    -6.4912 *     4.2373 *  0.0000     2          
   334  Na    c      2.2539 *   -13.2529 *    -2.5244 *  0.0000     2          
   335  Na    c     11.2695 *    -4.2373 *     6.4912 *  0.0000     2          
   336  O     c     13.5234 *     0.2705 *    -2.5244 *  0.0000     2          
   337  Cl    c      6.7617 *   -10.9990 *    -4.7783 *  0.0000     2          
   338  Na    c      6.7617 *     4.7783 *    10.9990 *  0.0000     2          
   339  Na    c      0.0000       0.2705 *   -13.7938 *  0.0000     1          
   340  Na    c      0.0000      13.7938 *    -0.2705 *  0.0000     1          
   341  Na    c      9.0156 *     4.7783 *    -9.2860 *  0.0000     2          
   342  Na    c      9.0156 *     9.2860 *    -4.7783 *  0.0000     2          
   343  Na    c      4.5078 *     7.0321 *    10.9990 *  0.0000     2          
   344  Na    c      4.5078 *   -10.9990 *    -7.0321 *  0.0000     2          
   345  Na    c     13.5234 *    -1.9834 *     1.9834 *  0.0000     2          
   346  Cl    c     11.2695 *    -6.4912 *    -4.7783 *  0.0000     2          
   347  Na    c     11.2695 *     4.7783 *     6.4912 *  0.0000     2          
   348  Na    c      4.5078 *     9.2860 *    -9.2860 *  0.0000     2          
   349  Na    c     13.5234 *     2.5244 *     1.9834 *  0.0000     2          
   350  Na    c     13.5234 *    -1.9834 *    -2.5244 *  0.0000     2          
   351  Na    c      0.0000      -4.2373 *    13.2529 *  0.0000     1          
   352  Na    c      0.0000     -13.2529 *     4.2373 *  0.0000     1          
   353  O     c      0.0000      13.7938 *     1.9834 *  0.0000     1          
   354  Cl    c     11.2695 *     7.0321 *     4.2373 *  0.0000     2          
   355  Na    c     11.2695 *    -4.2373 *    -7.0321 *  0.0000     2          
   356  Na    c      4.5078 *    11.5399 *     6.4912 *  0.0000     2          
   357  Na    c     -4.5078 *    -6.4912 *   -11.5399 *  0.0000     2          
   358  Na    c     13.5234 *     2.5244 *    -2.5244 *  0.0000     2          
   359  Na    c      4.5078 *     0.2705 *    13.2529 *  0.0000     2          
   360  Na    c      4.5078 *   -13.2529 *    -0.2705 *  0.0000     2          
   361  O     c      0.0000      13.7938 *    -2.5244 *  0.0000     1          
   362  Na    c      6.7617 *    -4.2373 *   -11.5399 *  0.0000     2          
   363  Cl    c      6.7617 *    11.5399 *     4.2373 *  0.0000     2          
   364  O     c      0.0000      -8.7451 *    10.9990 *  0.0000     1          
   365  Na    c      0.0000       4.7783 *    13.2529 *  0.0000     1          
   366  Na    c      0.0000     -13.2529 *    -4.7783 *  0.0000     1          
   367  Cl    c      2.2539 *    -1.9834 *   -13.7938 *  0.0000     2          
   368  Cl    c     11.2695 *     7.0321 *    -4.7783 *  0.0000     2          
   369  Na    c      2.2539 *    13.7938 *     1.9834 *  0.0000     2          
   370  Na    c     11.2695 *     4.7783 *    -7.0321 *  0.0000     2          
   371  O     c      4.5078 *   -13.2529 *     1.9834 *  0.0000     2          
   372  O     c      9.0156 *    -8.7451 *     6.4912 *  0.0000     2          
   373  Na    c     13.5234 *     0.2705 *     4.2373 *  0.0000     2          
   374  Na    c     13.5234 *    -4.2373 *    -0.2705 *  0.0000     2          
   375  Cl    c      2.2539 *     2.5244 *   -13.7938 *  0.0000     2          
   376  Na    c      2.2539 *    13.7938 *    -2.5244 *  0.0000     2          
   377  Cl    c      6.7617 *    11.5399 *    -4.7783 *  0.0000     2          
   378  Na    c      6.7617 *     4.7783 *   -11.5399 *  0.0000     2          
   379  O     c      9.0156 *     0.2705 *    10.9990 *  0.0000     2          
   380  O     c      4.5078 *   -13.2529 *    -2.5244 *  0.0000     2          
   381  Cl    c      2.2539 *   -10.9990 *     8.7451 *  0.0000     2          
   382  Na    c      2.2539 *    -8.7451 *    10.9990 *  0.0000     2          
   383  Na    c      4.5078 *     7.0321 *   -11.5399 *  0.0000     2          
   384  Na    c      4.5078 *    11.5399 *    -7.0321 *  0.0000     2          
   385  O     c     13.5234 *    -4.2373 *     1.9834 *  0.0000     2          
   386  Na    c     13.5234 *     0.2705 *    -4.7783 *  0.0000     2          
   387  Na    c     13.5234 *     4.7783 *    -0.2705 *  0.0000     2          
   388  Na    c      9.0156 *    -1.9834 *    10.9990 *  0.0000     2          
   389  Na    c      9.0156 *   -10.9990 *     1.9834 *  0.0000     2          
   390  O     c      0.0000       9.2860 *    10.9990 *  0.0000     1          
   391  O     c      9.0156 *    -8.7451 *    -7.0321 *  0.0000     2          
   392  O     c     13.5234 *    -4.2373 *    -2.5244 *  0.0000     2          
   393  Cl    c     11.2695 *    -1.9834 *     8.7451 *  0.0000     2          
   394  Na    c     11.2695 *    -8.7451 *     1.9834 *  0.0000     2          
   395  Na    c      0.0000      13.7938 *     4.2373 *  0.0000     1          
   396  Na    c      0.0000      -4.2373 *   -13.7938 *  0.0000     1          
   397  Na    c      9.0156 *   -10.9990 *    -2.5244 *  0.0000     2          
   398  Na    c      9.0156 *     2.5244 *    10.9990 *  0.0000     2          
   399  O     c      9.0156 *     9.2860 *     6.4912 *  0.0000     2          
   400  O     c      0.0000      -8.7451 *   -11.5399 *  0.0000     1          
   401  O     c     13.5234 *     4.7783 *     1.9834 *  0.0000     2          
   402  Cl    c     11.2695 *     2.5244 *     8.7451 *  0.0000     2          
   403  Na    c     11.2695 *    -8.7451 *    -2.5244 *  0.0000     2          
   404  Na    c      4.5078 *     0.2705 *   -13.7938 *  0.0000     2          
   405  Na    c      4.5078 *    13.7938 *    -0.2705 *  0.0000     2          
   406  O     c     13.5234 *     4.7783 *    -2.5244 *  0.0000     2          
   407  Cl    c      2.2539 *   -10.9990 *    -9.2860 *  0.0000     2          
   408  Na    c      2.2539 *     9.2860 *    10.9990 *  0.0000     2          
   409  Na    c      0.0000       4.7783 *   -13.7938 *  0.0000     1          
   410  Na    c      0.0000      13.7938 *    -4.7783 *  0.0000     1          
   411  Na    c      4.5078 *    -4.2373 *    13.2529 *  0.0000     2          
   412  Na    c      4.5078 *   -13.2529 *     4.2373 *  0.0000     2          
   413  O     c      4.5078 *    13.7938 *     1.9834 *  0.0000     2          
   414  O     c      9.0156 *     0.2705 *   -11.5399 *  0.0000     2          
   415  Cl    c      2.2539 *    11.5399 *     8.7451 *  0.0000     2          
   416  Na    c      2.2539 *    -8.7451 *   -11.5399 *  0.0000     2          
   417  O     c      4.5078 *    13.7938 *    -2.5244 *  0.0000     2          
   418  O     c      9.0156 *     9.2860 *    -7.0321 *  0.0000     2          
   419  Cl    c     11.2695 *    -1.9834 *    -9.2860 *  0.0000     2          
   420  Na    c     11.2695 *     9.2860 *     1.9834 *  0.0000     2          
   421  O     c      0.0000     -13.2529 *     6.4912 *  0.0000     1          
   422  O     c     -4.5078 *    -8.7451 *    10.9990 *  0.0000     2          
   423  Na    c      9.0156 *    11.5399 *     1.9834 *  0.0000     2          
   424  Na    c      9.0156 *    -1.9834 *   -11.5399 *  0.0000     2          
   425  Na    c      4.5078 *     4.7783 *    13.2529 *  0.0000     2          
   426  Na    c      4.5078 *   -13.2529 *    -4.7783 *  0.0000     2          
   427  Na    c     13.5234 *    -4.2373 *     4.2373 *  0.0000     2          
   428  O     c      0.0000       9.2860 *   -11.5399 *  0.0000     1          
   429  Cl    c     11.2695 *     2.5244 *    -9.2860 *  0.0000     2          
   430  Na    c     11.2695 *     9.2860 *    -2.5244 *  0.0000     2          
   431  O     c      9.0156 *    -4.2373 *    10.9990 *  0.0000     2          
   432  Na    c      9.0156 *    11.5399 *    -2.5244 *  0.0000     2          
   433  Na    c      9.0156 *     2.5244 *   -11.5399 *  0.0000     2          
   434  Cl    c      2.2539 *    -6.4912 *    13.2529 *  0.0000     2          
   435  Na    c      2.2539 *   -13.2529 *     6.4912 *  0.0000     2          
   436  Na    c     13.5234 *     4.7783 *     4.2373 *  0.0000     2          
   437  Na    c     13.5234 *    -4.2373 *    -4.7783 *  0.0000     2          
   438  Cl    c      2.2539 *    11.5399 *    -9.2860 *  0.0000     2          
   439  Na    c      2.2539 *     9.2860 *   -11.5399 *  0.0000     2          
   440  O     c      9.0156 *     4.7783 *    10.9990 *  0.0000     2          
   441  O     c      0.0000     -13.2529 *    -7.0321 *  0.0000     1          
   442  O     c     13.5234 *     0.2705 *     6.4912 *  0.0000     2          
   443  Cl    c      6.7617 *    -1.9834 *    13.2529 *  0.0000     2          
   444  Na    c      6.7617 *   -13.2529 *     1.9834 *  0.0000     2          
   445  O     c      4.5078 *     9.2860 *    10.9990 *  0.0000     2          
   446  Cl    c      6.7617 *     2.5244 *    13.2529 *  0.0000     2          
   447  Na    c      6.7617 *   -13.2529 *    -2.5244 *  0.0000     2          
   448  Na    c      4.5078 *    13.7938 *     4.2373 *  0.0000     2          
   449  Na    c      4.5078 *    -4.2373 *   -13.7938 *  0.0000     2          
   450  Na    c     13.5234 *     4.7783 *    -4.7783 *  0.0000     2          
   451  Na    c     13.5234 *    -6.4912 *     1.9834 *  0.0000     2          
   452  Na    c     13.5234 *    -1.9834 *     6.4912 *  0.0000     2          
   453  O     c     -4.5078 *    -8.7451 *   -11.5399 *  0.0000     2          
   454  Cl    c      2.2539 *     7.0321 *    13.2529 *  0.0000     2          
   455  Na    c      2.2539 *   -13.2529 *    -7.0321 *  0.0000     2          
   456  Na    c     13.5234 *    -6.4912 *    -2.5244 *  0.0000     2          
   457  Na    c     13.5234 *     2.5244 *     6.4912 *  0.0000     2          
   458  O     c      0.0000      13.7938 *     6.4912 *  0.0000     1          
   459  O     c      9.0156 *    -4.2373 *   -11.5399 *  0.0000     2          
   460  O     c     13.5234 *     0.2705 *    -7.0321 *  0.0000     2          
   461  Na    c      4.5078 *     4.7783 *   -13.7938 *  0.0000     2          
   462  Na    c      4.5078 *    13.7938 *    -4.7783 *  0.0000     2          
   463  Na    c      9.0156 *    -8.7451 *     8.7451 *  0.0000     2          
   464  Na    c     13.5234 *     7.0321 *     1.9834 *  0.0000     2          
   465  Na    c     13.5234 *    -1.9834 *    -7.0321 *  0.0000     2          
   466  O     c      9.0156 *     4.7783 *   -11.5399 *  0.0000     2          
   467  Cl    c      2.2539 *    -6.4912 *   -13.7938 *  0.0000     2          
   468  Na    c      2.2539 *    13.7938 *     6.4912 *  0.0000     2          
   469  O     c      4.5078 *   -13.2529 *     6.4912 *  0.0000     2          
   470  Na    c     13.5234 *     2.5244 *    -7.0321 *  0.0000     2          
   471  Na    c     13.5234 *     7.0321 *    -2.5244 *  0.0000     2          
   472  O     c      0.0000      13.7938 *    -7.0321 *  0.0000     1          
   473  O     c      4.5078 *     9.2860 *   -11.5399 *  0.0000     2          
   474  Cl    c      6.7617 *    -1.9834 *   -13.7938 *  0.0000     2          
   475  Na    c      6.7617 *    13.7938 *     1.9834 *  0.0000     2          
   476  O     c      0.0000       0.2705 *    15.5068 *  0.0000     1          
   477  Na    c      0.0000     -10.9990 *    10.9990 *  0.0000     1          
   478  Cl    c      6.7617 *     2.5244 *   -13.7938 *  0.0000     2          
   479  Na    c      6.7617 *    13.7938 *    -2.5244 *  0.0000     2          
   480  O     c     13.5234 *    -4.2373 *     6.4912 *  0.0000     2          
   481  Cl    c      6.7617 *   -10.9990 *     8.7451 *  0.0000     2          
   482  Na    c      6.7617 *    -8.7451 *    10.9990 *  0.0000     2          
   483  Na    c      9.0156 *     9.2860 *     8.7451 *  0.0000     2          
   484  Na    c      9.0156 *    -8.7451 *    -9.2860 *  0.0000     2          
   485  Na    c      0.0000      -1.9834 *    15.5068 *  0.0000     1          
   486  Na    c      0.0000     -15.5068 *     1.9834 *  0.0000     1          
   487  Na    c      9.0156 *   -10.9990 *     6.4912 *  0.0000     2          
   488  Na    c      9.0156 *    -6.4912 *    10.9990 *  0.0000     2          
   489  Cl    c      2.2539 *     7.0321 *   -13.7938 *  0.0000     2          
   490  Na    c      2.2539 *    13.7938 *    -7.0321 *  0.0000     2          
   491  O     c      4.5078 *   -13.2529 *    -7.0321 *  0.0000     2          
   492  Cl    c      2.2539 *   -15.5068 *    -0.2705 *  0.0000     2          
   493  Na    c      2.2539 *     0.2705 *    15.5068 *  0.0000     2          
   494  Cl    c     11.2695 *    -6.4912 *     8.7451 *  0.0000     2          
   495  Na    c     11.2695 *    -8.7451 *     6.4912 *  0.0000     2          
   496  Na    c      0.0000       2.5244 *    15.5068 *  0.0000     1          
   497  Na    c      0.0000     -15.5068 *    -2.5244 *  0.0000     1          
   498  O     c     13.5234 *     4.7783 *     6.4912 *  0.0000     2          
   499  Cl    c     11.2695 *   -10.9990 *    -0.2705 *  0.0000     2          
   500  Na    c     11.2695 *     0.2705 *    10.9990 *  0.0000     2          
   501  O     c     13.5234 *    -4.2373 *    -7.0321 *  0.0000     2          
   502  Na    c      9.0156 *     7.0321 *    10.9990 *  0.0000     2          
   503  Na    c      9.0156 *   -10.9990 *    -7.0321 *  0.0000     2          
   504  Na    c      0.0000      -8.7451 *    13.2529 *  0.0000     1          
   505  Na    c      0.0000     -13.2529 *     8.7451 *  0.0000     1          
   506  O     c      4.5078 *    13.7938 *     6.4912 *  0.0000     2          
   507  Cl    c      6.7617 *   -10.9990 *    -9.2860 *  0.0000     2          
   508  Cl    c     11.2695 *     7.0321 *     8.7451 *  0.0000     2          
   509  Cl    c    -15.7773 *    -1.9834 *    -0.2705 *  0.0000     2          
   510  Na    c      6.7617 *     9.2860 *    10.9990 *  0.0000     2          
   511  Na    c    -15.7773 *     0.2705 *     1.9834 *  0.0000     2          
   512  Na    c     11.2695 *    -8.7451 *    -7.0321 *  0.0000     2          
   513  Na    c      9.0156 *     9.2860 *    -9.2860 *  0.0000     2          
   514  Na    c      0.0000      11.5399 *    10.9990 *  0.0000     1          
   515  Na    c      0.0000     -10.9990 *   -11.5399 *  0.0000     1          
   516  O     c     13.5234 *     4.7783 *    -7.0321 *  0.0000     2          
   517  Cl    c     11.2695 *    -6.4912 *    -9.2860 *  0.0000     2          
   518  Cl    c    -15.7773 *     2.5244 *    -0.2705 *  0.0000     2          
   519  Na    c     11.2695 *     9.2860 *     6.4912 *  0.0000     2          
   520  Na    c    -15.7773 *     0.2705 *    -2.5244 *  0.0000     2          
   521  Cl    c      6.7617 *    11.5399 *     8.7451 *  0.0000     2          
   522  Na    c      6.7617 *    -8.7451 *   -11.5399 *  0.0000     2          
   523  O     s      0.0000       0.2705 *     1.9834 *  0.0000     1          
   524  O     s      0.0000       0.2705 *    -2.5244 *  0.0000     1          
   525  Cl    s      2.2539 *    -1.9834 *    -0.2705 *  0.0000     2          
   526  Cl    s      2.2539 *     2.5244 *    -0.2705 *  0.0000     2          
   527  O     s      0.0000      -4.2373 *     1.9834 *  0.0000     1          
   528  O     s     -4.5078 *     0.2705 *     1.9834 *  0.0000     2          
   529  O     s      0.0000      -4.2373 *    -2.5244 *  0.0000     1          
   530  O     s      0.0000       4.7783 *     1.9834 *  0.0000     1          
   531  O     s     -4.5078 *     0.2705 *    -2.5244 *  0.0000     2          
   532  Cl    s      2.2539 *    -1.9834 *     4.2373 *  0.0000     2          
   533  O     s      0.0000       4.7783 *    -2.5244 *  0.0000     1          
   534  Cl    s      2.2539 *     2.5244 *     4.2373 *  0.0000     2          
   535  Cl    s      2.2539 *    -1.9834 *    -4.7783 *  0.0000     2          
   536  Cl    s      2.2539 *     2.5244 *    -4.7783 *  0.0000     2          
   537  O     s      0.0000       0.2705 *     6.4912 *  0.0000     1          
   538  O     s     -4.5078 *    -4.2373 *     1.9834 *  0.0000     2          
   539  O     s     -4.5078 *    -4.2373 *    -2.5244 *  0.0000     2          
   540  O     s     -4.5078 *     4.7783 *     1.9834 *  0.0000     2          
   541  Cl    s      2.2539 *    -6.4912 *    -0.2705 *  0.0000     2          
   542  O     s      0.0000       0.2705 *    -7.0321 *  0.0000     1          
   543  O     s     -4.5078 *     4.7783 *    -2.5244 *  0.0000     2          
   544  Cl    s      6.7617 *    -1.9834 *    -0.2705 *  0.0000     2          
   545  Cl    s      6.7617 *     2.5244 *    -0.2705 *  0.0000     2          
   546  Cl    s      2.2539 *     7.0321 *    -0.2705 *  0.0000     2          
   547  O     s      0.0000      -4.2373 *     6.4912 *  0.0000     1          
   548  O     s      4.5078 *     0.2705 *     6.4912 *  0.0000     2          
   549  O     s      0.0000       4.7783 *     6.4912 *  0.0000     1          
   550  Cl    s      2.2539 *    -6.4912 *     4.2373 *  0.0000     2          
   551  O     s      0.0000      -4.2373 *    -7.0321 *  0.0000     1          
   552  Cl    s      6.7617 *    -1.9834 *     4.2373 *  0.0000     2          
   553  O     s      4.5078 *     0.2705 *    -7.0321 *  0.0000     2          
   554  Cl    s      2.2539 *    -6.4912 *    -4.7783 *  0.0000     2          
   555  Cl    s      6.7617 *     2.5244 *     4.2373 *  0.0000     2          
   556  O     s      0.0000       4.7783 *    -7.0321 *  0.0000     1          
   557  Cl    s      2.2539 *     7.0321 *     4.2373 *  0.0000     2          
   558  Cl    s      6.7617 *    -1.9834 *    -4.7783 *  0.0000     2          
   559  Cl    s      6.7617 *     2.5244 *    -4.7783 *  0.0000     2          
   560  Cl    s      2.2539 *     7.0321 *    -4.7783 *  0.0000     2          
   561  O     s     -4.5078 *    -4.2373 *     6.4912 *  0.0000     2          
   562  O     s      0.0000      -8.7451 *     1.9834 *  0.0000     1          
   563  O     s      0.0000      -8.7451 *    -2.5244 *  0.0000     1          
   564  O     s      4.5078 *     4.7783 *     6.4912 *  0.0000     2          
   565  O     s      9.0156 *     0.2705 *     1.9834 *  0.0000     2          
   566  Cl    s      2.2539 *    -1.9834 *     8.7451 *  0.0000     2          
   567  O     s     -4.5078 *    -4.2373 *    -7.0321 *  0.0000     2          
   568  O     s      9.0156 *     0.2705 *    -2.5244 *  0.0000     2          
   569  Cl    s      6.7617 *    -6.4912 *    -0.2705 *  0.0000     2          
   570  Cl    s      2.2539 *     2.5244 *     8.7451 *  0.0000     2          
   571  O     s      0.0000       9.2860 *     1.9834 *  0.0000     1          
   572  O     s      0.0000       9.2860 *    -2.5244 *  0.0000     1          
   573  O     s      4.5078 *     4.7783 *    -7.0321 *  0.0000     2          
   574  Cl    s      2.2539 *    -1.9834 *    -9.2860 *  0.0000     2          
   575  Cl    s      6.7617 *     7.0321 *    -0.2705 *  0.0000     2          
   576  Cl    s      2.2539 *     2.5244 *    -9.2860 *  0.0000     2          
   577  O     s     -4.5078 *    -8.7451 *     1.9834 *  0.0000     2          
   578  O     s      9.0156 *    -4.2373 *     1.9834 *  0.0000     2          
   579  O     s     -4.5078 *    -8.7451 *    -2.5244 *  0.0000     2          
   580  O     s      9.0156 *    -4.2373 *    -2.5244 *  0.0000     2          
   581  Cl    s      6.7617 *    -6.4912 *     4.2373 *  0.0000     2          
   582  O     s      9.0156 *     4.7783 *     1.9834 *  0.0000     2          
   583  O     s     -4.5078 *     9.2860 *     1.9834 *  0.0000     2          
   584  O     s      9.0156 *     4.7783 *    -2.5244 *  0.0000     2          
   585  Cl    s      6.7617 *    -6.4912 *    -4.7783 *  0.0000     2          
   586  O     s     -4.5078 *     9.2860 *    -2.5244 *  0.0000     2          
   587  Cl    s      6.7617 *     7.0321 *     4.2373 *  0.0000     2          
   588  Cl    s      6.7617 *     7.0321 *    -4.7783 *  0.0000     2          
   589  O     s      0.0000      -8.7451 *     6.4912 *  0.0000     1          
   590  O     s      0.0000       0.2705 *    10.9990 *  0.0000     1          
   591  O     s      9.0156 *     0.2705 *     6.4912 *  0.0000     2          
   592  Cl    s      2.2539 *    -6.4912 *     8.7451 *  0.0000     2          
   593  O     s      0.0000      -8.7451 *    -7.0321 *  0.0000     1          
   594  Cl    s      2.2539 *   -10.9990 *    -0.2705 *  0.0000     2          
   595  Cl    s      6.7617 *    -1.9834 *     8.7451 *  0.0000     2          
   596  O     s      0.0000       9.2860 *     6.4912 *  0.0000     1          
   597  Cl    s      6.7617 *     2.5244 *     8.7451 *  0.0000     2          
   598  O     s      9.0156 *     0.2705 *    -7.0321 *  0.0000     2          
   599  Cl    s     11.2695 *    -1.9834 *    -0.2705 *  0.0000     2          
   600  Cl    s      2.2539 *     7.0321 *     8.7451 *  0.0000     2          
   601  O     s      0.0000       0.2705 *   -11.5399 *  0.0000     1          
   602  Cl    s      2.2539 *    -6.4912 *    -9.2860 *  0.0000     2          
   603  Cl    s     11.2695 *     2.5244 *    -0.2705 *  0.0000     2          
   604  O     s      0.0000       9.2860 *    -7.0321 *  0.0000     1          
   605  Cl    s      6.7617 *    -1.9834 *    -9.2860 *  0.0000     2          
   606  Cl    s      6.7617 *     2.5244 *    -9.2860 *  0.0000     2          
   607  Cl    s      2.2539 *    11.5399 *    -0.2705 *  0.0000     2          
   608  O     s      0.0000      -4.2373 *    10.9990 *  0.0000     1          
   609  O     s     -4.5078 *    -8.7451 *     6.4912 *  0.0000     2          
   610  Cl    s      2.2539 *     7.0321 *    -9.2860 *  0.0000     2          
   611  O     s      4.5078 *     0.2705 *    10.9990 *  0.0000     2          
   612  O     s      9.0156 *    -4.2373 *     6.4912 *  0.0000     2          
   613  O     s      0.0000       4.7783 *    10.9990 *  0.0000     1          
   614  Cl    s      2.2539 *   -10.9990 *     4.2373 *  0.0000     2          
   615  O     s      9.0156 *     4.7783 *     6.4912 *  0.0000     2          
   616  O     s      4.5078 *    -8.7451 *    -7.0321 *  0.0000     2          
   617  O     s     -4.5078 *     9.2860 *     6.4912 *  0.0000     2          
   618  O     s      9.0156 *    -4.2373 *    -7.0321 *  0.0000     2          
   619  Cl    s      2.2539 *   -10.9990 *    -4.7783 *  0.0000     2          
   620  Cl    s     11.2695 *    -1.9834 *     4.2373 *  0.0000     2          
   621  O     s      0.0000      -4.2373 *   -11.5399 *  0.0000     1          
   622  Cl    s     11.2695 *     2.5244 *     4.2373 *  0.0000     2          
   623  O     s      4.5078 *     0.2705 *   -11.5399 *  0.0000     2          
   624  O     s      9.0156 *     4.7783 *    -7.0321 *  0.0000     2          
   625  Cl    s     11.2695 *    -1.9834 *    -4.7783 *  0.0000     2          
   626  O     s      0.0000       4.7783 *   -11.5399 *  0.0000     1          
   627  O     s      4.5078 *     9.2860 *    -7.0321 *  0.0000     2          
   628  Cl    s     11.2695 *     2.5244 *    -4.7783 *  0.0000     2          
   629  Cl    s      2.2539 *    11.5399 *     4.2373 *  0.0000     2          
   630  O     s      4.5078 *    -4.2373 *    10.9990 *  0.0000     2          
   631  Cl    s      2.2539 *    11.5399 *    -4.7783 *  0.0000     2          
   632  O     s      9.0156 *    -8.7451 *     1.9834 *  0.0000     2          
   633  O     s      4.5078 *     4.7783 *    10.9990 *  0.0000     2          
   634  O     s      9.0156 *    -8.7451 *    -2.5244 *  0.0000     2          
   635  Cl    s      6.7617 *    -6.4912 *     8.7451 *  0.0000     2          
   636  Cl    s      6.7617 *   -10.9990 *    -0.2705 *  0.0000     2          
   637  Cl    s     11.2695 *    -6.4912 *    -0.2705 *  0.0000     2          
   638  O     s      9.0156 *     9.2860 *     1.9834 *  0.0000     2          
   639  O     s      4.5078 *    -4.2373 *   -11.5399 *  0.0000     2          
   640  Cl    s      6.7617 *     7.0321 *     8.7451 *  0.0000     2          
   641  O     s      9.0156 *     9.2860 *    -2.5244 *  0.0000     2          
   642  Cl    s      6.7617 *    -6.4912 *    -9.2860 *  0.0000     2          
   643  O     s      4.5078 *     4.7783 *   -11.5399 *  0.0000     2          
   644  Cl    s     11.2695 *     7.0321 *    -0.2705 *  0.0000     2          
   645  Cl    s      6.7617 *    11.5399 *    -0.2705 *  0.0000     2          
   646  O     s      0.0000     -13.2529 *     1.9834 *  0.0000     1          
   647  Cl    s      6.7617 *     7.0321 *    -9.2860 *  0.0000     2          
   648  O     s      0.0000     -13.2529 *    -2.5244 *  0.0000     1          
   649  Cl    s      2.2539 *    -1.9834 *    13.2529 *  0.0000     2          
   650  Cl    s      6.7617 *   -10.9990 *     4.2373 *  0.0000     2          
   651  O     s     13.5234 *     0.2705 *     1.9834 *  0.0000     2          
   652  Cl    s      2.2539 *     2.5244 *    13.2529 *  0.0000     2          
   653  Cl    s     11.2695 *    -6.4912 *     4.2373 *  0.0000     2          
   654  O     s     13.5234 *     0.2705 *    -2.5244 *  0.0000     2          
   655  Cl    s      6.7617 *   -10.9990 *    -4.7783 *  0.0000     2          
   656  Cl    s     11.2695 *    -6.4912 *    -4.7783 *  0.0000     2          
   657  O     s      0.0000      13.7938 *     1.9834 *  0.0000     1          
   658  Cl    s     11.2695 *     7.0321 *     4.2373 *  0.0000     2          
   659  O     s      0.0000      13.7938 *    -2.5244 *  0.0000     1          
   660  Cl    s      6.7617 *    11.5399 *     4.2373 *  0.0000     2          
   661  O     s      0.0000      -8.7451 *    10.9990 *  0.0000     1          
   662  Cl    s      2.2539 *    -1.9834 *   -13.7938 *  0.0000     2          
   663  Cl    s     11.2695 *     7.0321 *    -4.7783 *  0.0000     2          
   664  O     s      4.5078 *   -13.2529 *     1.9834 *  0.0000     2          
   665  O     s      9.0156 *    -8.7451 *     6.4912 *  0.0000     2          
   666  Cl    s      2.2539 *     2.5244 *   -13.7938 *  0.0000     2          
   667  Cl    s      6.7617 *    11.5399 *    -4.7783 *  0.0000     2          
   668  O     s      9.0156 *     0.2705 *    10.9990 *  0.0000     2          
   669  O     s      4.5078 *   -13.2529 *    -2.5244 *  0.0000     2          
   670  Cl    s      2.2539 *   -10.9990 *     8.7451 *  0.0000     2          
   671  O     s     13.5234 *    -4.2373 *     1.9834 *  0.0000     2          
   672  O     s      0.0000       9.2860 *    10.9990 *  0.0000     1          
   673  O     s      9.0156 *    -8.7451 *    -7.0321 *  0.0000     2          
   674  O     s     13.5234 *    -4.2373 *    -2.5244 *  0.0000     2          
   675  Cl    s     11.2695 *    -1.9834 *     8.7451 *  0.0000     2          
   676  O     s      9.0156 *     9.2860 *     6.4912 *  0.0000     2          
   677  O     s      0.0000      -8.7451 *   -11.5399 *  0.0000     1          
   678  O     s     13.5234 *     4.7783 *     1.9834 *  0.0000     2          
   679  Cl    s     11.2695 *     2.5244 *     8.7451 *  0.0000     2          
   680  O     s     13.5234 *     4.7783 *    -2.5244 *  0.0000     2          
   681  Cl    s      2.2539 *   -10.9990 *    -9.2860 *  0.0000     2          
   682  O     s      4.5078 *    13.7938 *     1.9834 *  0.0000     2          
   683  O     s      9.0156 *     0.2705 *   -11.5399 *  0.0000     2          
   684  Cl    s      2.2539 *    11.5399 *     8.7451 *  0.0000     2          
   685  O     s      4.5078 *    13.7938 *    -2.5244 *  0.0000     2          
   686  O     s      9.0156 *     9.2860 *    -7.0321 *  0.0000     2          
   687  Cl    s     11.2695 *    -1.9834 *    -9.2860 *  0.0000     2          
   688  O     s      0.0000     -13.2529 *     6.4912 *  0.0000     1          
   689  O     s     -4.5078 *    -8.7451 *    10.9990 *  0.0000     2          
   690  O     s      0.0000       9.2860 *   -11.5399 *  0.0000     1          
   691  Cl    s     11.2695 *     2.5244 *    -9.2860 *  0.0000     2          
   692  O     s      9.0156 *    -4.2373 *    10.9990 *  0.0000     2          
   693  Cl    s      2.2539 *    -6.4912 *    13.2529 *  0.0000     2          
   694  Cl    s      2.2539 *    11.5399 *    -9.2860 *  0.0000     2          
   695  O     s      9.0156 *     4.7783 *    10.9990 *  0.0000     2          
   696  O     s      0.0000     -13.2529 *    -7.0321 *  0.0000     1          
   697  O     s     13.5234 *     0.2705 *     6.4912 *  0.0000     2          
   698  Cl    s      6.7617 *    -1.9834 *    13.2529 *  0.0000     2          
   699  O     s      4.5078 *     9.2860 *    10.9990 *  0.0000     2          
   700  Cl    s      6.7617 *     2.5244 *    13.2529 *  0.0000     2          
   701  O     s     -4.5078 *    -8.7451 *   -11.5399 *  0.0000     2          
   702  Cl    s      2.2539 *     7.0321 *    13.2529 *  0.0000     2          
   703  O     s      0.0000      13.7938 *     6.4912 *  0.0000     1          
   704  O     s      9.0156 *    -4.2373 *   -11.5399 *  0.0000     2          
   705  O     s     13.5234 *     0.2705 *    -7.0321 *  0.0000     2          
   706  O     s      9.0156 *     4.7783 *   -11.5399 *  0.0000     2          
   707  Cl    s      2.2539 *    -6.4912 *   -13.7938 *  0.0000     2          
   708  O     s      4.5078 *   -13.2529 *     6.4912 *  0.0000     2          
   709  O     s      0.0000      13.7938 *    -7.0321 *  0.0000     1          
   710  O     s      4.5078 *     9.2860 *   -11.5399 *  0.0000     2          
   711  Cl    s      6.7617 *    -1.9834 *   -13.7938 *  0.0000     2          
   712  O     s      0.0000       0.2705 *    15.5068 *  0.0000     1          
   713  Cl    s      6.7617 *     2.5244 *   -13.7938 *  0.0000     2          
   714  O     s     13.5234 *    -4.2373 *     6.4912 *  0.0000     2          
   715  Cl    s      6.7617 *   -10.9990 *     8.7451 *  0.0000     2          
   716  Cl    s      2.2539 *     7.0321 *   -13.7938 *  0.0000     2          
   717  O     s      4.5078 *   -13.2529 *    -7.0321 *  0.0000     2          
   718  Cl    s      2.2539 *   -15.5068 *    -0.2705 *  0.0000     2          
   719  Cl    s     11.2695 *    -6.4912 *     8.7451 *  0.0000     2          
   720  O     s     13.5234 *     4.7783 *     6.4912 *  0.0000     2          
   721  Cl    s     11.2695 *   -10.9990 *    -0.2705 *  0.0000     2          
   722  O     s     13.5234 *    -4.2373 *    -7.0321 *  0.0000     2          
   723  O     s      4.5078 *    13.7938 *     6.4912 *  0.0000     2          
   724  Cl    s      6.7617 *   -10.9990 *    -9.2860 *  0.0000     2          
   725  Cl    s     11.2695 *     7.0321 *     8.7451 *  0.0000     2          
   726  Cl    s    -15.7773 *    -1.9834 *    -0.2705 *  0.0000     2          
   727  O     s     13.5234 *     4.7783 *    -7.0321 *  0.0000     2          
   728  Cl    s     11.2695 *    -6.4912 *    -9.2860 *  0.0000     2          
   729  Cl    s    -15.7773 *     2.5244 *    -0.2705 *  0.0000     2          
   730  Cl    s      6.7617 *    11.5399 *     8.7451 *  0.0000     2          
--------------------------------------------------------------------------------

  Components of defect energy : 

--------------------------------------------------------------------------------
  Region 1 - region 1                   =     20.41565855 eV
  Region 1 - region 2a (unrelaxed)      =    -12.02372777 eV
  Region 1 - 2a (relaxed - correction)  =     -0.17935239 eV
  Region 1 (Total)                      =      8.21257839 eV
  Region 2a                             =      0.08965370 eV
  Region 2b                             =     -0.34800658 eV
--------------------------------------------------------------------------------
  Total defect energy                   =      7.95422551 eV
--------------------------------------------------------------------------------

  Largest displacement in region 2 =   0.0153 Angstroms


  Number of variables =     2033

  Maximum number of calculations  =        1000
  Maximum Hessian update interval =          10
  Maximum step size               =   1.0000000
  Maximum parameter tolerance     =   0.0000100
  Maximum function  tolerance     =   0.0000100
  Maximum gradient  tolerance     =   0.0010000

  Symmetry adapted optimisation

  Symmetry to be used for second derivatives

  Newton-Raphson optimiser to be used

  BFGS hessian update to be used

  Lower half triangular hessian to be used

  Start of defect optimisation :

  Cycle:      0 Defect Energy:   7.954226  Gnorm:     0.008354  CPU:   15.328
  ** Hessian calculated **
  Cycle:      1 Defect Energy:   6.175550  Gnorm:     0.003211  CPU:   39.902
  Cycle:      2 Defect Energy:   5.601982  Gnorm:     0.002668  CPU:   64.778
  Cycle:      3 Defect Energy:   5.478117  Gnorm:     0.001506  CPU:   84.310
  Cycle:      4 Defect Energy:   5.430239  Gnorm:     0.001473  CPU:   89.409
  Cycle:      5 Defect Energy:   5.365132  Gnorm:     0.001299  CPU:   94.463
  Cycle:      6 Defect Energy:   5.277522  Gnorm:     0.001089  CPU:   99.207
  Cycle:      7 Defect Energy:   5.168499  Gnorm:     0.001066  CPU:  103.661
  Cycle:      8 Defect Energy:   5.075770  Gnorm:     0.000926  CPU:  107.752
  Cycle:      9 Defect Energy:   5.000233  Gnorm:     0.001001  CPU:  112.201
  Cycle:     10 Defect Energy:   4.922756  Gnorm:     0.001081  CPU:  116.279
  ** Hessian calculated **
  Cycle:     11 Defect Energy:   4.882457  Gnorm:     0.000892  CPU:  135.771
  Cycle:     12 Defect Energy:   4.834840  Gnorm:     0.000838  CPU:  140.553
  Cycle:     13 Defect Energy:   4.774878  Gnorm:     0.000829  CPU:  145.176
  Cycle:     14 Defect Energy:   4.700258  Gnorm:     0.000816  CPU:  149.567
  Cycle:     15 Defect Energy:   4.612478  Gnorm:     0.000842  CPU:  155.606
  Cycle:     16 Defect Energy:   4.548000  Gnorm:     0.000843  CPU:  162.392
  Cycle:     17 Defect Energy:   4.504557  Gnorm:     0.000866  CPU:  167.719
  Cycle:     18 Defect Energy:   4.464702  Gnorm:     0.000867  CPU:  172.890
  Cycle:     19 Defect Energy:   4.424316  Gnorm:     0.000865  CPU:  177.947
  Cycle:     20 Defect Energy:   4.381556  Gnorm:     0.000861  CPU:  182.457
  ** Hessian calculated **
  Cycle:     21 Defect Energy:   4.365604  Gnorm:     0.000821  CPU:  202.596
  Cycle:     22 Defect Energy:   4.344721  Gnorm:     0.000802  CPU:  207.967
  Cycle:     23 Defect Energy:   4.317435  Gnorm:     0.000781  CPU:  212.868
  Cycle:     24 Defect Energy:   4.285582  Gnorm:     0.000765  CPU:  217.397
  Cycle:     25 Defect Energy:   4.257199  Gnorm:     0.000738  CPU:  221.847
  Cycle:     26 Defect Energy:   4.226512  Gnorm:     0.000743  CPU:  229.562
  Cycle:     27 Defect Energy:   4.183961  Gnorm:     0.000770  CPU:  235.355
  Cycle:     28 Defect Energy:   4.124745  Gnorm:     0.000836  CPU:  240.817
  Cycle:     29 Defect Energy:   4.052659  Gnorm:     0.000918  CPU:  245.905
  Cycle:     30 Defect Energy:   4.000430  Gnorm:     0.001000  CPU:  250.528
  ** Hessian calculated **
  Cycle:     31 Defect Energy:   3.942176  Gnorm:     0.000909  CPU:  270.317
  Cycle:     32 Defect Energy:   3.868046  Gnorm:     0.000876  CPU:  275.479
  Cycle:     33 Defect Energy:   3.773509  Gnorm:     0.000830  CPU:  280.435
  Cycle:     34 Defect Energy:   3.663401  Gnorm:     0.000805  CPU:  285.029
  Cycle:     35 Defect Energy:   3.574824  Gnorm:     0.000798  CPU:  289.420
  Cycle:     36 Defect Energy:   3.500877  Gnorm:     0.000822  CPU:  293.645
  Cycle:     37 Defect Energy:   3.439167  Gnorm:     0.000878  CPU:  302.242
  Cycle:     38 Defect Energy:   3.382931  Gnorm:     0.000901  CPU:  307.879
  Cycle:     39 Defect Energy:   3.330942  Gnorm:     0.000927  CPU:  312.738
  Cycle:     40 Defect Energy:   3.278481  Gnorm:     0.000953  CPU:  317.349
  ** Hessian calculated **
  Cycle:     41 Defect Energy:   3.254497  Gnorm:     0.000911  CPU:  336.979
  Cycle:     42 Defect Energy:   3.222840  Gnorm:     0.000892  CPU:  341.788
  Cycle:     43 Defect Energy:   3.181876  Gnorm:     0.000858  CPU:  346.667
  Cycle:     44 Defect Energy:   3.138268  Gnorm:     0.000821  CPU:  351.085
  Cycle:     45 Defect Energy:   3.108016  Gnorm:     0.000799  CPU:  355.569
  Cycle:     46 Defect Energy:   3.082196  Gnorm:     0.000793  CPU:  360.122
  Cycle:     47 Defect Energy:   3.058260  Gnorm:     0.000792  CPU:  362.977
  Cycle:     48 Defect Energy:   3.036163  Gnorm:     0.000781  CPU:  367.189
  Cycle:     49 Defect Energy:   3.014900  Gnorm:     0.000786  CPU:  371.148
  Cycle:     50 Defect Energy:   2.993727  Gnorm:     0.000780  CPU:  375.383
  ** Hessian calculated **
  Cycle:     51 Defect Energy:   2.986347  Gnorm:     0.000762  CPU:  395.026
  Cycle:     52 Defect Energy:   2.976521  Gnorm:     0.000759  CPU:  399.760
  Cycle:     53 Defect Energy:   2.962731  Gnorm:     0.000743  CPU:  404.054
  Cycle:     54 Defect Energy:   2.946862  Gnorm:     0.000733  CPU:  408.674
  Cycle:     55 Defect Energy:   2.934968  Gnorm:     0.000723  CPU:  412.733
  Cycle:     56 Defect Energy:   2.924639  Gnorm:     0.000716  CPU:  421.533
  Cycle:     57 Defect Energy:   2.915202  Gnorm:     0.000712  CPU:  426.608
  Cycle:     58 Defect Energy:   2.904949  Gnorm:     0.000699  CPU:  431.241
  Cycle:     59 Defect Energy:   2.892210  Gnorm:     0.000695  CPU:  436.012
  Cycle:     60 Defect Energy:   2.876347  Gnorm:     0.000674  CPU:  440.582
  ** Hessian calculated **
  Cycle:     61 Defect Energy:   2.841728  Gnorm:     0.000630  CPU:  460.063
  Cycle:     62 Defect Energy:   2.769877  Gnorm:     0.000512  CPU:  465.374
  Cycle:     63 Defect Energy:   2.701223  Gnorm:     0.000339  CPU:  470.430
  Cycle:     64 Defect Energy:   2.672879  Gnorm:     0.000255  CPU:  475.180
  Cycle:     65 Defect Energy:   2.651498  Gnorm:     0.000127  CPU:  479.876
  Cycle:     66 Defect Energy:   2.647776  Gnorm:     0.000088  CPU:  484.418
  Cycle:     67 Defect Energy:   2.646753  Gnorm:     0.000068  CPU:  488.523
  ** Hessian calculated **
  Cycle:     68 Defect Energy:   2.646684  Gnorm:     0.000063  CPU:  508.383
  Cycle:     69 Defect Energy:   2.646595  Gnorm:     0.000061  CPU:  513.655
  Cycle:     70 Defect Energy:   2.646504  Gnorm:     0.000060  CPU:  518.201
  Cycle:     71 Defect Energy:   2.646400  Gnorm:     0.000058  CPU:  522.618
  Cycle:     72 Defect Energy:   2.646350  Gnorm:     0.000056  CPU:  526.891
  Cycle:     73 Defect Energy:   2.646304  Gnorm:     0.000055  CPU:  535.366
  Cycle:     74 Defect Energy:   2.646267  Gnorm:     0.000055  CPU:  540.846
  Cycle:     75 Defect Energy:   2.646225  Gnorm:     0.000054  CPU:  545.929
  Cycle:     76 Defect Energy:   2.646178  Gnorm:     0.000052  CPU:  550.484
  Cycle:     77 Defect Energy:   2.646127  Gnorm:     0.000051  CPU:  554.944
  ** Hessian calculated **
  Cycle:     78 Defect Energy:   2.646106  Gnorm:     0.000050  CPU:  575.746
  Cycle:     79 Defect Energy:   2.646081  Gnorm:     0.000050  CPU:  580.541
  Cycle:     80 Defect Energy:   2.646041  Gnorm:     0.000050  CPU:  585.223
  Cycle:     81 Defect Energy:   2.645995  Gnorm:     0.000049  CPU:  589.792
  Cycle:     82 Defect Energy:   2.645941  Gnorm:     0.000049  CPU:  597.698
  Cycle:     83 Defect Energy:   2.645902  Gnorm:     0.000048  CPU:  603.264
  Cycle:     84 Defect Energy:   2.645869  Gnorm:     0.000048  CPU:  608.088
  Cycle:     85 Defect Energy:   2.645825  Gnorm:     0.000047  CPU:  612.810
  Cycle:     86 Defect Energy:   2.645788  Gnorm:     0.000047  CPU:  617.417
  Cycle:     87 Defect Energy:   2.645733  Gnorm:     0.000045  CPU:  622.003
  ** Hessian calculated **
  Cycle:     88 Defect Energy:   2.645720  Gnorm:     0.000045  CPU:  642.047
  Cycle:     89 Defect Energy:   2.645695  Gnorm:     0.000044  CPU:  646.857
  Cycle:     90 Defect Energy:   2.645671  Gnorm:     0.000043  CPU:  651.470
  Cycle:     91 Defect Energy:   2.645630  Gnorm:     0.000042  CPU:  655.837
  Cycle:     92 Defect Energy:   2.645613  Gnorm:     0.000041  CPU:  663.476
  Cycle:     93 Defect Energy:   2.645592  Gnorm:     0.000040  CPU:  668.713
  Cycle:     94 Defect Energy:   2.645582  Gnorm:     0.000040  CPU:  673.463
  Cycle:     95 Defect Energy:   2.645560  Gnorm:     0.000039  CPU:  678.316
  Cycle:     96 Defect Energy:   2.645547  Gnorm:     0.000038  CPU:  683.174
  Cycle:     97 Defect Energy:   2.645519  Gnorm:     0.000037  CPU:  687.739
  ** Hessian calculated **
  Cycle:     98 Defect Energy:   2.645508  Gnorm:     0.000037  CPU:  708.005
  Cycle:     99 Defect Energy:   2.645494  Gnorm:     0.000037  CPU:  712.981
  Cycle:    100 Defect Energy:   2.645473  Gnorm:     0.000036  CPU:  717.661
  Cycle:    101 Defect Energy:   2.645445  Gnorm:     0.000036  CPU:  722.345
  Cycle:    102 Defect Energy:   2.645420  Gnorm:     0.000036  CPU:  726.790
  Cycle:    103 Defect Energy:   2.645393  Gnorm:     0.000036  CPU:  735.046
  Cycle:    104 Defect Energy:   2.645383  Gnorm:     0.000036  CPU:  740.489
  Cycle:    105 Defect Energy:   2.645357  Gnorm:     0.000035  CPU:  745.346
  Cycle:    106 Defect Energy:   2.645340  Gnorm:     0.000035  CPU:  749.932
  Cycle:    107 Defect Energy:   2.645306  Gnorm:     0.000034  CPU:  754.352
  ** Hessian calculated **
  Cycle:    108 Defect Energy:   2.645301  Gnorm:     0.000034  CPU:  773.958
  Cycle:    109 Defect Energy:   2.645288  Gnorm:     0.000034  CPU:  778.874
  Cycle:    110 Defect Energy:   2.645276  Gnorm:     0.000033  CPU:  783.881
  Cycle:    111 Defect Energy:   2.645254  Gnorm:     0.000032  CPU:  788.516
  Cycle:    112 Defect Energy:   2.645245  Gnorm:     0.000032  CPU:  792.809
  Cycle:    113 Defect Energy:   2.645230  Gnorm:     0.000031  CPU:  800.886
  Cycle:    114 Defect Energy:   2.645225  Gnorm:     0.000031  CPU:  806.008
  Cycle:    115 Defect Energy:   2.645213  Gnorm:     0.000030  CPU:  811.063
  Cycle:    116 Defect Energy:   2.645204  Gnorm:     0.000030  CPU:  816.030
  Cycle:    117 Defect Energy:   2.645181  Gnorm:     0.000029  CPU:  820.593
