********************************************************************************
*                       GENERAL UTILITY LATTICE PROGRAM                        *
*                                 Julian Gale                                  *
*                       Curtin Institute for Computation                       *
*                    School of Molecular and Life Sciences                     *
*                    Curtin University, Western Australia                      *
********************************************************************************
* Version = 5.2.0 * Last modified =  10th September 2020                       *
********************************************************************************
*  optimise     - perform optimisation run                                     *
*  conp         - constant pressure calculation                                *
*  property     - calculate properties for final geometry                      *
*  defect       - perform defect calculation after bulk run                    *
*  compare      - compare initial and final structures                         *
********************************************************************************

  Job Started  at 21:46.14 30th November   2020                               

  Number of CPUs =     1


  Total number of configurations input =      1

********************************************************************************
*  Input for Configuration =   1                                               *
********************************************************************************

  Formula = ClONa3                                                      

  Number of irreducible atoms/shells =       5


  Total number atoms/shells =       7

  Dimensionality = 3               :  Bulk   


  Symmetry :

  Crystal family                   :  Cubic       
  Crystal class  (Groth - 1921)    :  Cubic Hexakisoctahedral              

  Space group (centrosymmetric)    :  P M 3 M         

  Patterson group                  :  P m -3 m 

  Cartesian lattice vectors (Angstroms) :

        4.504000    0.000000    0.000000
        0.000000    4.504000    0.000000
        0.000000    0.000000    4.504000

  Cell parameters (Angstroms/Degrees):

  a =       4.5040    alpha =  90.0000
  b =       4.5040    beta  =  90.0000
  c =       4.5040    gamma =  90.0000

  Initial cell volume =          91.368216 Angs**3

  Temperature of configuration =   0.00     K 

  Pressure of configuration =         0.000 GPa 

  Fractional coordinates of asymmetric unit :

--------------------------------------------------------------------------------
   No.  Atomic       x           y          z         Charge      Occupancy
        Label      (Frac)      (Frac)     (Frac)        (e)         (Frac)  
--------------------------------------------------------------------------------
      1 Cl    c    0.000000    0.000000    0.000000     1.48500    1.000000    
      2 O     c    0.500000    0.500000    0.500000     0.18300    1.000000    
      3 Na    c    0.500000    0.500000    0.000000     1.00000    1.000000    
      4 Cl    s    0.000000    0.000000    0.000000    -2.48500    1.000000    
      5 O     s    0.500000    0.500000    0.500000    -2.18300    1.000000    
--------------------------------------------------------------------------------


  Constraints : 

--------------------------------------------------------------------------------
  Constraint no.      Unconstrained     Constrained    Coefficient    Offset
                         Variable         Variable
--------------------------------------------------------------------------------
           1              Strain 1        Strain 2       1.00000      0.0000
           2              Strain 1        Strain 3       1.00000      0.0000
--------------------------------------------------------------------------------


********************************************************************************
*  General input information                                                   *
********************************************************************************

  Species output for all configurations : 

--------------------------------------------------------------------------------
  Species    Type    Atomic    Atomic    Charge       Radii (Angs)     Library
                     Number     Mass       (e)     Cova   Ionic  VDW   Symbol
--------------------------------------------------------------------------------
    Na       Core       11      22.99   1.000000   0.970  0.000  2.300          
    O        Core        8      16.00   0.183000   0.730  0.000  1.360          
    O        Shell       8       0.00  -2.183000   0.730  0.000  1.360          
    Cl       Core       17      35.45   1.485000   0.990  0.000  1.650          
    Cl       Shell      17       0.00  -2.485000   0.990  0.000  1.650          
    Mg       Core       12      24.31   0.415000   1.100  0.000  0.000          
    Mg       Shell      12       0.00   1.585000   1.100  0.000  0.000          
    Ca       Core       20      40.08  -1.135000   0.990  0.000  0.000          
    Ca       Shell      20       0.00   3.135000   0.990  0.000  0.000          
    Sr       Core       38      87.62  -1.251000   1.120  0.000  0.000          
    Sr       Shell      38       0.00   3.251000   1.120  0.000  0.000          
    Ba       Core       56     137.33  -7.203000   1.340  0.000  0.000          
    Ba       Shell      56       0.00   9.203000   1.340  0.000  0.000          
--------------------------------------------------------------------------------


  Lattice summation method               =    Ewald          (3-D)
                                         =    Parry          (2-D)
                                         =    Saunders et al (1-D)
  Accuracy factor for lattice sums       =   12.000


  Analytic derivatives to be used

  Time limit = Infinity

  Maximum range for interatomic potentials =    100000.000000 Angstroms

  General interatomic potentials :

--------------------------------------------------------------------------------
Atom  Types   Potential      Parameter       Value         Units   Cutoffs(Ang)
  1     2                                                            Min /  Max 
--------------------------------------------------------------------------------
O    c O    s Spring (c-s)  Spring k 2       593.71600    eV*Ang^-2 0.000  0.800
                            Spring k 4       0.0000000    eV*Ang^-4 
--------------------------------------------------------------------------------
Cl   c Cl   s Spring (c-s)  Spring k 2       29.380000    eV*Ang^-2 0.000  0.800
                            Spring k 4       0.0000000    eV*Ang^-4 
--------------------------------------------------------------------------------
Mg   c Mg   s Spring (c-s)  Spring k 2       361.60000    eV*Ang^-2 0.000  0.800
                            Spring k 4       0.0000000    eV*Ang^-4 
--------------------------------------------------------------------------------
Ca   c Ca   s Spring (c-s)  Spring k 2       110.20000    eV*Ang^-2 0.000  0.800
                            Spring k 4       0.0000000    eV*Ang^-4 
--------------------------------------------------------------------------------
Sr   c Sr   s Spring (c-s)  Spring k 2       71.700000    eV*Ang^-2 0.000  0.800
                            Spring k 4       0.0000000    eV*Ang^-4 
--------------------------------------------------------------------------------
Ba   c Ba   s Spring (c-s)  Spring k 2       495.20000    eV*Ang^-2 0.000  0.800
                            Spring k 4       0.0000000    eV*Ang^-4 
--------------------------------------------------------------------------------
Na   c Na   c Buckingham    Buckingham A     1788.1900    eV        0.000 12.000
                            Buckingham rho  0.15900000    Ang       
                            Buckingham C     0.0000000    eV*Ang^6  
--------------------------------------------------------------------------------
Na   c O    s Buckingham    Buckingham A     1226.8400    eV        0.000 12.000
                            Buckingham rho  0.30700000    Ang       
                            Buckingham C     0.0000000    eV*Ang^6  
--------------------------------------------------------------------------------
Na   c Cl   s Buckingham    Buckingham A     2314.7000    eV        0.000 12.000
                            Buckingham rho  0.29000000    Ang       
                            Buckingham C     0.0000000    eV*Ang^6  
--------------------------------------------------------------------------------
O    s O    s Buckingham    Buckingham A     22764.300    eV        0.000 12.000
                            Buckingham rho  0.14900000    Ang       
                            Buckingham C     13.190000    eV*Ang^6  
--------------------------------------------------------------------------------
O    s Cl   s Buckingham    Buckingham A     8286.9100    eV        0.000 12.000
                            Buckingham rho  0.25900000    Ang       
                            Buckingham C     62.200000    eV*Ang^6  
--------------------------------------------------------------------------------
Cl   s Cl   s Buckingham    Buckingham A     1227.2000    eV        0.000 12.000
                            Buckingham rho  0.32100000    Ang       
                            Buckingham C     14.530000    eV*Ang^6  
--------------------------------------------------------------------------------
O    s Mg   s Buckingham    Buckingham A     1428.5000    eV        0.000 12.000
                            Buckingham rho  0.29450000    Ang       
                            Buckingham C     0.0000000    eV*Ang^6  
--------------------------------------------------------------------------------
Mg   s Cl   s Buckingham    Buckingham A     4914.5400    eV        0.000 12.000
                            Buckingham rho  0.25700000    Ang       
                            Buckingham C     0.0000000    eV*Ang^6  
--------------------------------------------------------------------------------
O    s Ca   s Buckingham    Buckingham A     1090.4000    eV        0.000 12.000
                            Buckingham rho  0.34370000    Ang       
                            Buckingham C     0.0000000    eV*Ang^6  
--------------------------------------------------------------------------------
Cl   s Ca   s Buckingham    Buckingham A     2302.0000    eV        0.000 12.000
                            Buckingham rho  0.34020000    Ang       
                            Buckingham C     0.0000000    eV*Ang^6  
--------------------------------------------------------------------------------
O    s Sr   s Buckingham    Buckingham A     959.10000    eV        0.000 12.000
                            Buckingham rho  0.37210000    Ang       
                            Buckingham C     0.0000000    eV*Ang^6  
--------------------------------------------------------------------------------
Cl   s Sr   s Buckingham    Buckingham A     2191.0900    eV        0.000 12.000
                            Buckingham rho  0.34570000    Ang       
                            Buckingham C     0.0000000    eV*Ang^6  
--------------------------------------------------------------------------------
O    s Ba   s Buckingham    Buckingham A     905.70000    eV        0.000 12.000
                            Buckingham rho  0.39760000    Ang       
                            Buckingham C     0.0000000    eV*Ang^6  
--------------------------------------------------------------------------------
Cl   s Ba   s Buckingham    Buckingham A     2704.5500    eV        0.000 12.000
                            Buckingham rho  0.35280000    Ang       
                            Buckingham C     0.0000000    eV*Ang^6  
--------------------------------------------------------------------------------

********************************************************************************
*  Output for configuration   1                                                *
********************************************************************************


  Components of energy : 

--------------------------------------------------------------------------------
  Interatomic potentials     =           5.13022605 eV    
  Monopole - monopole (real) =         -10.03624526 eV    
  Monopole - monopole (recip)=         -29.53581274 eV    
  Monopole - monopole (total)=         -39.57205800 eV    
--------------------------------------------------------------------------------
  Total lattice energy       =         -34.44183194 eV    
--------------------------------------------------------------------------------
  Total lattice energy       =           -3323.1103 kJ/(mole unit cells)
--------------------------------------------------------------------------------


  Number of variables =        1

  Maximum number of calculations  =          1000
  Maximum Hessian update interval =            10
  Maximum step size               =   1.000000000
  Maximum parameter tolerance     =   0.000010000
  Maximum function  tolerance     =   0.000010000
  Maximum gradient  tolerance     =   0.001000000
  Maximum gradient  component     =   0.010000000

  Symmetry constrained optimisation

  Symmetry used for second derivatives

  Cell parameters to be optimised using strains

  Newton-Raphson optimiser to be used

  BFGS hessian update to be used

  Lower half triangular hessian to be used

  Start of bulk optimisation :

  Cycle:      0 Energy:       -34.441832  Gnorm:      0.196570  CPU:    0.015
  ** Hessian calculated **
  Cycle:      1 Energy:       -34.441914  Gnorm:      0.000103  CPU:    0.018


  **** Optimisation achieved ****


  Final energy =     -34.44191447 eV
  Final Gnorm  =       0.00000000

  Components of energy : 

--------------------------------------------------------------------------------
  Interatomic potentials     =           5.09689708 eV    
  Monopole - monopole (real) =         -10.02781331 eV    
  Monopole - monopole (recip)=         -29.51099824 eV    
  Monopole - monopole (total)=         -39.53881155 eV    
--------------------------------------------------------------------------------
  Total lattice energy       =         -34.44191447 eV    
--------------------------------------------------------------------------------
  Total lattice energy       =           -3323.1183 kJ/(mole unit cells)
--------------------------------------------------------------------------------

  Final asymmetric unit coordinates :

--------------------------------------------------------------------------------
   No.  Atomic        x           y           z         Radius
        Label       (Frac)      (Frac)      (Frac)       (Angs) 
--------------------------------------------------------------------------------
     1  Cl    c     0.000000    0.000000    0.000000    0.000000
     2  O     c     0.500000    0.500000    0.500000    0.000000
     3  Na    c     0.500000    0.500000    0.000000    0.000000
     4  Cl    s     0.000000    0.000000    0.000000    0.000000
     5  O     s     0.500000    0.500000    0.500000    0.000000
--------------------------------------------------------------------------------

  Final Cartesian lattice vectors (Angstroms) :

        4.507787    0.000000    0.000000
        0.000000    4.507787    0.000000
        0.000000    0.000000    4.507787


  Final cell parameters and derivatives :

--------------------------------------------------------------------------------
       a            4.507787 Angstrom     dE/de1(xx)     0.000000 eV/strain
       b            4.507787 Angstrom     dE/de2(yy)     0.000000 eV/strain
       c            4.507787 Angstrom     dE/de3(zz)     0.000000 eV/strain
       alpha       90.000000 Degrees      dE/de4(yz)     0.000000 eV/strain
       beta        90.000000 Degrees      dE/de5(xz)     0.000000 eV/strain
       gamma       90.000000 Degrees      dE/de6(xy)     0.000000 eV/strain
--------------------------------------------------------------------------------

  Primitive cell volume =            91.598892 Angs**3

  Density of cell =      2.183054 g/cm**3

  Non-primitive cell volume =            91.598892 Angs**3


  Final internal derivatives :

--------------------------------------------------------------------------------
   No.  Atomic          a             b             c           Radius
        Label          (eV)          (eV)          (eV)        (eV/Angs)
--------------------------------------------------------------------------------
      1 Cl    c       0.000000      0.000000      0.000000      0.000000
      2 O     c       0.000000      0.000000      0.000000      0.000000
      3 Na    c       0.000000      0.000000      0.000000      0.000000
      4 Cl    s       0.000000      0.000000      0.000000      0.000000
      5 O     s       0.000000      0.000000      0.000000      0.000000
--------------------------------------------------------------------------------
  Maximum abs         0.000000      0.000000      0.000000      0.000000
--------------------------------------------------------------------------------

  Comparison of initial and final structures : 

--------------------------------------------------------------------------------
  Parameter   Initial value   Final value   Difference    Units      Percent
--------------------------------------------------------------------------------
    Volume        91.368216     91.598892     0.230676    Angs**3      0.25
    a              4.504000      4.507787     0.003787    Angstroms    0.08
    b              4.504000      4.507787     0.003787    Angstroms    0.08
    c              4.504000      4.507787     0.003787    Angstroms    0.08
    alpha         90.000000     90.000000     0.000000    Degrees      0.00
    beta          90.000000     90.000000     0.000000    Degrees      0.00
    gamma         90.000000     90.000000     0.000000    Degrees      0.00
      1 x          0.000000      0.000000     0.000000    Fractional   0.00
      1 y          0.000000      0.000000     0.000000    Fractional   0.00
      1 z          0.000000      0.000000     0.000000    Fractional   0.00
      2 x          0.500000      0.500000     0.000000    Fractional   0.00
      2 y          0.500000      0.500000     0.000000    Fractional   0.00
      2 z          0.500000      0.500000     0.000000    Fractional   0.00
      3 x          0.500000      0.500000     0.000000    Fractional   0.00
      3 y          0.500000      0.500000     0.000000    Fractional   0.00
      3 z          0.000000      0.000000     0.000000    Fractional   0.00
      4 x          0.000000      0.000000     0.000000    Fractional   0.00
      4 y          0.000000      0.000000     0.000000    Fractional   0.00
      4 z          0.000000      0.000000     0.000000    Fractional   0.00
      5 x          0.500000      0.500000     0.000000    Fractional   0.00
      5 y          0.500000      0.500000     0.000000    Fractional   0.00
      5 z          0.500000      0.500000     0.000000    Fractional   0.00
--------------------------------------------------------------------------------


  Born effective charge tensors : 

-------------------------------------------------------------------------------
  Atom             x           y             z
-------------------------------------------------------------------------------
    1 Cl    x      -1.0181     -0.0000      0.0000
            y      -0.0000     -1.0181      0.0000
            z       0.0000      0.0000     -1.0181
-------------------------------------------------------------------------------
    2 O     x      -2.2647      0.0000     -0.0000
            y       0.0000     -2.2647     -0.0000
            z      -0.0000     -0.0000     -2.2647
-------------------------------------------------------------------------------
    3 Na    x       1.2258     -0.0000      0.0000
            y      -0.0000      1.2258     -0.0000
            z       0.0000     -0.0000      0.8313
-------------------------------------------------------------------------------




  Elastic Constant Matrix: (Units=GPa)

-------------------------------------------------------------------------------
  Indices      1         2         3         4         5         6    
-------------------------------------------------------------------------------
       1     95.8177   20.0737   20.0737   -0.0000   -0.0000    0.0000
       2     20.0737   95.8177   20.0737   -0.0000   -0.0000    0.0000
       3     20.0737   20.0737   95.8177   -0.0000   -0.0000    0.0000
       4     -0.0000   -0.0000   -0.0000   20.0737   -0.0000    0.0000
       5     -0.0000   -0.0000   -0.0000   -0.0000   20.0737    0.0000
       6      0.0000    0.0000    0.0000    0.0000    0.0000   20.0737
-------------------------------------------------------------------------------


  Elastic Compliance Matrix: (Units=1/GPa)

-------------------------------------------------------------------------------
  Indices      1         2         3         4         5         6    
-------------------------------------------------------------------------------
       1    0.011253 -0.001949 -0.001949  0.000000  0.000000 -0.000000
       2   -0.001949  0.011253 -0.001949  0.000000  0.000000  0.000000
       3   -0.001949 -0.001949  0.011253  0.000000  0.000000 -0.000000
       4    0.000000  0.000000  0.000000  0.049816  0.000000 -0.000000
       5    0.000000  0.000000  0.000000  0.000000  0.049816 -0.000000
       6   -0.000000  0.000000 -0.000000 -0.000000 -0.000000  0.049816
-------------------------------------------------------------------------------

  Mechanical properties :

-------------------------------------------------------------------------------
  Convention :                    Reuss         Voigt         Hill
-------------------------------------------------------------------------------
  Bulk  Modulus (GPa)     =      45.32174      45.32174      45.32174
  Shear Modulus (GPa)     =      24.72085      27.19304      25.95695
-------------------------------------------------------------------------------
  Velocity S-wave (km/s)  =       3.36511       3.52937       3.44822
  Velocity P-wave (km/s)  =       5.98827       6.11304       6.05098
-------------------------------------------------------------------------------
  Compressibility (1/GPa) =    0.02206447
-------------------------------------------------------------------------------
  Stress axis :                     x             y             z
-------------------------------------------------------------------------------
  Youngs Moduli (GPa)     =      88.86373      88.86373      88.86373
-------------------------------------------------------------------------------
  Poissons Ratio (x)      =                     0.17321       0.17321
  Poissons Ratio (y)      =       0.17321                     0.17321
  Poissons Ratio (z)      =       0.17321       0.17321
-------------------------------------------------------------------------------


  Piezoelectric Strain Matrix: (Units=C/m**2)

-------------------------------------------------------------------------------
  Indices      1         2         3         4         5         6    
-------------------------------------------------------------------------------
       x    -0.00000  -0.00000  -0.00000   0.00000  -0.00000  -0.00000
       y    -0.00000  -0.00000   0.00000  -0.00000   0.00000   0.00000
       z    -0.00000  -0.00000  -0.00000  -0.00000   0.00000   0.00000
-------------------------------------------------------------------------------


  Piezoelectric Stress Matrix: (Units=10**-11 C/N)

-------------------------------------------------------------------------------
  Indices      1         2         3         4         5         6    
-------------------------------------------------------------------------------
       x    -0.00000   0.00000   0.00000   0.00000  -0.00000  -0.00000
       y    -0.00000  -0.00000   0.00000  -0.00000   0.00000   0.00000
       z     0.00000   0.00000  -0.00000  -0.00000   0.00000   0.00000
-------------------------------------------------------------------------------


  Static dielectric constant tensor : 

-------------------------------------------------------------------------------
              x         y         z
-------------------------------------------------------------------------------
       x    22.84729   0.00000   0.00000
       y     0.00000  22.84729  -0.00000
       z     0.00000  -0.00000  22.84729
--------------------------------------------------------------------------------

  High frequency dielectric constant tensor : 

-------------------------------------------------------------------------------
              x         y         z
-------------------------------------------------------------------------------
       x     1.47557   0.00000  -0.00000
       y     0.00000   1.47557  -0.00000
       z    -0.00000  -0.00000   1.47557
-------------------------------------------------------------------------------

  Static refractive indices : 

-------------------------------------------------------------------------------
    1 =    4.77988      2 =    4.77988      3 =    4.77988
-------------------------------------------------------------------------------

  High frequency refractive indices : 

-------------------------------------------------------------------------------
    1 =    1.21473      2 =    1.21473      3 =    1.21473
-------------------------------------------------------------------------------


  Time to end of optimisation =       0.0272 seconds

********************************************************************************
*  Defect calculation for configuration   1 :                                  *
********************************************************************************

  Total number of defects =      3

  Total charge on defect  =  -1.00

  Defect centre is at   0.5000   0.4600   0.0400  Frac

  Region 1 radius =  16.0000      Number of ions =   1309

  Number of symmetry inequivalent region 1 ions  =    732

  Region 2 radius =  20.0000      Number of ions =   1255

  Number of symmetry inequivalent region 2a ions =    671

  Region 2a mode = 4 : screened electrostatics due to region 1 
                       neglect correction to region 1 forces from 2a
                       region 2a displacements based on defects only

  Region 2a ions will only interact with defects in region 1

  Vacancies:

--------------------------------------------------------------------------------
    Specification type     Symbol/Number         x          y          z
--------------------------------------------------------------------------------
    Fractional                               0.500000   0.500000   0.000000
    Fractional                               0.500000   0.000000   0.500000
--------------------------------------------------------------------------------

  Interstitials:

--------------------------------------------------------------------------------
    Specification type     Symbol/Number         x          y          z
--------------------------------------------------------------------------------
    Atom/Fractional         Na               0.500000   0.460000   0.040000
--------------------------------------------------------------------------------


  Symmetry reduced region 1 (Relative to defect centre) :

--------------------------------------------------------------------------------
   No.   Atomic       x            y             z       Radius  Multiplicity   
         Label      (Angs)       (Angs)        (Angs)    (Angs)     
--------------------------------------------------------------------------------
     1  Na    c      0.0000       0.0000       0.0000    0.0000     1    Defect
     2  O     c      0.0000       0.1803 *     2.0736 *  0.0000     1          
     3  O     c      0.0000       0.1803 *    -2.4342 *  0.0000     1          
     4  Cl    c      2.2539 *    -2.0736 *    -0.1803 *  0.0000     2          
     5  Na    c      2.2539 *     0.1803 *     2.0736 *  0.0000     2          
     6  Na    c      0.0000       2.4342 *     2.0736 *  0.0000     1          
     7  Na    c      0.0000      -2.0736 *    -2.4342 *  0.0000     1          
     8  Cl    c      2.2539 *     2.4342 *    -0.1803 *  0.0000     2          
     9  Na    c      2.2539 *     0.1803 *    -2.4342 *  0.0000     2          
    10  Na    c      0.0000       2.4342 *    -2.4342 *  0.0000     1          
    11  Na    c      0.0000       0.1803 *     4.3275 *  0.0000     1          
    12  Na    c      0.0000      -4.3275 *    -0.1803 *  0.0000     1          
    13  Na    c     -4.5078 *     0.1803 *    -0.1803 *  0.0000     2          
    14  Na    c      0.0000       4.6881 *    -0.1803 *  0.0000     1          
    15  Na    c      0.0000       0.1803 *    -4.6881 *  0.0000     1          
    16  O     c      0.0000      -4.3275 *     2.0736 *  0.0000     1          
    17  O     c     -4.5078 *     0.1803 *     2.0736 *  0.0000     2          
    18  O     c      0.0000      -4.3275 *    -2.4342 *  0.0000     1          
    19  O     c      0.0000       4.6881 *     2.0736 *  0.0000     1          
    20  O     c     -4.5078 *     0.1803 *    -2.4342 *  0.0000     2          
    21  O     c      0.0000       4.6881 *    -2.4342 *  0.0000     1          
    22  Cl    c      2.2539 *    -2.0736 *     4.3275 *  0.0000     2          
    23  Na    c      2.2539 *    -4.3275 *     2.0736 *  0.0000     2          
    24  Na    c     -4.5078 *    -2.0736 *     2.0736 *  0.0000     2          
    25  Cl    c      2.2539 *     2.4342 *     4.3275 *  0.0000     2          
    26  Na    c      2.2539 *    -4.3275 *    -2.4342 *  0.0000     2          
    27  Na    c     -4.5078 *     2.4342 *     2.0736 *  0.0000     2          
    28  Na    c     -4.5078 *    -2.0736 *    -2.4342 *  0.0000     2          
    29  Na    c      2.2539 *     4.6881 *     2.0736 *  0.0000     2          
    30  Cl    c      2.2539 *    -2.0736 *    -4.6881 *  0.0000     2          
    31  Na    c     -4.5078 *     2.4342 *    -2.4342 *  0.0000     2          
    32  Na    c      2.2539 *     4.6881 *    -2.4342 *  0.0000     2          
    33  Cl    c      2.2539 *     2.4342 *    -4.6881 *  0.0000     2          
    34  Na    c      0.0000      -4.3275 *     4.3275 *  0.0000     1          
    35  Na    c     -4.5078 *     0.1803 *     4.3275 *  0.0000     2          
    36  Na    c     -4.5078 *    -4.3275 *    -0.1803 *  0.0000     2          
    37  Na    c      0.0000       4.6881 *     4.3275 *  0.0000     1          
    38  Na    c      0.0000      -4.3275 *    -4.6881 *  0.0000     1          
    39  Na    c     -4.5078 *     4.6881 *    -0.1803 *  0.0000     2          
    40  Na    c     -4.5078 *     0.1803 *    -4.6881 *  0.0000     2          
    41  O     c      0.0000       0.1803 *     6.5814 *  0.0000     1          
    42  O     c     -4.5078 *    -4.3275 *     2.0736 *  0.0000     2          
    43  Na    c      0.0000       4.6881 *    -4.6881 *  0.0000     1          
    44  O     c     -4.5078 *    -4.3275 *    -2.4342 *  0.0000     2          
    45  O     c     -4.5078 *     4.6881 *     2.0736 *  0.0000     2          
    46  Na    c      0.0000      -2.0736 *     6.5814 *  0.0000     1          
    47  Na    c      0.0000      -6.5814 *     2.0736 *  0.0000     1          
    48  O     c     -4.5078 *     4.6881 *    -2.4342 *  0.0000     2          
    49  O     c      0.0000       0.1803 *    -6.9420 *  0.0000     1          
    50  Cl    c      2.2539 *    -6.5814 *    -0.1803 *  0.0000     2          
    51  Na    c      2.2539 *     0.1803 *     6.5814 *  0.0000     2          
    52  Na    c      0.0000       2.4342 *     6.5814 *  0.0000     1          
    53  Na    c      0.0000      -6.5814 *    -2.4342 *  0.0000     1          
    54  Cl    c      6.7617 *    -2.0736 *    -0.1803 *  0.0000     2          
    55  Na    c      6.7617 *     0.1803 *     2.0736 *  0.0000     2          
    56  Cl    c      6.7617 *     2.4342 *    -0.1803 *  0.0000     2          
    57  Na    c      6.7617 *     0.1803 *    -2.4342 *  0.0000     2          
    58  Na    c      0.0000       6.9420 *     2.0736 *  0.0000     1          
    59  Na    c      0.0000      -2.0736 *    -6.9420 *  0.0000     1          
    60  Cl    c      2.2539 *     6.9420 *    -0.1803 *  0.0000     2          
    61  Na    c      2.2539 *     0.1803 *    -6.9420 *  0.0000     2          
    62  Na    c      0.0000       2.4342 *    -6.9420 *  0.0000     1          
    63  Na    c      0.0000       6.9420 *    -2.4342 *  0.0000     1          
    64  Na    c     -4.5078 *    -4.3275 *     4.3275 *  0.0000     2          
    65  Na    c     -4.5078 *     4.6881 *     4.3275 *  0.0000     2          
    66  Na    c     -4.5078 *    -4.3275 *    -4.6881 *  0.0000     2          
    67  O     c      0.0000      -4.3275 *     6.5814 *  0.0000     1          
    68  O     c     -4.5078 *     0.1803 *     6.5814 *  0.0000     2          
    69  Na    c     -4.5078 *     4.6881 *    -4.6881 *  0.0000     2          
    70  O     c      0.0000       4.6881 *     6.5814 *  0.0000     1          
    71  O     c      0.0000      -4.3275 *    -6.9420 *  0.0000     1          
    72  Cl    c      2.2539 *    -6.5814 *     4.3275 *  0.0000     2          
    73  Na    c      2.2539 *    -4.3275 *     6.5814 *  0.0000     2          
    74  Na    c     -4.5078 *    -6.5814 *     2.0736 *  0.0000     2          
    75  Na    c      4.5078 *    -2.0736 *     6.5814 *  0.0000     2          
    76  O     c      4.5078 *     0.1803 *    -6.9420 *  0.0000     2          
    77  Cl    c      6.7617 *    -2.0736 *     4.3275 *  0.0000     2          
    78  Na    c      6.7617 *    -4.3275 *     2.0736 *  0.0000     2          
    79  Na    c     -4.5078 *    -6.5814 *    -2.4342 *  0.0000     2          
    80  Na    c      4.5078 *     2.4342 *     6.5814 *  0.0000     2          
    81  O     c      0.0000       4.6881 *    -6.9420 *  0.0000     1          
    82  Cl    c      2.2539 *    -6.5814 *    -4.6881 *  0.0000     2          
    83  Cl    c      6.7617 *     2.4342 *     4.3275 *  0.0000     2          
    84  Na    c      2.2539 *     4.6881 *     6.5814 *  0.0000     2          
    85  Na    c      6.7617 *    -4.3275 *    -2.4342 *  0.0000     2          
    86  Cl    c      2.2539 *     6.9420 *     4.3275 *  0.0000     2          
    87  Na    c      2.2539 *    -4.3275 *    -6.9420 *  0.0000     2          
    88  Na    c      6.7617 *     4.6881 *     2.0736 *  0.0000     2          
    89  Cl    c      6.7617 *    -2.0736 *    -4.6881 *  0.0000     2          
    90  Na    c      4.5078 *     6.9420 *     2.0736 *  0.0000     2          
    91  Na    c     -4.5078 *    -2.0736 *    -6.9420 *  0.0000     2          
    92  Cl    c      6.7617 *     2.4342 *    -4.6881 *  0.0000     2          
    93  Na    c      6.7617 *     4.6881 *    -2.4342 *  0.0000     2          
    94  Na    c      4.5078 *     6.9420 *    -2.4342 *  0.0000     2          
    95  Na    c     -4.5078 *     2.4342 *    -6.9420 *  0.0000     2          
    96  Cl    c      2.2539 *     6.9420 *    -4.6881 *  0.0000     2          
    97  Na    c      2.2539 *     4.6881 *    -6.9420 *  0.0000     2          
    98  Na    c      0.0000       0.1803 *     8.8353 *  0.0000     1          
    99  Na    c      0.0000      -8.8353 *    -0.1803 *  0.0000     1          
   100  Na    c      9.0156 *     0.1803 *    -0.1803 *  0.0000     2          
   101  O     c     -4.5078 *    -4.3275 *     6.5814 *  0.0000     2          
   102  O     c      0.0000      -8.8353 *     2.0736 *  0.0000     1          
   103  O     c      0.0000      -8.8353 *    -2.4342 *  0.0000     1          
   104  Na    c      0.0000       9.1959 *    -0.1803 *  0.0000     1          
   105  Na    c      0.0000       0.1803 *    -9.1959 *  0.0000     1          
   106  O     c      9.0156 *     0.1803 *     2.0736 *  0.0000     2          
   107  O     c     -4.5078 *     4.6881 *     6.5814 *  0.0000     2          
   108  Na    c      0.0000      -6.5814 *     6.5814 *  0.0000     1          
   109  O     c      9.0156 *     0.1803 *    -2.4342 *  0.0000     2          
   110  O     c     -4.5078 *    -4.3275 *    -6.9420 *  0.0000     2          
   111  Cl    c      2.2539 *    -2.0736 *     8.8353 *  0.0000     2          
   112  Na    c      2.2539 *    -8.8353 *     2.0736 *  0.0000     2          
   113  O     c      0.0000       9.1959 *     2.0736 *  0.0000     1          
   114  Cl    c      2.2539 *     2.4342 *     8.8353 *  0.0000     2          
   115  Cl    c      6.7617 *    -6.5814 *    -0.1803 *  0.0000     2          
   116  Na    c      2.2539 *    -8.8353 *    -2.4342 *  0.0000     2          
   117  Na    c      6.7617 *     0.1803 *     6.5814 *  0.0000     2          
   118  Na    c      9.0156 *    -2.0736 *     2.0736 *  0.0000     2          
   119  O     c      0.0000       9.1959 *    -2.4342 *  0.0000     1          
   120  O     c      4.5078 *     4.6881 *    -6.9420 *  0.0000     2          
   121  Na    c      9.0156 *     2.4342 *     2.0736 *  0.0000     2          
   122  Na    c      9.0156 *    -2.0736 *    -2.4342 *  0.0000     2          
   123  Na    c      0.0000       6.9420 *     6.5814 *  0.0000     1          
   124  Na    c      0.0000      -6.5814 *    -6.9420 *  0.0000     1          
   125  Na    c      9.0156 *     2.4342 *    -2.4342 *  0.0000     2          
   126  Na    c      2.2539 *     9.1959 *     2.0736 *  0.0000     2          
   127  Cl    c      2.2539 *    -2.0736 *    -9.1959 *  0.0000     2          
   128  Cl    c      6.7617 *     6.9420 *    -0.1803 *  0.0000     2          
   129  Na    c      6.7617 *     0.1803 *    -6.9420 *  0.0000     2          
   130  Na    c      2.2539 *     9.1959 *    -2.4342 *  0.0000     2          
   131  Cl    c      2.2539 *     2.4342 *    -9.1959 *  0.0000     2          
   132  Na    c      0.0000       6.9420 *    -6.9420 *  0.0000     1          
   133  Na    c      0.0000      -4.3275 *     8.8353 *  0.0000     1          
   134  Na    c      0.0000      -8.8353 *     4.3275 *  0.0000     1          
   135  Na    c      4.5078 *     0.1803 *     8.8353 *  0.0000     2          
   136  Na    c     -4.5078 *    -8.8353 *    -0.1803 *  0.0000     2          
   137  Na    c      0.0000       4.6881 *     8.8353 *  0.0000     1          
   138  Na    c      9.0156 *     0.1803 *     4.3275 *  0.0000     2          
   139  Na    c      9.0156 *    -4.3275 *    -0.1803 *  0.0000     2          
   140  Na    c      0.0000      -8.8353 *    -4.6881 *  0.0000     1          
   141  O     c     -4.5078 *    -8.8353 *     2.0736 *  0.0000     2          
   142  Na    c      0.0000       9.1959 *     4.3275 *  0.0000     1          
   143  Na    c      9.0156 *     4.6881 *    -0.1803 *  0.0000     2          
   144  Na    c      0.0000      -4.3275 *    -9.1959 *  0.0000     1          
   145  Na    c      9.0156 *     0.1803 *    -4.6881 *  0.0000     2          
   146  O     c      9.0156 *    -4.3275 *     2.0736 *  0.0000     2          
   147  O     c     -4.5078 *    -8.8353 *    -2.4342 *  0.0000     2          
   148  Na    c     -4.5078 *     9.1959 *    -0.1803 *  0.0000     2          
   149  Na    c      4.5078 *     0.1803 *    -9.1959 *  0.0000     2          
   150  O     c      9.0156 *    -4.3275 *    -2.4342 *  0.0000     2          
   151  Na    c      0.0000       9.1959 *    -4.6881 *  0.0000     1          
   152  Na    c      0.0000       4.6881 *    -9.1959 *  0.0000     1          
   153  Na    c     -4.5078 *    -6.5814 *     6.5814 *  0.0000     2          
   154  O     c      9.0156 *     4.6881 *     2.0736 *  0.0000     2          
   155  Cl    c      6.7617 *    -6.5814 *     4.3275 *  0.0000     2          
   156  Na    c      6.7617 *    -4.3275 *     6.5814 *  0.0000     2          
   157  O     c     -4.5078 *     9.1959 *     2.0736 *  0.0000     2          
   158  O     c      9.0156 *     4.6881 *    -2.4342 *  0.0000     2          
   159  O     c     -4.5078 *     9.1959 *    -2.4342 *  0.0000     2          
   160  Na    c      6.7617 *     4.6881 *     6.5814 *  0.0000     2          
   161  Cl    c      6.7617 *    -6.5814 *    -4.6881 *  0.0000     2          
   162  Na    c      4.5078 *     6.9420 *     6.5814 *  0.0000     2          
   163  Na    c      4.5078 *    -6.5814 *    -6.9420 *  0.0000     2          
   164  Cl    c      6.7617 *     6.9420 *     4.3275 *  0.0000     2          
   165  Na    c      6.7617 *    -4.3275 *    -6.9420 *  0.0000     2          
   166  Cl    c      6.7617 *     6.9420 *    -4.6881 *  0.0000     2          
   167  Na    c      6.7617 *     4.6881 *    -6.9420 *  0.0000     2          
   168  Na    c      4.5078 *     6.9420 *    -6.9420 *  0.0000     2          
   169  Na    c     -4.5078 *    -4.3275 *     8.8353 *  0.0000     2          
   170  Na    c      4.5078 *    -8.8353 *     4.3275 *  0.0000     2          
   171  Na    c      9.0156 *    -4.3275 *     4.3275 *  0.0000     2          
   172  Na    c     -4.5078 *     4.6881 *     8.8353 *  0.0000     2          
   173  Na    c      4.5078 *    -8.8353 *    -4.6881 *  0.0000     2          
   174  O     c      0.0000      -8.8353 *     6.5814 *  0.0000     1          
   175  Na    c      9.0156 *     4.6881 *     4.3275 *  0.0000     2          
   176  Na    c      9.0156 *    -4.3275 *    -4.6881 *  0.0000     2          
   177  O     c      0.0000       0.1803 *    11.0892 *  0.0000     1          
   178  Na    c      4.5078 *     9.1959 *     4.3275 *  0.0000     2          
   179  Na    c     -4.5078 *    -4.3275 *    -9.1959 *  0.0000     2          
   180  O     c      9.0156 *     0.1803 *     6.5814 *  0.0000     2          
   181  Na    c      9.0156 *     4.6881 *    -4.6881 *  0.0000     2          
   182  O     c      0.0000      -8.8353 *    -6.9420 *  0.0000     1          
   183  Cl    c      2.2539 *    -6.5814 *     8.8353 *  0.0000     2          
   184  Na    c      2.2539 *    -8.8353 *     6.5814 *  0.0000     2          
   185  Na    c      4.5078 *     9.1959 *    -4.6881 *  0.0000     2          
   186  Na    c     -4.5078 *     4.6881 *    -9.1959 *  0.0000     2          
   187  Na    c      0.0000      -2.0736 *    11.0892 *  0.0000     1          
   188  Na    c      0.0000     -11.0892 *     2.0736 *  0.0000     1          
   189  O     c      0.0000       9.1959 *     6.5814 *  0.0000     1          
   190  Cl    c      2.2539 *   -11.0892 *    -0.1803 *  0.0000     2          
   191  Na    c      2.2539 *     0.1803 *    11.0892 *  0.0000     2          
   192  Cl    c      6.7617 *    -2.0736 *     8.8353 *  0.0000     2          
   193  Na    c      6.7617 *    -8.8353 *     2.0736 *  0.0000     2          
   194  Na    c      0.0000       2.4342 *    11.0892 *  0.0000     1          
   195  Na    c      0.0000     -11.0892 *    -2.4342 *  0.0000     1          
   196  Na    c      9.0156 *    -2.0736 *     6.5814 *  0.0000     2          
   197  Na    c      9.0156 *    -6.5814 *     2.0736 *  0.0000     2          
   198  O     c      9.0156 *     0.1803 *    -6.9420 *  0.0000     2          
   199  Cl    c      6.7617 *     2.4342 *     8.8353 *  0.0000     2          
   200  Na    c      6.7617 *    -8.8353 *    -2.4342 *  0.0000     2          
   201  Na    c      9.0156 *     2.4342 *     6.5814 *  0.0000     2          
   202  Na    c      9.0156 *    -6.5814 *    -2.4342 *  0.0000     2          
   203  O     c      0.0000       0.1803 *   -11.4498 *  0.0000     1          
   204  Cl    c      2.2539 *     6.9420 *     8.8353 *  0.0000     2          
   205  Cl    c     11.2695 *    -2.0736 *    -0.1803 *  0.0000     2          
   206  Na    c     11.2695 *     0.1803 *     2.0736 *  0.0000     2          
   207  Na    c      2.2539 *    -8.8353 *    -6.9420 *  0.0000     2          
   208  O     c      0.0000       9.1959 *    -6.9420 *  0.0000     1          
   209  Cl    c      2.2539 *    -6.5814 *    -9.1959 *  0.0000     2          
   210  Cl    c     11.2695 *     2.4342 *    -0.1803 *  0.0000     2          
   211  Na    c      2.2539 *     9.1959 *     6.5814 *  0.0000     2          
   212  Na    c     11.2695 *     0.1803 *    -2.4342 *  0.0000     2          
   213  Na    c      9.0156 *     6.9420 *     2.0736 *  0.0000     2          
   214  Na    c      9.0156 *    -2.0736 *    -6.9420 *  0.0000     2          
   215  Na    c      6.7617 *     9.1959 *     2.0736 *  0.0000     2          
   216  Cl    c      6.7617 *    -2.0736 *    -9.1959 *  0.0000     2          
   217  Na    c      0.0000      11.4498 *     2.0736 *  0.0000     1          
   218  Na    c      0.0000      -2.0736 *   -11.4498 *  0.0000     1          
   219  Na    c      9.0156 *     2.4342 *    -6.9420 *  0.0000     2          
   220  Na    c      9.0156 *     6.9420 *    -2.4342 *  0.0000     2          
   221  Cl    c      2.2539 *    11.4498 *    -0.1803 *  0.0000     2          
   222  Cl    c      6.7617 *     2.4342 *    -9.1959 *  0.0000     2          
   223  Na    c      2.2539 *     0.1803 *   -11.4498 *  0.0000     2          
   224  Na    c      6.7617 *     9.1959 *    -2.4342 *  0.0000     2          
   225  Na    c      0.0000       2.4342 *   -11.4498 *  0.0000     1          
   226  Na    c      0.0000      11.4498 *    -2.4342 *  0.0000     1          
   227  Na    c      2.2539 *     9.1959 *    -6.9420 *  0.0000     2          
   228  Cl    c      2.2539 *     6.9420 *    -9.1959 *  0.0000     2          
   229  O     c      0.0000      -4.3275 *    11.0892 *  0.0000     1          
   230  O     c     -4.5078 *    -8.8353 *     6.5814 *  0.0000     2          
   231  O     c      4.5078 *     0.1803 *    11.0892 *  0.0000     2          
   232  O     c      9.0156 *    -4.3275 *     6.5814 *  0.0000     2          
   233  O     c      0.0000       4.6881 *    11.0892 *  0.0000     1          
   234  O     c      9.0156 *     4.6881 *     6.5814 *  0.0000     2          
   235  O     c     -4.5078 *    -8.8353 *    -6.9420 *  0.0000     2          
   236  Cl    c      2.2539 *   -11.0892 *     4.3275 *  0.0000     2          
   237  Na    c      2.2539 *    -4.3275 *    11.0892 *  0.0000     2          
   238  Na    c      4.5078 *    -2.0736 *    11.0892 *  0.0000     2          
   239  Na    c      4.5078 *   -11.0892 *     2.0736 *  0.0000     2          
   240  O     c     -4.5078 *     9.1959 *     6.5814 *  0.0000     2          
   241  O     c      9.0156 *    -4.3275 *    -6.9420 *  0.0000     2          
   242  Na    c      4.5078 *     2.4342 *    11.0892 *  0.0000     2          
   243  Na    c      4.5078 *   -11.0892 *    -2.4342 *  0.0000     2          
   244  O     c      0.0000      -4.3275 *   -11.4498 *  0.0000     1          
   245  Cl    c      2.2539 *   -11.0892 *    -4.6881 *  0.0000     2          
   246  Cl    c     11.2695 *    -2.0736 *     4.3275 *  0.0000     2          
   247  Na    c      2.2539 *     4.6881 *    11.0892 *  0.0000     2          
   248  Na    c     11.2695 *    -4.3275 *     2.0736 *  0.0000     2          
   249  O     c      9.0156 *     4.6881 *    -6.9420 *  0.0000     2          
   250  O     c     -4.5078 *     0.1803 *   -11.4498 *  0.0000     2          
   251  Cl    c     11.2695 *     2.4342 *     4.3275 *  0.0000     2          
   252  Na    c     11.2695 *    -4.3275 *    -2.4342 *  0.0000     2          
   253  O     c     -4.5078 *     9.1959 *    -6.9420 *  0.0000     2          
   254  O     c      0.0000       4.6881 *   -11.4498 *  0.0000     1          
   255  Cl    c     11.2695 *    -2.0736 *    -4.6881 *  0.0000     2          
   256  Na    c     11.2695 *     4.6881 *     2.0736 *  0.0000     2          
   257  Cl    c      2.2539 *    11.4498 *     4.3275 *  0.0000     2          
   258  Cl    c     11.2695 *     2.4342 *    -4.6881 *  0.0000     2          
   259  Na    c     11.2695 *     4.6881 *    -2.4342 *  0.0000     2          
   260  Na    c      2.2539 *    -4.3275 *   -11.4498 *  0.0000     2          
   261  Na    c      4.5078 *    11.4498 *     2.0736 *  0.0000     2          
   262  Na    c      4.5078 *    -2.0736 *   -11.4498 *  0.0000     2          
   263  Na    c      0.0000      -8.8353 *     8.8353 *  0.0000     1          
   264  Na    c      4.5078 *     2.4342 *   -11.4498 *  0.0000     2          
   265  Na    c      4.5078 *    11.4498 *    -2.4342 *  0.0000     2          
   266  Cl    c      2.2539 *    11.4498 *    -4.6881 *  0.0000     2          
   267  Na    c      2.2539 *     4.6881 *   -11.4498 *  0.0000     2          
   268  Na    c      9.0156 *     0.1803 *     8.8353 *  0.0000     2          
   269  Na    c      9.0156 *    -8.8353 *    -0.1803 *  0.0000     2          
   270  O     c      4.5078 *    -4.3275 *    11.0892 *  0.0000     2          
   271  Na    c      0.0000       9.1959 *     8.8353 *  0.0000     1          
   272  Na    c      0.0000      -8.8353 *    -9.1959 *  0.0000     1          
   273  O     c      9.0156 *    -8.8353 *     2.0736 *  0.0000     2          
   274  O     c     -4.5078 *     4.6881 *    11.0892 *  0.0000     2          
   275  O     c      9.0156 *    -8.8353 *    -2.4342 *  0.0000     2          
   276  Na    c      9.0156 *     9.1959 *    -0.1803 *  0.0000     2          
   277  Na    c      9.0156 *     0.1803 *    -9.1959 *  0.0000     2          
   278  Na    c      0.0000      -6.5814 *    11.0892 *  0.0000     1          
   279  Na    c      0.0000     -11.0892 *     6.5814 *  0.0000     1          
   280  Cl    c      6.7617 *    -6.5814 *     8.8353 *  0.0000     2          
   281  Na    c      6.7617 *    -8.8353 *     6.5814 *  0.0000     2          
   282  Na    c      9.0156 *    -6.5814 *     6.5814 *  0.0000     2          
   283  Cl    c      6.7617 *   -11.0892 *    -0.1803 *  0.0000     2          
   284  Na    c      6.7617 *     0.1803 *    11.0892 *  0.0000     2          
   285  Na    c      0.0000       9.1959 *    -9.1959 *  0.0000     1          
   286  O     c      9.0156 *     9.1959 *     2.0736 *  0.0000     2          
   287  O     c     -4.5078 *    -4.3275 *   -11.4498 *  0.0000     2          
   288  Cl    c     11.2695 *    -6.5814 *    -0.1803 *  0.0000     2          
   289  Na    c     11.2695 *     0.1803 *     6.5814 *  0.0000     2          
   290  Na    c      0.0000       6.9420 *    11.0892 *  0.0000     1          
   291  Na    c      0.0000     -11.0892 *    -6.9420 *  0.0000     1          
   292  O     c      9.0156 *     9.1959 *    -2.4342 *  0.0000     2          
   293  Cl    c      6.7617 *     6.9420 *     8.8353 *  0.0000     2          
   294  Na    c      6.7617 *    -8.8353 *    -6.9420 *  0.0000     2          
   295  Na    c      9.0156 *     6.9420 *     6.5814 *  0.0000     2          
   296  Na    c      9.0156 *    -6.5814 *    -6.9420 *  0.0000     2          
   297  O     c      4.5078 *     4.6881 *   -11.4498 *  0.0000     2          
   298  Na    c      6.7617 *     9.1959 *     6.5814 *  0.0000     2          
   299  Cl    c      6.7617 *    -6.5814 *    -9.1959 *  0.0000     2          
   300  Na    c      0.0000      11.4498 *     6.5814 *  0.0000     1          
   301  Na    c      0.0000      -6.5814 *   -11.4498 *  0.0000     1          
   302  Cl    c     11.2695 *     6.9420 *    -0.1803 *  0.0000     2          
   303  Na    c     11.2695 *     0.1803 *    -6.9420 *  0.0000     2          
   304  Na    c      4.5078 *    -8.8353 *     8.8353 *  0.0000     2          
   305  Cl    c      6.7617 *    11.4498 *    -0.1803 *  0.0000     2          
   306  Na    c      6.7617 *     0.1803 *   -11.4498 *  0.0000     2          
   307  Na    c      9.0156 *     6.9420 *    -6.9420 *  0.0000     2          
   308  Na    c      9.0156 *    -4.3275 *     8.8353 *  0.0000     2          
   309  Na    c      0.0000       0.1803 *    13.3431 *  0.0000     1          
   310  Na    c      0.0000     -13.3431 *    -0.1803 *  0.0000     1          
   311  Na    c      9.0156 *    -8.8353 *     4.3275 *  0.0000     2          
   312  Na    c      6.7617 *     9.1959 *    -6.9420 *  0.0000     2          
   313  Cl    c      6.7617 *     6.9420 *    -9.1959 *  0.0000     2          
   314  Na    c      0.0000       6.9420 *   -11.4498 *  0.0000     1          
   315  Na    c      0.0000      11.4498 *    -6.9420 *  0.0000     1          
   316  Na    c      9.0156 *     4.6881 *     8.8353 *  0.0000     2          
   317  Na    c      9.0156 *    -8.8353 *    -4.6881 *  0.0000     2          
   318  O     c      0.0000     -13.3431 *     2.0736 *  0.0000     1          
   319  Na    c      4.5078 *     9.1959 *     8.8353 *  0.0000     2          
   320  Na    c      4.5078 *    -8.8353 *    -9.1959 *  0.0000     2          
   321  Na    c     13.5234 *     0.1803 *    -0.1803 *  0.0000     2          
   322  O     c      0.0000     -13.3431 *    -2.4342 *  0.0000     1          
   323  Na    c      9.0156 *     9.1959 *     4.3275 *  0.0000     2          
   324  Na    c      9.0156 *    -4.3275 *    -9.1959 *  0.0000     2          
   325  Na    c      4.5078 *   -11.0892 *     6.5814 *  0.0000     2          
   326  Na    c     -4.5078 *    -6.5814 *    11.0892 *  0.0000     2          
   327  O     c     13.5234 *     0.1803 *     2.0736 *  0.0000     2          
   328  Cl    c      6.7617 *   -11.0892 *     4.3275 *  0.0000     2          
   329  Na    c      6.7617 *    -4.3275 *    11.0892 *  0.0000     2          
   330  Cl    c      2.2539 *    -2.0736 *    13.3431 *  0.0000     2          
   331  Na    c      2.2539 *   -13.3431 *     2.0736 *  0.0000     2          
   332  Na    c      0.0000      13.7037 *    -0.1803 *  0.0000     1          
   333  Na    c      9.0156 *     9.1959 *    -4.6881 *  0.0000     2          
   334  Na    c      9.0156 *     4.6881 *    -9.1959 *  0.0000     2          
   335  Na    c      0.0000       0.1803 *   -13.7037 *  0.0000     1          
   336  O     c     13.5234 *     0.1803 *    -2.4342 *  0.0000     2          
   337  Cl    c     11.2695 *    -6.5814 *     4.3275 *  0.0000     2          
   338  Na    c     11.2695 *    -4.3275 *     6.5814 *  0.0000     2          
   339  Cl    c      2.2539 *     2.4342 *    13.3431 *  0.0000     2          
   340  Na    c      2.2539 *   -13.3431 *    -2.4342 *  0.0000     2          
   341  Na    c      4.5078 *     9.1959 *    -9.1959 *  0.0000     2          
   342  Na    c      6.7617 *     4.6881 *    11.0892 *  0.0000     2          
   343  Cl    c      6.7617 *   -11.0892 *    -4.6881 *  0.0000     2          
   344  Na    c      4.5078 *     6.9420 *    11.0892 *  0.0000     2          
   345  Na    c      4.5078 *   -11.0892 *    -6.9420 *  0.0000     2          
   346  Na    c     13.5234 *    -2.0736 *     2.0736 *  0.0000     2          
   347  O     c      0.0000      13.7037 *     2.0736 *  0.0000     1          
   348  Cl    c     11.2695 *    -6.5814 *    -4.6881 *  0.0000     2          
   349  Na    c     11.2695 *     4.6881 *     6.5814 *  0.0000     2          
   350  Na    c     13.5234 *     2.4342 *     2.0736 *  0.0000     2          
   351  Na    c     13.5234 *    -2.0736 *    -2.4342 *  0.0000     2          
   352  O     c      0.0000      13.7037 *    -2.4342 *  0.0000     1          
   353  Cl    c     11.2695 *     6.9420 *     4.3275 *  0.0000     2          
   354  Na    c     11.2695 *    -4.3275 *    -6.9420 *  0.0000     2          
   355  Na    c      4.5078 *    11.4498 *     6.5814 *  0.0000     2          
   356  Na    c      4.5078 *    -6.5814 *   -11.4498 *  0.0000     2          
   357  Na    c     13.5234 *     2.4342 *    -2.4342 *  0.0000     2          
   358  Cl    c      6.7617 *    11.4498 *     4.3275 *  0.0000     2          
   359  Na    c      6.7617 *    -4.3275 *   -11.4498 *  0.0000     2          
   360  Na    c      0.0000      -4.3275 *    13.3431 *  0.0000     1          
   361  Na    c      0.0000     -13.3431 *     4.3275 *  0.0000     1          
   362  Na    c      2.2539 *    13.7037 *     2.0736 *  0.0000     2          
   363  Cl    c     11.2695 *     6.9420 *    -4.6881 *  0.0000     2          
   364  Na    c     11.2695 *     4.6881 *    -6.9420 *  0.0000     2          
   365  Cl    c      2.2539 *    -2.0736 *   -13.7037 *  0.0000     2          
   366  Na    c      4.5078 *   -13.3431 *    -0.1803 *  0.0000     2          
   367  Na    c     -4.5078 *     0.1803 *    13.3431 *  0.0000     2          
   368  Na    c      2.2539 *    13.7037 *    -2.4342 *  0.0000     2          
   369  Cl    c      6.7617 *    11.4498 *    -4.6881 *  0.0000     2          
   370  Na    c      6.7617 *     4.6881 *   -11.4498 *  0.0000     2          
   371  Cl    c      2.2539 *     2.4342 *   -13.7037 *  0.0000     2          
   372  Na    c      4.5078 *     6.9420 *   -11.4498 *  0.0000     2          
   373  Na    c      4.5078 *    11.4498 *    -6.9420 *  0.0000     2          
   374  Na    c      0.0000       4.6881 *    13.3431 *  0.0000     1          
   375  Na    c      0.0000     -13.3431 *    -4.6881 *  0.0000     1          
   376  O     c      0.0000      -8.8353 *    11.0892 *  0.0000     1          
   377  Na    c     13.5234 *     0.1803 *     4.3275 *  0.0000     2          
   378  Na    c     13.5234 *    -4.3275 *    -0.1803 *  0.0000     2          
   379  O     c      4.5078 *   -13.3431 *     2.0736 *  0.0000     2          
   380  O     c      9.0156 *    -8.8353 *     6.5814 *  0.0000     2          
   381  O     c      9.0156 *     0.1803 *    11.0892 *  0.0000     2          
   382  O     c      4.5078 *   -13.3431 *    -2.4342 *  0.0000     2          
   383  Na    c     13.5234 *     0.1803 *    -4.6881 *  0.0000     2          
   384  Na    c     13.5234 *     4.6881 *    -0.1803 *  0.0000     2          
   385  O     c     13.5234 *    -4.3275 *     2.0736 *  0.0000     2          
   386  Cl    c      2.2539 *   -11.0892 *     8.8353 *  0.0000     2          
   387  Na    c      2.2539 *    -8.8353 *    11.0892 *  0.0000     2          
   388  Na    c      0.0000      13.7037 *     4.3275 *  0.0000     1          
   389  Na    c      0.0000      -4.3275 *   -13.7037 *  0.0000     1          
   390  O     c      0.0000       9.1959 *    11.0892 *  0.0000     1          
   391  O     c      9.0156 *    -8.8353 *    -6.9420 *  0.0000     2          
   392  O     c     13.5234 *    -4.3275 *    -2.4342 *  0.0000     2          
   393  Na    c      4.5078 *    13.7037 *    -0.1803 *  0.0000     2          
   394  Na    c     -4.5078 *     0.1803 *   -13.7037 *  0.0000     2          
   395  Na    c      9.0156 *    -2.0736 *    11.0892 *  0.0000     2          
   396  Na    c      9.0156 *   -11.0892 *     2.0736 *  0.0000     2          
   397  O     c      9.0156 *     9.1959 *     6.5814 *  0.0000     2          
   398  O     c      0.0000      -8.8353 *   -11.4498 *  0.0000     1          
   399  O     c     13.5234 *     4.6881 *     2.0736 *  0.0000     2          
   400  Cl    c     11.2695 *    -2.0736 *     8.8353 *  0.0000     2          
   401  Na    c     11.2695 *    -8.8353 *     2.0736 *  0.0000     2          
   402  Na    c      0.0000      13.7037 *    -4.6881 *  0.0000     1          
   403  Na    c      0.0000       4.6881 *   -13.7037 *  0.0000     1          
   404  Na    c      9.0156 *     2.4342 *    11.0892 *  0.0000     2          
   405  Na    c      9.0156 *   -11.0892 *    -2.4342 *  0.0000     2          
   406  O     c     13.5234 *     4.6881 *    -2.4342 *  0.0000     2          
   407  Cl    c     11.2695 *     2.4342 *     8.8353 *  0.0000     2          
   408  Na    c     11.2695 *    -8.8353 *    -2.4342 *  0.0000     2          
   409  O     c      4.5078 *    13.7037 *     2.0736 *  0.0000     2          
   410  O     c      9.0156 *     0.1803 *   -11.4498 *  0.0000     2          
   411  Na    c      2.2539 *     9.1959 *    11.0892 *  0.0000     2          
   412  Cl    c      2.2539 *   -11.0892 *    -9.1959 *  0.0000     2          
   413  O     c      4.5078 *    13.7037 *    -2.4342 *  0.0000     2          
   414  O     c      9.0156 *     9.1959 *    -6.9420 *  0.0000     2          
   415  Cl    c      2.2539 *    11.4498 *     8.8353 *  0.0000     2          
   416  Na    c      2.2539 *    -8.8353 *   -11.4498 *  0.0000     2          
   417  O     c      0.0000       9.1959 *   -11.4498 *  0.0000     1          
   418  Na    c     11.2695 *     9.1959 *     2.0736 *  0.0000     2          
   419  Cl    c     11.2695 *    -2.0736 *    -9.1959 *  0.0000     2          
   420  Na    c      9.0156 *    -2.0736 *   -11.4498 *  0.0000     2          
   421  Na    c      9.0156 *    11.4498 *     2.0736 *  0.0000     2          
   422  Na    c      4.5078 *   -13.3431 *     4.3275 *  0.0000     2          
   423  Na    c     -4.5078 *    -4.3275 *    13.3431 *  0.0000     2          
   424  Na    c     11.2695 *     9.1959 *    -2.4342 *  0.0000     2          
   425  Cl    c     11.2695 *     2.4342 *    -9.1959 *  0.0000     2          
   426  Na    c      9.0156 *     2.4342 *   -11.4498 *  0.0000     2          
   427  Na    c      9.0156 *    11.4498 *    -2.4342 *  0.0000     2          
   428  Na    c      4.5078 *     4.6881 *    13.3431 *  0.0000     2          
   429  Na    c      4.5078 *   -13.3431 *    -4.6881 *  0.0000     2          
   430  Na    c     13.5234 *    -4.3275 *     4.3275 *  0.0000     2          
   431  Cl    c      2.2539 *    11.4498 *    -9.1959 *  0.0000     2          
   432  Na    c      2.2539 *     9.1959 *   -11.4498 *  0.0000     2          
   433  O     c      0.0000     -13.3431 *     6.5814 *  0.0000     1          
   434  O     c      4.5078 *    -8.8353 *    11.0892 *  0.0000     2          
   435  O     c      9.0156 *    -4.3275 *    11.0892 *  0.0000     2          
   436  Na    c     13.5234 *     4.6881 *     4.3275 *  0.0000     2          
   437  Na    c     13.5234 *    -4.3275 *    -4.6881 *  0.0000     2          
   438  O     c      9.0156 *     4.6881 *    11.0892 *  0.0000     2          
   439  O     c      0.0000     -13.3431 *    -6.9420 *  0.0000     1          
   440  O     c     13.5234 *     0.1803 *     6.5814 *  0.0000     2          
   441  Cl    c      2.2539 *    -6.5814 *    13.3431 *  0.0000     2          
   442  Na    c      2.2539 *   -13.3431 *     6.5814 *  0.0000     2          
   443  Na    c      4.5078 *    13.7037 *     4.3275 *  0.0000     2          
   444  Na    c     13.5234 *     4.6881 *    -4.6881 *  0.0000     2          
   445  Na    c     -4.5078 *    -4.3275 *   -13.7037 *  0.0000     2          
   446  O     c      4.5078 *     9.1959 *    11.0892 *  0.0000     2          
   447  Cl    c      6.7617 *    -2.0736 *    13.3431 *  0.0000     2          
   448  Na    c      6.7617 *   -13.3431 *     2.0736 *  0.0000     2          
   449  O     c     -4.5078 *    -8.8353 *   -11.4498 *  0.0000     2          
   450  Cl    c      6.7617 *     2.4342 *    13.3431 *  0.0000     2          
   451  Na    c      6.7617 *   -13.3431 *    -2.4342 *  0.0000     2          
   452  Na    c      4.5078 *    13.7037 *    -4.6881 *  0.0000     2          
   453  Na    c      4.5078 *     4.6881 *   -13.7037 *  0.0000     2          
   454  Na    c     13.5234 *    -2.0736 *     6.5814 *  0.0000     2          
   455  Na    c     13.5234 *    -6.5814 *     2.0736 *  0.0000     2          
   456  O     c      0.0000      13.7037 *     6.5814 *  0.0000     1          
   457  O     c      9.0156 *    -4.3275 *   -11.4498 *  0.0000     2          
   458  O     c     13.5234 *     0.1803 *    -6.9420 *  0.0000     2          
   459  Cl    c      2.2539 *     6.9420 *    13.3431 *  0.0000     2          
   460  Na    c      2.2539 *   -13.3431 *    -6.9420 *  0.0000     2          
   461  Na    c     13.5234 *     2.4342 *     6.5814 *  0.0000     2          
   462  Na    c     13.5234 *    -6.5814 *    -2.4342 *  0.0000     2          
   463  O     c      9.0156 *     4.6881 *   -11.4498 *  0.0000     2          
   464  Na    c     13.5234 *     6.9420 *     2.0736 *  0.0000     2          
   465  Na    c     13.5234 *    -2.0736 *    -6.9420 *  0.0000     2          
   466  O     c      0.0000      13.7037 *    -6.9420 *  0.0000     1          
   467  O     c     -4.5078 *     9.1959 *   -11.4498 *  0.0000     2          
   468  Na    c      2.2539 *    13.7037 *     6.5814 *  0.0000     2          
   469  Cl    c      2.2539 *    -6.5814 *   -13.7037 *  0.0000     2          
   470  Na    c     13.5234 *     2.4342 *    -6.9420 *  0.0000     2          
   471  Na    c     13.5234 *     6.9420 *    -2.4342 *  0.0000     2          
   472  Na    c      9.0156 *    -8.8353 *     8.8353 *  0.0000     2          
   473  Na    c      6.7617 *    13.7037 *     2.0736 *  0.0000     2          
   474  Cl    c      6.7617 *    -2.0736 *   -13.7037 *  0.0000     2          
   475  Na    c      6.7617 *    13.7037 *    -2.4342 *  0.0000     2          
   476  Cl    c      6.7617 *     2.4342 *   -13.7037 *  0.0000     2          
   477  Na    c      2.2539 *    13.7037 *    -6.9420 *  0.0000     2          
   478  Cl    c      2.2539 *     6.9420 *   -13.7037 *  0.0000     2          
   479  O     c      4.5078 *   -13.3431 *     6.5814 *  0.0000     2          
   480  O     c      0.0000       0.1803 *    15.5969 *  0.0000     1          
   481  Na    c      9.0156 *     9.1959 *     8.8353 *  0.0000     2          
   482  Na    c      9.0156 *    -8.8353 *    -9.1959 *  0.0000     2          
   483  O     c     13.5234 *    -4.3275 *     6.5814 *  0.0000     2          
   484  Na    c      0.0000     -11.0892 *    11.0892 *  0.0000     1          
   485  O     c      4.5078 *   -13.3431 *    -6.9420 *  0.0000     2          
   486  Cl    c      6.7617 *   -11.0892 *     8.8353 *  0.0000     2          
   487  Na    c      6.7617 *    -8.8353 *    11.0892 *  0.0000     2          
   488  Na    c      0.0000      -2.0736 *    15.5969 *  0.0000     1          
   489  Na    c      0.0000     -15.5969 *     2.0736 *  0.0000     1          
   490  Na    c      9.0156 *   -11.0892 *     6.5814 *  0.0000     2          
   491  Na    c      9.0156 *    -6.5814 *    11.0892 *  0.0000     2          
   492  O     c     13.5234 *     4.6881 *     6.5814 *  0.0000     2          
   493  Cl    c      2.2539 *   -15.5969 *    -0.1803 *  0.0000     2          
   494  Na    c      2.2539 *     0.1803 *    15.5969 *  0.0000     2          
   495  Cl    c     11.2695 *    -6.5814 *     8.8353 *  0.0000     2          
   496  Na    c     11.2695 *    -8.8353 *     6.5814 *  0.0000     2          
   497  Na    c      0.0000       2.4342 *    15.5969 *  0.0000     1          
   498  Na    c      0.0000     -15.5969 *    -2.4342 *  0.0000     1          
   499  O     c     13.5234 *    -4.3275 *    -6.9420 *  0.0000     2          
   500  Cl    c     11.2695 *   -11.0892 *    -0.1803 *  0.0000     2          
   501  Na    c     11.2695 *     0.1803 *    11.0892 *  0.0000     2          
   502  Na    c      9.0156 *     9.1959 *    -9.1959 *  0.0000     2          
   503  O     c      4.5078 *    13.7037 *     6.5814 *  0.0000     2          
   504  Na    c      9.0156 *     6.9420 *    11.0892 *  0.0000     2          
   505  Na    c      9.0156 *   -11.0892 *    -6.9420 *  0.0000     2          
   506  O     c     13.5234 *     4.6881 *    -6.9420 *  0.0000     2          
   507  Cl    c    -15.7773 *    -2.0736 *    -0.1803 *  0.0000     2          
   508  Na    c      6.7617 *     9.1959 *    11.0892 *  0.0000     2          
   509  Na    c    -15.7773 *     0.1803 *     2.0736 *  0.0000     2          
   510  Cl    c      6.7617 *   -11.0892 *    -9.1959 *  0.0000     2          
   511  Cl    c     11.2695 *     6.9420 *     8.8353 *  0.0000     2          
   512  Na    c     11.2695 *    -8.8353 *    -6.9420 *  0.0000     2          
   513  Na    c      0.0000      11.4498 *    11.0892 *  0.0000     1          
   514  Na    c      0.0000     -11.0892 *   -11.4498 *  0.0000     1          
   515  O     c      0.0000       0.1803 *   -15.9576 *  0.0000     1          
   516  Na    c     11.2695 *     9.1959 *     6.5814 *  0.0000     2          
   517  Cl    c      6.7617 *    11.4498 *     8.8353 *  0.0000     2          
   518  Cl    c     11.2695 *    -6.5814 *    -9.1959 *  0.0000     2          
   519  Cl    c    -15.7773 *     2.4342 *    -0.1803 *  0.0000     2          
   520  Na    c    -15.7773 *     0.1803 *    -2.4342 *  0.0000     2          
   521  Na    c      6.7617 *    -8.8353 *   -11.4498 *  0.0000     2          
   522  Na    c      9.0156 *    -6.5814 *   -11.4498 *  0.0000     2          
   523  Na    c      9.0156 *    11.4498 *     6.5814 *  0.0000     2          
   524  O     s      0.0000       0.1803 *     2.0736 *  0.0000     1          
   525  O     s      0.0000       0.1803 *    -2.4342 *  0.0000     1          
   526  Cl    s      2.2539 *    -2.0736 *    -0.1803 *  0.0000     2          
   527  Cl    s      2.2539 *     2.4342 *    -0.1803 *  0.0000     2          
   528  O     s      0.0000      -4.3275 *     2.0736 *  0.0000     1          
   529  O     s     -4.5078 *     0.1803 *     2.0736 *  0.0000     2          
   530  O     s      0.0000      -4.3275 *    -2.4342 *  0.0000     1          
   531  O     s      0.0000       4.6881 *     2.0736 *  0.0000     1          
   532  O     s     -4.5078 *     0.1803 *    -2.4342 *  0.0000     2          
   533  O     s      0.0000       4.6881 *    -2.4342 *  0.0000     1          
   534  Cl    s      2.2539 *    -2.0736 *     4.3275 *  0.0000     2          
   535  Cl    s      2.2539 *     2.4342 *     4.3275 *  0.0000     2          
   536  Cl    s      2.2539 *    -2.0736 *    -4.6881 *  0.0000     2          
   537  Cl    s      2.2539 *     2.4342 *    -4.6881 *  0.0000     2          
   538  O     s      0.0000       0.1803 *     6.5814 *  0.0000     1          
   539  O     s     -4.5078 *    -4.3275 *     2.0736 *  0.0000     2          
   540  O     s     -4.5078 *    -4.3275 *    -2.4342 *  0.0000     2          
   541  O     s     -4.5078 *     4.6881 *     2.0736 *  0.0000     2          
   542  O     s     -4.5078 *     4.6881 *    -2.4342 *  0.0000     2          
   543  O     s      0.0000       0.1803 *    -6.9420 *  0.0000     1          
   544  Cl    s      2.2539 *    -6.5814 *    -0.1803 *  0.0000     2          
   545  Cl    s      6.7617 *    -2.0736 *    -0.1803 *  0.0000     2          
   546  Cl    s      6.7617 *     2.4342 *    -0.1803 *  0.0000     2          
   547  Cl    s      2.2539 *     6.9420 *    -0.1803 *  0.0000     2          
   548  O     s      0.0000      -4.3275 *     6.5814 *  0.0000     1          
   549  O     s     -4.5078 *     0.1803 *     6.5814 *  0.0000     2          
   550  O     s      0.0000       4.6881 *     6.5814 *  0.0000     1          
   551  O     s      0.0000      -4.3275 *    -6.9420 *  0.0000     1          
   552  Cl    s      2.2539 *    -6.5814 *     4.3275 *  0.0000     2          
   553  O     s      4.5078 *     0.1803 *    -6.9420 *  0.0000     2          
   554  Cl    s      6.7617 *    -2.0736 *     4.3275 *  0.0000     2          
   555  O     s      0.0000       4.6881 *    -6.9420 *  0.0000     1          
   556  Cl    s      2.2539 *    -6.5814 *    -4.6881 *  0.0000     2          
   557  Cl    s      6.7617 *     2.4342 *     4.3275 *  0.0000     2          
   558  Cl    s      2.2539 *     6.9420 *     4.3275 *  0.0000     2          
   559  Cl    s      6.7617 *    -2.0736 *    -4.6881 *  0.0000     2          
   560  Cl    s      6.7617 *     2.4342 *    -4.6881 *  0.0000     2          
   561  Cl    s      2.2539 *     6.9420 *    -4.6881 *  0.0000     2          
   562  O     s     -4.5078 *    -4.3275 *     6.5814 *  0.0000     2          
   563  O     s      0.0000      -8.8353 *     2.0736 *  0.0000     1          
   564  O     s      0.0000      -8.8353 *    -2.4342 *  0.0000     1          
   565  O     s      9.0156 *     0.1803 *     2.0736 *  0.0000     2          
   566  O     s     -4.5078 *     4.6881 *     6.5814 *  0.0000     2          
   567  O     s      9.0156 *     0.1803 *    -2.4342 *  0.0000     2          
   568  O     s     -4.5078 *    -4.3275 *    -6.9420 *  0.0000     2          
   569  Cl    s      2.2539 *    -2.0736 *     8.8353 *  0.0000     2          
   570  O     s      0.0000       9.1959 *     2.0736 *  0.0000     1          
   571  Cl    s      2.2539 *     2.4342 *     8.8353 *  0.0000     2          
   572  Cl    s      6.7617 *    -6.5814 *    -0.1803 *  0.0000     2          
   573  O     s      0.0000       9.1959 *    -2.4342 *  0.0000     1          
   574  O     s      4.5078 *     4.6881 *    -6.9420 *  0.0000     2          
   575  Cl    s      2.2539 *    -2.0736 *    -9.1959 *  0.0000     2          
   576  Cl    s      6.7617 *     6.9420 *    -0.1803 *  0.0000     2          
   577  Cl    s      2.2539 *     2.4342 *    -9.1959 *  0.0000     2          
   578  O     s     -4.5078 *    -8.8353 *     2.0736 *  0.0000     2          
   579  O     s      9.0156 *    -4.3275 *     2.0736 *  0.0000     2          
   580  O     s     -4.5078 *    -8.8353 *    -2.4342 *  0.0000     2          
   581  O     s      9.0156 *    -4.3275 *    -2.4342 *  0.0000     2          
   582  O     s      9.0156 *     4.6881 *     2.0736 *  0.0000     2          
   583  Cl    s      6.7617 *    -6.5814 *     4.3275 *  0.0000     2          
   584  O     s     -4.5078 *     9.1959 *     2.0736 *  0.0000     2          
   585  O     s      9.0156 *     4.6881 *    -2.4342 *  0.0000     2          
   586  O     s     -4.5078 *     9.1959 *    -2.4342 *  0.0000     2          
   587  Cl    s      6.7617 *    -6.5814 *    -4.6881 *  0.0000     2          
   588  Cl    s      6.7617 *     6.9420 *     4.3275 *  0.0000     2          
   589  Cl    s      6.7617 *     6.9420 *    -4.6881 *  0.0000     2          
   590  O     s      0.0000      -8.8353 *     6.5814 *  0.0000     1          
   591  O     s      0.0000       0.1803 *    11.0892 *  0.0000     1          
   592  O     s      9.0156 *     0.1803 *     6.5814 *  0.0000     2          
   593  O     s      0.0000      -8.8353 *    -6.9420 *  0.0000     1          
   594  Cl    s      2.2539 *    -6.5814 *     8.8353 *  0.0000     2          
   595  O     s      0.0000       9.1959 *     6.5814 *  0.0000     1          
   596  Cl    s      2.2539 *   -11.0892 *    -0.1803 *  0.0000     2          
   597  Cl    s      6.7617 *    -2.0736 *     8.8353 *  0.0000     2          
   598  O     s      9.0156 *     0.1803 *    -6.9420 *  0.0000     2          
   599  Cl    s      6.7617 *     2.4342 *     8.8353 *  0.0000     2          
   600  O     s      0.0000       0.1803 *   -11.4498 *  0.0000     1          
   601  Cl    s      2.2539 *     6.9420 *     8.8353 *  0.0000     2          
   602  Cl    s     11.2695 *    -2.0736 *    -0.1803 *  0.0000     2          
   603  O     s      0.0000       9.1959 *    -6.9420 *  0.0000     1          
   604  Cl    s      2.2539 *    -6.5814 *    -9.1959 *  0.0000     2          
   605  Cl    s     11.2695 *     2.4342 *    -0.1803 *  0.0000     2          
   606  Cl    s      6.7617 *    -2.0736 *    -9.1959 *  0.0000     2          
   607  Cl    s      2.2539 *    11.4498 *    -0.1803 *  0.0000     2          
   608  Cl    s      6.7617 *     2.4342 *    -9.1959 *  0.0000     2          
   609  Cl    s      2.2539 *     6.9420 *    -9.1959 *  0.0000     2          
   610  O     s      0.0000      -4.3275 *    11.0892 *  0.0000     1          
   611  O     s     -4.5078 *    -8.8353 *     6.5814 *  0.0000     2          
   612  O     s      4.5078 *     0.1803 *    11.0892 *  0.0000     2          
   613  O     s      9.0156 *    -4.3275 *     6.5814 *  0.0000     2          
   614  O     s      0.0000       4.6881 *    11.0892 *  0.0000     1          
   615  O     s      9.0156 *     4.6881 *     6.5814 *  0.0000     2          
   616  O     s     -4.5078 *    -8.8353 *    -6.9420 *  0.0000     2          
   617  Cl    s      2.2539 *   -11.0892 *     4.3275 *  0.0000     2          
   618  O     s     -4.5078 *     9.1959 *     6.5814 *  0.0000     2          
   619  O     s      9.0156 *    -4.3275 *    -6.9420 *  0.0000     2          
   620  O     s      0.0000      -4.3275 *   -11.4498 *  0.0000     1          
   621  Cl    s      2.2539 *   -11.0892 *    -4.6881 *  0.0000     2          
   622  Cl    s     11.2695 *    -2.0736 *     4.3275 *  0.0000     2          
   623  O     s      9.0156 *     4.6881 *    -6.9420 *  0.0000     2          
   624  O     s     -4.5078 *     0.1803 *   -11.4498 *  0.0000     2          
   625  Cl    s     11.2695 *     2.4342 *     4.3275 *  0.0000     2          
   626  O     s     -4.5078 *     9.1959 *    -6.9420 *  0.0000     2          
   627  O     s      0.0000       4.6881 *   -11.4498 *  0.0000     1          
   628  Cl    s     11.2695 *    -2.0736 *    -4.6881 *  0.0000     2          
   629  Cl    s      2.2539 *    11.4498 *     4.3275 *  0.0000     2          
   630  Cl    s     11.2695 *     2.4342 *    -4.6881 *  0.0000     2          
   631  Cl    s      2.2539 *    11.4498 *    -4.6881 *  0.0000     2          
   632  O     s      4.5078 *    -4.3275 *    11.0892 *  0.0000     2          
   633  O     s      9.0156 *    -8.8353 *     2.0736 *  0.0000     2          
   634  O     s     -4.5078 *     4.6881 *    11.0892 *  0.0000     2          
   635  O     s      9.0156 *    -8.8353 *    -2.4342 *  0.0000     2          
   636  Cl    s      6.7617 *    -6.5814 *     8.8353 *  0.0000     2          
   637  Cl    s      6.7617 *   -11.0892 *    -0.1803 *  0.0000     2          
   638  O     s      9.0156 *     9.1959 *     2.0736 *  0.0000     2          
   639  O     s     -4.5078 *    -4.3275 *   -11.4498 *  0.0000     2          
   640  Cl    s     11.2695 *    -6.5814 *    -0.1803 *  0.0000     2          
   641  O     s      9.0156 *     9.1959 *    -2.4342 *  0.0000     2          
   642  Cl    s      6.7617 *     6.9420 *     8.8353 *  0.0000     2          
   643  O     s      4.5078 *     4.6881 *   -11.4498 *  0.0000     2          
   644  Cl    s      6.7617 *    -6.5814 *    -9.1959 *  0.0000     2          
   645  Cl    s     11.2695 *     6.9420 *    -0.1803 *  0.0000     2          
   646  Cl    s      6.7617 *    11.4498 *    -0.1803 *  0.0000     2          
   647  Cl    s      6.7617 *     6.9420 *    -9.1959 *  0.0000     2          
   648  O     s      0.0000     -13.3431 *     2.0736 *  0.0000     1          
   649  O     s      0.0000     -13.3431 *    -2.4342 *  0.0000     1          
[...]
    652 y          0.000000     -0.007687    -0.007687    Cartesian    0.00
    652 z         13.523362     13.566444     0.043083    Cartesian    0.32
    653 x         15.777255     15.771374    -0.005881    Cartesian   -0.04
    653 y          2.253894      2.255750     0.001857    Cartesian    0.08
    653 z         -2.253894     -2.237880     0.016014    Cartesian   -0.71
    654 x         13.523362     13.547170     0.023808    Cartesian    0.18
    654 y         -4.507787     -4.485647     0.022140    Cartesian   -0.49
    654 z          4.507787      4.518483     0.010696    Cartesian    0.24
    655 x          4.507787      4.493939    -0.013848    Cartesian   -0.31
    655 y          4.507787      4.507805     0.000018    Cartesian    0.00
    655 z         13.523362     13.545513     0.022151    Cartesian    0.16
    656 x          9.015574      9.050483     0.034909    Cartesian    0.39
    656 y         -9.015574     -9.027433    -0.011859    Cartesian    0.13
    656 z         -4.507787     -4.520198    -0.012410    Cartesian    0.28
    657 x          2.253894      2.253894     0.000000    Cartesian    0.00
    657 y         15.777255     15.765138    -0.012118    Cartesian   -0.08
    657 z          2.253894      2.264219     0.010325    Cartesian    0.46
    658 x         13.523362     13.549255     0.025893    Cartesian    0.19
    658 y         -4.507787     -4.492121     0.015667    Cartesian   -0.35
    658 z         -4.507787     -4.531852    -0.024064    Cartesian    0.53
    659 x          2.253894      2.253894     0.000000    Cartesian    0.00
    659 y         15.777255     15.767919    -0.009336    Cartesian   -0.06
    659 z         -2.253894     -2.258807    -0.004913    Cartesian    0.22
    660 x         13.523362     13.578610     0.055248    Cartesian    0.41
    660 y          9.015574      9.042169     0.026595    Cartesian    0.29
    660 z          4.507787      4.487381    -0.020406    Cartesian   -0.45
    661 x          9.015574      9.003579    -0.011996    Cartesian   -0.13
    661 y         13.523362     13.561250     0.037888    Cartesian    0.28
    661 z          4.507787      4.509400     0.001612    Cartesian    0.04
    662 x         13.523362     13.562558     0.039197    Cartesian    0.29
    662 y          9.015574      9.031142     0.015568    Cartesian    0.17
    662 z         -4.507787     -4.489639     0.018149    Cartesian   -0.40
    663 x          4.507787      4.549291     0.041504    Cartesian    0.92
    663 y          0.000000     -0.004994    -0.004994    Cartesian    0.00
    663 z        -13.523362    -13.535606    -0.012245    Cartesian    0.09
    664 x          9.015574      9.028798     0.013224    Cartesian    0.15
    664 y         13.523362     13.557701     0.034339    Cartesian    0.25
    664 z         -4.507787     -4.513086    -0.005298    Cartesian    0.12
    665 x          4.507787      4.475245    -0.032542    Cartesian   -0.72
    665 y          4.507787      4.505190    -0.002597    Cartesian   -0.06
    665 z        -13.523362    -13.551592    -0.028231    Cartesian    0.21
    666 x          2.253894      2.253894     0.000000    Cartesian    0.00
    666 y         -6.761681     -6.747595     0.014086    Cartesian   -0.21
    666 z         11.269468     11.261403    -0.008065    Cartesian   -0.07
    667 x          6.761681      6.767651     0.005970    Cartesian    0.09
    667 y        -11.269468    -11.254768     0.014700    Cartesian   -0.13
    667 z          2.253894      2.235536    -0.018358    Cartesian   -0.81
    668 x         11.269468     11.258594    -0.010874    Cartesian   -0.10
    668 y         -6.761681     -6.737361     0.024320    Cartesian   -0.36
    668 z          6.761681      6.754580    -0.007100    Cartesian   -0.11
    669 x         11.269468     11.264679    -0.004789    Cartesian   -0.04
    669 y          2.253894      2.234201    -0.019692    Cartesian   -0.87
    669 z         11.269468     11.258456    -0.011012    Cartesian   -0.10
    670 x          6.761681      6.765183     0.003502    Cartesian    0.05
    670 y        -11.269468    -11.252911     0.016557    Cartesian   -0.15
    670 z         -2.253894     -2.232950     0.020944    Cartesian   -0.93
    671 x         15.777255     15.774169    -0.003086    Cartesian   -0.02
    671 y         -2.253894     -2.235189     0.018705    Cartesian   -0.83
    671 z          2.253894      2.236812    -0.017082    Cartesian   -0.76
    672 x          4.507787      4.532251     0.024464    Cartesian    0.54
    672 y         -9.015574     -9.048908    -0.033334    Cartesian    0.37
    672 z          9.015574      9.038936     0.023361    Cartesian    0.26
    673 x          2.253894      2.253894     0.000000    Cartesian    0.00
    673 y         11.269468     11.267712    -0.001756    Cartesian   -0.02
    673 z         11.269468     11.257637    -0.011831    Cartesian   -0.10
    674 x         11.269468     11.265709    -0.003759    Cartesian   -0.03
    674 y         -6.761681     -6.735792     0.025888    Cartesian   -0.38
    674 z         -6.761681     -6.759814     0.001867    Cartesian   -0.03
    675 x         15.777255     15.777961     0.000706    Cartesian    0.00
    675 y         -2.253894     -2.235949     0.017945    Cartesian   -0.80
    675 z         -2.253894     -2.235368     0.018526    Cartesian   -0.82
    676 x         11.269468     11.267980    -0.001489    Cartesian   -0.01
    676 y         11.269468     11.254630    -0.014838    Cartesian   -0.13
    676 z          6.761681      6.745755    -0.015926    Cartesian   -0.24
    677 x          2.253894      2.253894     0.000000    Cartesian    0.00
    677 y         -6.761681     -6.786206    -0.024525    Cartesian    0.36
    677 z        -11.269468    -11.240794     0.028675    Cartesian   -0.25
    678 x         15.777255     15.773232    -0.004024    Cartesian   -0.03
    678 y          6.761681      6.748020    -0.013661    Cartesian   -0.20
    678 z          2.253894      2.252117    -0.001777    Cartesian   -0.08
    679 x         13.523362     13.582641     0.059279    Cartesian    0.44
    679 y          0.000000      0.011967     0.011967    Cartesian    0.00
    679 z          9.015574      9.040837     0.025263    Cartesian    0.28
    680 x         15.777255     15.773719    -0.003536    Cartesian   -0.02
    680 y          6.761681      6.747755    -0.013926    Cartesian   -0.21
    680 z         -2.253894     -2.250575     0.003318    Cartesian   -0.15
    681 x         13.523362     13.522024    -0.001337    Cartesian   -0.01
    681 y          4.507787      4.523507     0.015720    Cartesian    0.35
    681 z          9.015574      9.015940     0.000366    Cartesian    0.00
    682 x          6.761681      6.758975    -0.002706    Cartesian   -0.04
    682 y         15.777255     15.762455    -0.014800    Cartesian   -0.09
    682 z          2.253894      2.271619     0.017725    Cartesian    0.79
    683 x         11.269468     11.269825     0.000357    Cartesian    0.00
    683 y          2.253894      2.240721    -0.013173    Cartesian   -0.58
    683 z        -11.269468    -11.256822     0.012646    Cartesian   -0.11
    684 x          4.507787      4.524412     0.016625    Cartesian    0.37
    684 y         -9.015574     -9.027264    -0.011689    Cartesian    0.13
    684 z         -9.015574     -9.050454    -0.034879    Cartesian    0.39
    685 x          6.761681      6.758241    -0.003440    Cartesian   -0.05
    685 y         15.777255     15.762823    -0.014432    Cartesian   -0.09
    685 z         -2.253894     -2.275680    -0.021786    Cartesian    0.97
    686 x         11.269468     11.273699     0.004231    Cartesian    0.04
    686 y         11.269468     11.257145    -0.012324    Cartesian   -0.11
    686 z         -6.761681     -6.733769     0.027912    Cartesian   -0.41
    687 x          4.507787      4.507822     0.000035    Cartesian    0.00
    687 y         13.523362     13.549082     0.025720    Cartesian    0.19
    687 z          9.015574      9.031501     0.015926    Cartesian    0.18
    688 x          2.253894      2.253894     0.000000    Cartesian    0.00
    688 y         11.269468     11.263348    -0.006120    Cartesian   -0.05
    688 z        -11.269468    -11.270580    -0.001112    Cartesian    0.01
    689 x         13.523362     13.565956     0.042594    Cartesian    0.31
    689 y          0.000000      0.004423     0.004423    Cartesian    0.00
    689 z         -9.015574     -9.035571    -0.019997    Cartesian    0.22
    690 x         13.523362     13.519964    -0.003397    Cartesian   -0.03
    690 y          4.507787      4.510142     0.002354    Cartesian    0.05
    690 z         -9.015574     -9.029927    -0.014353    Cartesian    0.16
    691 x          4.507787      4.535529     0.027742    Cartesian    0.62
    691 y         13.523362     13.540551     0.017189    Cartesian    0.13
    691 z         -9.015574     -9.033445    -0.017871    Cartesian    0.20
    692 x          2.253894      2.253894     0.000000    Cartesian    0.00
    692 y        -11.269468    -11.267357     0.002111    Cartesian   -0.02
    692 z          6.761681      6.761829     0.000148    Cartesian    0.00
    693 x          6.761681      6.761153    -0.000528    Cartesian   -0.01
    693 y         -6.761681     -6.743277     0.018404    Cartesian   -0.27
    693 z         11.269468     11.271955     0.002487    Cartesian    0.02
    694 x         11.269468     11.264789    -0.004679    Cartesian   -0.04
    694 y         -2.253894     -2.244400     0.009494    Cartesian   -0.42
    694 z         11.269468     11.257039    -0.012429    Cartesian   -0.11
    695 x         11.269468     11.268898    -0.000570    Cartesian   -0.01
    695 y          6.761681      6.763351     0.001670    Cartesian    0.02
    695 z         11.269468     11.263614    -0.005854    Cartesian   -0.05
    696 x          2.253894      2.253894     0.000000    Cartesian    0.00
    696 y        -11.269468    -11.271032    -0.001564    Cartesian    0.01
    696 z         -6.761681     -6.740413     0.021268    Cartesian   -0.31
    697 x         15.777255     15.778604     0.001348    Cartesian    0.01
    697 y          2.253894      2.246655    -0.007239    Cartesian   -0.32
    697 z          6.761681      6.749542    -0.012139    Cartesian   -0.18
    698 x          4.507787      4.515569     0.007782    Cartesian    0.17
    698 y         -4.507787     -4.530537    -0.022750    Cartesian    0.50
    698 z         13.523362     13.534883     0.011522    Cartesian    0.09
    699 x          6.761681      6.762120     0.000440    Cartesian    0.01
    699 y         11.269468     11.273575     0.004107    Cartesian    0.04
    699 z         11.269468     11.249066    -0.020402    Cartesian   -0.18
    700 x          9.015574      9.034754     0.019180    Cartesian    0.21
    700 y          0.000000      0.000972     0.000972    Cartesian    0.00
    700 z         13.523362     13.596393     0.073031    Cartesian    0.54
    701 x         -2.253894     -2.254524    -0.000631    Cartesian    0.03
    701 y         -6.761681     -6.738220     0.023461    Cartesian   -0.35
    701 z        -11.269468    -11.274241    -0.004773    Cartesian    0.04
    702 x          9.015574      9.005060    -0.010515    Cartesian   -0.12
    702 y          4.507787      4.509308     0.001521    Cartesian    0.03
    702 z         13.523362     13.519293    -0.004068    Cartesian   -0.03
    703 x          2.253894      2.253894     0.000000    Cartesian    0.00
    703 y         15.777255     15.768312    -0.008943    Cartesian   -0.06
    703 z          6.761681      6.754678    -0.007003    Cartesian   -0.10
    704 x         11.269468     11.271886     0.002418    Cartesian    0.02
    704 y         -2.253894     -2.234883     0.019010    Cartesian   -0.84
    704 z        -11.269468    -11.255723     0.013745    Cartesian   -0.12
    705 x         15.777255     15.778519     0.001264    Cartesian    0.01
    705 y          2.253894      2.246319    -0.007575    Cartesian   -0.34
    705 z         -6.761681     -6.749933     0.011748    Cartesian   -0.17
    706 x          4.507787      4.505439    -0.002349    Cartesian   -0.05
    706 y          9.015574      9.021269     0.005694    Cartesian    0.06
    706 z         13.523362     13.582384     0.059022    Cartesian    0.44
    707 x         11.269468     11.272256     0.002788    Cartesian    0.02
    707 y          6.761681      6.770578     0.008897    Cartesian    0.13
    707 z        -11.269468    -11.253549     0.015919    Cartesian   -0.14
    708 x          2.253894      2.253894     0.000000    Cartesian    0.00
    708 y         15.777255     15.770274    -0.006982    Cartesian   -0.04
    708 z         -6.761681     -6.765068    -0.003388    Cartesian    0.05
    709 x         -2.253894     -2.257697    -0.003803    Cartesian    0.17
    709 y         11.269468     11.275472     0.006004    Cartesian    0.05
    709 z        -11.269468    -11.246643     0.022825    Cartesian   -0.20
    710 x          4.507787      4.520335     0.012548    Cartesian    0.28
    710 y         -4.507787     -4.511900    -0.004112    Cartesian    0.09
    710 z        -13.523362    -13.562213    -0.038851    Cartesian    0.29
    711 x          9.015574      9.042546     0.026971    Cartesian    0.30
    711 y          0.000000      0.005685     0.005685    Cartesian    0.00
    711 z        -13.523362    -13.588091    -0.064730    Cartesian    0.48
    712 x          9.015574      9.003016    -0.012559    Cartesian   -0.14
    712 y          4.507787      4.517404     0.009617    Cartesian    0.21
    712 z        -13.523362    -13.512280     0.011082    Cartesian   -0.08
    713 x          4.507787      4.517735     0.009948    Cartesian    0.22
    713 y          9.015574      9.028237     0.012663    Cartesian    0.14
    713 z        -13.523362    -13.550543    -0.027181    Cartesian    0.20
    714 x          6.761681      6.762762     0.001081    Cartesian    0.02
    714 y        -11.269468    -11.253816     0.015652    Cartesian   -0.14
    714 z          6.761681      6.769107     0.007426    Cartesian    0.11
    715 x          2.253894      2.253894     0.000000    Cartesian    0.00
    715 y          2.253894      2.236904    -0.016990    Cartesian   -0.75
    715 z         15.777255     15.763726    -0.013529    Cartesian   -0.09
    716 x         15.777255     15.773230    -0.004026    Cartesian   -0.03
    716 y         -2.253894     -2.249193     0.004701    Cartesian   -0.21
    716 z          6.761681      6.760701    -0.000980    Cartesian   -0.01
    717 x          6.761681      6.764028     0.002347    Cartesian    0.03
    717 y        -11.269468    -11.249257     0.020211    Cartesian   -0.18
    717 z         -6.761681     -6.774725    -0.013044    Cartesian    0.19
    718 x          9.015574      9.034304     0.018729    Cartesian    0.21
    718 y         -9.015574     -9.042801    -0.027226    Cartesian    0.30
    718 z          9.015574      9.012271    -0.003303    Cartesian   -0.04
    719 x         15.777255     15.780656     0.003401    Cartesian    0.02
    719 y          6.761681      6.760752    -0.000929    Cartesian   -0.01
    719 z          6.761681      6.753657    -0.008024    Cartesian   -0.12
    720 x          4.507787      4.547595     0.039808    Cartesian    0.88
    720 y        -13.523362    -13.578765    -0.055403    Cartesian    0.41
    720 z          0.000000     -0.009308    -0.009308    Cartesian    0.00
    721 x         13.523362     13.569249     0.045887    Cartesian    0.34
    721 y         -4.507787     -4.507479     0.000308    Cartesian   -0.01
    721 z          9.015574      9.017545     0.001971    Cartesian    0.02
    722 x         15.777255     15.774518    -0.002737    Cartesian   -0.02
    722 y         -2.253894     -2.248407     0.005487    Cartesian   -0.24
    722 z         -6.761681     -6.760934     0.000747    Cartesian   -0.01
    723 x         13.523362     13.595491     0.072130    Cartesian    0.53
    723 y         -9.015574     -8.992508     0.023067    Cartesian   -0.26
    723 z          0.000000     -0.006298    -0.006298    Cartesian    0.00
    724 x          6.761681      6.762824     0.001143    Cartesian    0.02
    724 y         15.777255     15.774570    -0.002685    Cartesian   -0.02
    724 z          6.761681      6.754765    -0.006916    Cartesian   -0.10
    725 x         15.777255     15.779145     0.001890    Cartesian    0.01
    725 y          6.761681      6.760950    -0.000731    Cartesian   -0.01
    725 z         -6.761681     -6.754758     0.006923    Cartesian   -0.10
    726 x        -13.523362    -13.585316    -0.061954    Cartesian    0.46
    726 y          0.000000      0.005492     0.005492    Cartesian    0.00
    726 z          0.000000      0.000147     0.000147    Cartesian    0.00
    727 x          9.015574      9.027770     0.012196    Cartesian    0.14
    727 y         -9.015574     -9.035797    -0.020222    Cartesian    0.22
    727 z         -9.015574     -9.025046    -0.009472    Cartesian    0.11
    728 x         13.523362     13.532044     0.008682    Cartesian    0.06
    728 y          9.015574      9.025441     0.009867    Cartesian    0.11
    728 z          9.015574      9.029501     0.013927    Cartesian    0.15
    729 x          2.253894      2.253894     0.000000    Cartesian    0.00
    729 y          2.253894      2.260936     0.007042    Cartesian    0.31
    729 z        -15.777255    -15.773661     0.003594    Cartesian   -0.02
    730 x          9.015574      9.009067    -0.006508    Cartesian   -0.07
    730 y         13.523362     13.559544     0.036183    Cartesian    0.27
    730 z          9.015574      9.030042     0.014468    Cartesian    0.16
    731 x         13.523362     13.559239     0.035877    Cartesian    0.27
    731 y         -4.507787     -4.512121    -0.004333    Cartesian    0.10
    731 z         -9.015574     -9.010862     0.004713    Cartesian   -0.05
    732 x        -13.523362    -13.591178    -0.067816    Cartesian    0.50
    732 y          4.507787      4.512279     0.004492    Cartesian    0.10
    732 z          0.000000     -0.001266    -0.001266    Cartesian    0.00
--------------------------------------------------------------------------------


  Time to end of optimisation  =      707.0240 seconds


  Peak dynamic memory used =     511.80 MB 


  Timing analysis for GULP :

--------------------------------------------------------------------------------
  Task / Subroutine                                          Time (Seconds)
--------------------------------------------------------------------------------
  Calculation of reciprocal space energy and derivatives          0.0006
  Calculation of reciprocal space energy using symmetry           0.0009
  Calculation of real space energy and derivatives                0.0037
  Calculation of real space energy using symmetry                 0.0083
  Calculation for region 1 energy and derivatives (2-b)         405.4278
  Calculation for region 2a energy                              207.7766
  Calculation for region 2b energy                                0.0299
  Calculation and manipulation of Hessian matrix                  1.2234
  Calculation of matrix inversion                                89.7202
  Symmetry generation of equivalent positions                     0.0042
--------------------------------------------------------------------------------
  Total CPU time                                                707.0241
--------------------------------------------------------------------------------


  Dump file written as Na3OCl.grs


  Job Finished at 21:59.03 30th November   2020                               

