********************************************************************************
*                       GENERAL UTILITY LATTICE PROGRAM                        *
*                                 Julian Gale                                  *
*                       Curtin Institute for Computation                       *
*                    School of Molecular and Life Sciences                     *
*                    Curtin University, Western Australia                      *
********************************************************************************
* Version = 5.2.0 * Last modified =  10th September 2020                       *
********************************************************************************
*  optimise     - perform optimisation run                                     *
*  conp         - constant pressure calculation                                *
*  property     - calculate properties for final geometry                      *
*  defect       - perform defect calculation after bulk run                    *
*  compare      - compare initial and final structures                         *
********************************************************************************

  Job Started  at 21:52.15 30th November   2020                               

  Number of CPUs =     1


  Total number of configurations input =      1

********************************************************************************
*  Input for Configuration =   1                                               *
********************************************************************************

  Formula = ClONa3                                                      

  Number of irreducible atoms/shells =       5


  Total number atoms/shells =       7

  Dimensionality = 3               :  Bulk   


  Symmetry :

  Crystal family                   :  Cubic       
  Crystal class  (Groth - 1921)    :  Cubic Hexakisoctahedral              

  Space group (centrosymmetric)    :  P M 3 M         

  Patterson group                  :  P m -3 m 

  Cartesian lattice vectors (Angstroms) :

        4.504000    0.000000    0.000000
        0.000000    4.504000    0.000000
        0.000000    0.000000    4.504000

  Cell parameters (Angstroms/Degrees):

  a =       4.5040    alpha =  90.0000
  b =       4.5040    beta  =  90.0000
  c =       4.5040    gamma =  90.0000

  Initial cell volume =          91.368216 Angs**3

  Temperature of configuration =   0.00     K 

  Pressure of configuration =         0.000 GPa 

  Fractional coordinates of asymmetric unit :

--------------------------------------------------------------------------------
   No.  Atomic       x           y          z         Charge      Occupancy
        Label      (Frac)      (Frac)     (Frac)        (e)         (Frac)  
--------------------------------------------------------------------------------
      1 Cl    c    0.000000    0.000000    0.000000     1.48500    1.000000    
      2 O     c    0.500000    0.500000    0.500000     0.18300    1.000000    
      3 Na    c    0.500000    0.500000    0.000000     1.00000    1.000000    
      4 Cl    s    0.000000    0.000000    0.000000    -2.48500    1.000000    
      5 O     s    0.500000    0.500000    0.500000    -2.18300    1.000000    
--------------------------------------------------------------------------------


  Constraints : 

--------------------------------------------------------------------------------
  Constraint no.      Unconstrained     Constrained    Coefficient    Offset
                         Variable         Variable
--------------------------------------------------------------------------------
           1              Strain 1        Strain 2       1.00000      0.0000
           2              Strain 1        Strain 3       1.00000      0.0000
--------------------------------------------------------------------------------


********************************************************************************
*  General input information                                                   *
********************************************************************************

  Species output for all configurations : 

--------------------------------------------------------------------------------
  Species    Type    Atomic    Atomic    Charge       Radii (Angs)     Library
                     Number     Mass       (e)     Cova   Ionic  VDW   Symbol
--------------------------------------------------------------------------------
    Na       Core       11      22.99   1.000000   0.970  0.000  2.300          
    O        Core        8      16.00   0.183000   0.730  0.000  1.360          
    O        Shell       8       0.00  -2.183000   0.730  0.000  1.360          
    Cl       Core       17      35.45   1.485000   0.990  0.000  1.650          
    Cl       Shell      17       0.00  -2.485000   0.990  0.000  1.650          
    Mg       Core       12      24.31   0.415000   1.100  0.000  0.000          
    Mg       Shell      12       0.00   1.585000   1.100  0.000  0.000          
    Ca       Core       20      40.08  -1.135000   0.990  0.000  0.000          
    Ca       Shell      20       0.00   3.135000   0.990  0.000  0.000          
    Sr       Core       38      87.62  -1.251000   1.120  0.000  0.000          
    Sr       Shell      38       0.00   3.251000   1.120  0.000  0.000          
    Ba       Core       56     137.33  -7.203000   1.340  0.000  0.000          
    Ba       Shell      56       0.00   9.203000   1.340  0.000  0.000          
--------------------------------------------------------------------------------


  Lattice summation method               =    Ewald          (3-D)
                                         =    Parry          (2-D)
                                         =    Saunders et al (1-D)
  Accuracy factor for lattice sums       =   12.000


  Analytic derivatives to be used

  Time limit = Infinity

  Maximum range for interatomic potentials =    100000.000000 Angstroms

  General interatomic potentials :

--------------------------------------------------------------------------------
Atom  Types   Potential      Parameter       Value         Units   Cutoffs(Ang)
  1     2                                                            Min /  Max 
--------------------------------------------------------------------------------
O    c O    s Spring (c-s)  Spring k 2       593.71600    eV*Ang^-2 0.000  0.800
                            Spring k 4       0.0000000    eV*Ang^-4 
--------------------------------------------------------------------------------
Cl   c Cl   s Spring (c-s)  Spring k 2       29.380000    eV*Ang^-2 0.000  0.800
                            Spring k 4       0.0000000    eV*Ang^-4 
--------------------------------------------------------------------------------
Mg   c Mg   s Spring (c-s)  Spring k 2       361.60000    eV*Ang^-2 0.000  0.800
                            Spring k 4       0.0000000    eV*Ang^-4 
--------------------------------------------------------------------------------
Ca   c Ca   s Spring (c-s)  Spring k 2       110.20000    eV*Ang^-2 0.000  0.800
                            Spring k 4       0.0000000    eV*Ang^-4 
--------------------------------------------------------------------------------
Sr   c Sr   s Spring (c-s)  Spring k 2       71.700000    eV*Ang^-2 0.000  0.800
                            Spring k 4       0.0000000    eV*Ang^-4 
--------------------------------------------------------------------------------
Ba   c Ba   s Spring (c-s)  Spring k 2       495.20000    eV*Ang^-2 0.000  0.800
                            Spring k 4       0.0000000    eV*Ang^-4 
--------------------------------------------------------------------------------
Na   c Na   c Buckingham    Buckingham A     1788.1900    eV        0.000 12.000
                            Buckingham rho  0.15900000    Ang       
                            Buckingham C     0.0000000    eV*Ang^6  
--------------------------------------------------------------------------------
Na   c O    s Buckingham    Buckingham A     1226.8400    eV        0.000 12.000
                            Buckingham rho  0.30700000    Ang       
                            Buckingham C     0.0000000    eV*Ang^6  
--------------------------------------------------------------------------------
Na   c Cl   s Buckingham    Buckingham A     2314.7000    eV        0.000 12.000
                            Buckingham rho  0.29000000    Ang       
                            Buckingham C     0.0000000    eV*Ang^6  
--------------------------------------------------------------------------------
O    s O    s Buckingham    Buckingham A     22764.300    eV        0.000 12.000
                            Buckingham rho  0.14900000    Ang       
                            Buckingham C     13.190000    eV*Ang^6  
--------------------------------------------------------------------------------
O    s Cl   s Buckingham    Buckingham A     8286.9100    eV        0.000 12.000
                            Buckingham rho  0.25900000    Ang       
                            Buckingham C     62.200000    eV*Ang^6  
--------------------------------------------------------------------------------
Cl   s Cl   s Buckingham    Buckingham A     1227.2000    eV        0.000 12.000
                            Buckingham rho  0.32100000    Ang       
                            Buckingham C     14.530000    eV*Ang^6  
--------------------------------------------------------------------------------
O    s Mg   s Buckingham    Buckingham A     1428.5000    eV        0.000 12.000
                            Buckingham rho  0.29450000    Ang       
                            Buckingham C     0.0000000    eV*Ang^6  
--------------------------------------------------------------------------------
Mg   s Cl   s Buckingham    Buckingham A     4914.5400    eV        0.000 12.000
                            Buckingham rho  0.25700000    Ang       
                            Buckingham C     0.0000000    eV*Ang^6  
--------------------------------------------------------------------------------
O    s Ca   s Buckingham    Buckingham A     1090.4000    eV        0.000 12.000
                            Buckingham rho  0.34370000    Ang       
                            Buckingham C     0.0000000    eV*Ang^6  
--------------------------------------------------------------------------------
Cl   s Ca   s Buckingham    Buckingham A     2302.0000    eV        0.000 12.000
                            Buckingham rho  0.34020000    Ang       
                            Buckingham C     0.0000000    eV*Ang^6  
--------------------------------------------------------------------------------
O    s Sr   s Buckingham    Buckingham A     959.10000    eV        0.000 12.000
                            Buckingham rho  0.37210000    Ang       
                            Buckingham C     0.0000000    eV*Ang^6  
--------------------------------------------------------------------------------
Cl   s Sr   s Buckingham    Buckingham A     2191.0900    eV        0.000 12.000
                            Buckingham rho  0.34570000    Ang       
                            Buckingham C     0.0000000    eV*Ang^6  
--------------------------------------------------------------------------------
O    s Ba   s Buckingham    Buckingham A     905.70000    eV        0.000 12.000
                            Buckingham rho  0.39760000    Ang       
                            Buckingham C     0.0000000    eV*Ang^6  
--------------------------------------------------------------------------------
Cl   s Ba   s Buckingham    Buckingham A     2704.5500    eV        0.000 12.000
                            Buckingham rho  0.35280000    Ang       
                            Buckingham C     0.0000000    eV*Ang^6  
--------------------------------------------------------------------------------

********************************************************************************
*  Output for configuration   1                                                *
********************************************************************************


  Components of energy : 

--------------------------------------------------------------------------------
  Interatomic potentials     =           5.13022605 eV    
  Monopole - monopole (real) =         -10.03624526 eV    
  Monopole - monopole (recip)=         -29.53581274 eV    
  Monopole - monopole (total)=         -39.57205800 eV    
--------------------------------------------------------------------------------
  Total lattice energy       =         -34.44183194 eV    
--------------------------------------------------------------------------------
  Total lattice energy       =           -3323.1103 kJ/(mole unit cells)
--------------------------------------------------------------------------------


  Number of variables =        1

  Maximum number of calculations  =          1000
  Maximum Hessian update interval =            10
  Maximum step size               =   1.000000000
  Maximum parameter tolerance     =   0.000010000
  Maximum function  tolerance     =   0.000010000
  Maximum gradient  tolerance     =   0.001000000
  Maximum gradient  component     =   0.010000000

  Symmetry constrained optimisation

  Symmetry used for second derivatives

  Cell parameters to be optimised using strains

  Newton-Raphson optimiser to be used

  BFGS hessian update to be used

  Lower half triangular hessian to be used

  Start of bulk optimisation :

  Cycle:      0 Energy:       -34.441832  Gnorm:      0.196570  CPU:    0.015
  ** Hessian calculated **
  Cycle:      1 Energy:       -34.441914  Gnorm:      0.000103  CPU:    0.019


  **** Optimisation achieved ****


  Final energy =     -34.44191447 eV
  Final Gnorm  =       0.00000000

  Components of energy : 

--------------------------------------------------------------------------------
  Interatomic potentials     =           5.09689708 eV    
  Monopole - monopole (real) =         -10.02781331 eV    
  Monopole - monopole (recip)=         -29.51099824 eV    
  Monopole - monopole (total)=         -39.53881155 eV    
--------------------------------------------------------------------------------
  Total lattice energy       =         -34.44191447 eV    
--------------------------------------------------------------------------------
  Total lattice energy       =           -3323.1183 kJ/(mole unit cells)
--------------------------------------------------------------------------------

  Final asymmetric unit coordinates :

--------------------------------------------------------------------------------
   No.  Atomic        x           y           z         Radius
        Label       (Frac)      (Frac)      (Frac)       (Angs) 
--------------------------------------------------------------------------------
     1  Cl    c     0.000000    0.000000    0.000000    0.000000
     2  O     c     0.500000    0.500000    0.500000    0.000000
     3  Na    c     0.500000    0.500000    0.000000    0.000000
     4  Cl    s     0.000000    0.000000    0.000000    0.000000
     5  O     s     0.500000    0.500000    0.500000    0.000000
--------------------------------------------------------------------------------

  Final Cartesian lattice vectors (Angstroms) :

        4.507787    0.000000    0.000000
        0.000000    4.507787    0.000000
        0.000000    0.000000    4.507787


  Final cell parameters and derivatives :

--------------------------------------------------------------------------------
       a            4.507787 Angstrom     dE/de1(xx)     0.000000 eV/strain
       b            4.507787 Angstrom     dE/de2(yy)     0.000000 eV/strain
       c            4.507787 Angstrom     dE/de3(zz)     0.000000 eV/strain
       alpha       90.000000 Degrees      dE/de4(yz)     0.000000 eV/strain
       beta        90.000000 Degrees      dE/de5(xz)     0.000000 eV/strain
       gamma       90.000000 Degrees      dE/de6(xy)     0.000000 eV/strain
--------------------------------------------------------------------------------

  Primitive cell volume =            91.598892 Angs**3

  Density of cell =      2.183054 g/cm**3

  Non-primitive cell volume =            91.598892 Angs**3


  Final internal derivatives :

--------------------------------------------------------------------------------
   No.  Atomic          a             b             c           Radius
        Label          (eV)          (eV)          (eV)        (eV/Angs)
--------------------------------------------------------------------------------
      1 Cl    c       0.000000      0.000000      0.000000      0.000000
      2 O     c       0.000000      0.000000      0.000000      0.000000
      3 Na    c       0.000000      0.000000      0.000000      0.000000
      4 Cl    s       0.000000      0.000000      0.000000      0.000000
      5 O     s       0.000000      0.000000      0.000000      0.000000
--------------------------------------------------------------------------------
  Maximum abs         0.000000      0.000000      0.000000      0.000000
--------------------------------------------------------------------------------

  Comparison of initial and final structures : 

--------------------------------------------------------------------------------
  Parameter   Initial value   Final value   Difference    Units      Percent
--------------------------------------------------------------------------------
    Volume        91.368216     91.598892     0.230676    Angs**3      0.25
    a              4.504000      4.507787     0.003787    Angstroms    0.08
    b              4.504000      4.507787     0.003787    Angstroms    0.08
    c              4.504000      4.507787     0.003787    Angstroms    0.08
    alpha         90.000000     90.000000     0.000000    Degrees      0.00
    beta          90.000000     90.000000     0.000000    Degrees      0.00
    gamma         90.000000     90.000000     0.000000    Degrees      0.00
      1 x          0.000000      0.000000     0.000000    Fractional   0.00
      1 y          0.000000      0.000000     0.000000    Fractional   0.00
      1 z          0.000000      0.000000     0.000000    Fractional   0.00
      2 x          0.500000      0.500000     0.000000    Fractional   0.00
      2 y          0.500000      0.500000     0.000000    Fractional   0.00
      2 z          0.500000      0.500000     0.000000    Fractional   0.00
      3 x          0.500000      0.500000     0.000000    Fractional   0.00
      3 y          0.500000      0.500000     0.000000    Fractional   0.00
      3 z          0.000000      0.000000     0.000000    Fractional   0.00
      4 x          0.000000      0.000000     0.000000    Fractional   0.00
      4 y          0.000000      0.000000     0.000000    Fractional   0.00
      4 z          0.000000      0.000000     0.000000    Fractional   0.00
      5 x          0.500000      0.500000     0.000000    Fractional   0.00
      5 y          0.500000      0.500000     0.000000    Fractional   0.00
      5 z          0.500000      0.500000     0.000000    Fractional   0.00
--------------------------------------------------------------------------------


  Born effective charge tensors : 

-------------------------------------------------------------------------------
  Atom             x           y             z
-------------------------------------------------------------------------------
    1 Cl    x      -1.0181     -0.0000      0.0000
            y      -0.0000     -1.0181      0.0000
            z       0.0000      0.0000     -1.0181
-------------------------------------------------------------------------------
    2 O     x      -2.2647      0.0000     -0.0000
            y       0.0000     -2.2647     -0.0000
            z      -0.0000     -0.0000     -2.2647
-------------------------------------------------------------------------------
    3 Na    x       1.2258     -0.0000      0.0000
            y      -0.0000      1.2258     -0.0000
            z       0.0000     -0.0000      0.8313
-------------------------------------------------------------------------------




  Elastic Constant Matrix: (Units=GPa)

-------------------------------------------------------------------------------
  Indices      1         2         3         4         5         6    
-------------------------------------------------------------------------------
       1     95.8177   20.0737   20.0737   -0.0000   -0.0000    0.0000
       2     20.0737   95.8177   20.0737   -0.0000   -0.0000    0.0000
       3     20.0737   20.0737   95.8177   -0.0000   -0.0000    0.0000
       4     -0.0000   -0.0000   -0.0000   20.0737   -0.0000    0.0000
       5     -0.0000   -0.0000   -0.0000   -0.0000   20.0737    0.0000
       6      0.0000    0.0000    0.0000    0.0000    0.0000   20.0737
-------------------------------------------------------------------------------


  Elastic Compliance Matrix: (Units=1/GPa)

-------------------------------------------------------------------------------
  Indices      1         2         3         4         5         6    
-------------------------------------------------------------------------------
       1    0.011253 -0.001949 -0.001949  0.000000  0.000000 -0.000000
       2   -0.001949  0.011253 -0.001949  0.000000  0.000000  0.000000
       3   -0.001949 -0.001949  0.011253  0.000000  0.000000 -0.000000
       4    0.000000  0.000000  0.000000  0.049816  0.000000 -0.000000
       5    0.000000  0.000000  0.000000  0.000000  0.049816 -0.000000
       6   -0.000000  0.000000 -0.000000 -0.000000 -0.000000  0.049816
-------------------------------------------------------------------------------

  Mechanical properties :

-------------------------------------------------------------------------------
  Convention :                    Reuss         Voigt         Hill
-------------------------------------------------------------------------------
  Bulk  Modulus (GPa)     =      45.32174      45.32174      45.32174
  Shear Modulus (GPa)     =      24.72085      27.19304      25.95695
-------------------------------------------------------------------------------
  Velocity S-wave (km/s)  =       3.36511       3.52937       3.44822
  Velocity P-wave (km/s)  =       5.98827       6.11304       6.05098
-------------------------------------------------------------------------------
  Compressibility (1/GPa) =    0.02206447
-------------------------------------------------------------------------------
  Stress axis :                     x             y             z
-------------------------------------------------------------------------------
  Youngs Moduli (GPa)     =      88.86373      88.86373      88.86373
-------------------------------------------------------------------------------
  Poissons Ratio (x)      =                     0.17321       0.17321
  Poissons Ratio (y)      =       0.17321                     0.17321
  Poissons Ratio (z)      =       0.17321       0.17321
-------------------------------------------------------------------------------


  Piezoelectric Strain Matrix: (Units=C/m**2)

-------------------------------------------------------------------------------
  Indices      1         2         3         4         5         6    
-------------------------------------------------------------------------------
       x    -0.00000  -0.00000  -0.00000   0.00000  -0.00000  -0.00000
       y    -0.00000  -0.00000   0.00000  -0.00000   0.00000   0.00000
       z    -0.00000  -0.00000  -0.00000  -0.00000   0.00000   0.00000
-------------------------------------------------------------------------------


  Piezoelectric Stress Matrix: (Units=10**-11 C/N)

-------------------------------------------------------------------------------
  Indices      1         2         3         4         5         6    
-------------------------------------------------------------------------------
       x    -0.00000   0.00000   0.00000   0.00000  -0.00000  -0.00000
       y    -0.00000  -0.00000   0.00000  -0.00000   0.00000   0.00000
       z     0.00000   0.00000  -0.00000  -0.00000   0.00000   0.00000
-------------------------------------------------------------------------------


  Static dielectric constant tensor : 

-------------------------------------------------------------------------------
              x         y         z
-------------------------------------------------------------------------------
       x    22.84729   0.00000   0.00000
       y     0.00000  22.84729  -0.00000
       z     0.00000  -0.00000  22.84729
--------------------------------------------------------------------------------

  High frequency dielectric constant tensor : 

-------------------------------------------------------------------------------
              x         y         z
-------------------------------------------------------------------------------
       x     1.47557   0.00000  -0.00000
       y     0.00000   1.47557  -0.00000
       z    -0.00000  -0.00000   1.47557
-------------------------------------------------------------------------------

  Static refractive indices : 

-------------------------------------------------------------------------------
    1 =    4.77988      2 =    4.77988      3 =    4.77988
-------------------------------------------------------------------------------

  High frequency refractive indices : 

-------------------------------------------------------------------------------
    1 =    1.21473      2 =    1.21473      3 =    1.21473
-------------------------------------------------------------------------------


  Time to end of optimisation =       0.0278 seconds

********************************************************************************
*  Defect calculation for configuration   1 :                                  *
********************************************************************************

  Total number of defects =      3

  Total charge on defect  =  -1.00

  Defect centre is at   0.5000   0.5000   0.0000  Frac

  Region 1 radius =  16.0000      Number of ions =   1346

  Number of symmetry inequivalent region 1 ions  =    753

  Region 2 radius =  20.0000      Number of ions =   1242

  Number of symmetry inequivalent region 2a ions =    661

  Region 2a mode = 4 : screened electrostatics due to region 1 
                       neglect correction to region 1 forces from 2a
                       region 2a displacements based on defects only

  Region 2a ions will only interact with defects in region 1

  Vacancies:

--------------------------------------------------------------------------------
    Specification type     Symbol/Number         x          y          z
--------------------------------------------------------------------------------
    Fractional                               0.500000   0.500000   0.000000
    Fractional                               0.500000   0.000000   0.500000
--------------------------------------------------------------------------------

  Interstitials:

--------------------------------------------------------------------------------
    Specification type     Symbol/Number         x          y          z
--------------------------------------------------------------------------------
    Atom/Fractional         Na               0.500000   0.500000   0.000000
--------------------------------------------------------------------------------


  Symmetry reduced region 1 (Relative to defect centre) :

--------------------------------------------------------------------------------
   No.   Atomic       x            y             z       Radius  Multiplicity   
         Label      (Angs)       (Angs)        (Angs)    (Angs)     
--------------------------------------------------------------------------------
     1  Na    c      0.0000       0.0000       0.0000    0.0000     1          
     2  O     c      0.0000       0.0000 *    -2.2539 *  0.0000     1          
     3  O     c      0.0000       0.0000 *     2.2539 *  0.0000     1          
     4  Cl    c      2.2539 *     2.2539 *     0.0000 *  0.0000     2          
     5  Cl    c      2.2539 *    -2.2539 *     0.0000 *  0.0000     2          
     6  Na    c      2.2539 *     0.0000 *    -2.2539 *  0.0000     2          
     7  Na    c      2.2539 *     0.0000 *     2.2539 *  0.0000     2          
     8  Na    c      0.0000       2.2539 *    -2.2539 *  0.0000     1          
     9  Na    c      0.0000       2.2539 *     2.2539 *  0.0000     1          
    10  Na    c      0.0000      -2.2539 *    -2.2539 *  0.0000     1          
    11  Na    c      0.0000       0.0000 *     4.5078 *  0.0000     1          
    12  Na    c      0.0000       0.0000 *    -4.5078 *  0.0000     1          
    13  Na    c      0.0000      -4.5078 *     0.0000 *  0.0000     1          
    14  Na    c     -4.5078 *     0.0000 *     0.0000 *  0.0000     2          
    15  Na    c      0.0000       4.5078 *     0.0000 *  0.0000     1          
    16  O     c      0.0000      -4.5078 *    -2.2539 *  0.0000     1          
    17  O     c      0.0000      -4.5078 *     2.2539 *  0.0000     1          
    18  O     c     -4.5078 *     0.0000 *    -2.2539 *  0.0000     2          
    19  O     c     -4.5078 *     0.0000 *     2.2539 *  0.0000     2          
    20  O     c      0.0000       4.5078 *    -2.2539 *  0.0000     1          
    21  O     c      0.0000       4.5078 *     2.2539 *  0.0000     1          
    22  Na    c      2.2539 *    -4.5078 *    -2.2539 *  0.0000     2          
    23  Na    c      2.2539 *    -4.5078 *     2.2539 *  0.0000     2          
    24  Na    c     -4.5078 *     2.2539 *    -2.2539 *  0.0000     2          
    25  Na    c     -4.5078 *     2.2539 *     2.2539 *  0.0000     2          
    26  Na    c     -4.5078 *    -2.2539 *    -2.2539 *  0.0000     2          
    27  Na    c     -4.5078 *    -2.2539 *     2.2539 *  0.0000     2          
    28  Cl    c      2.2539 *     2.2539 *     4.5078 *  0.0000     2          
    29  Cl    c      2.2539 *     2.2539 *    -4.5078 *  0.0000     2          
    30  Cl    c      2.2539 *    -2.2539 *     4.5078 *  0.0000     2          
    31  Cl    c      2.2539 *    -2.2539 *    -4.5078 *  0.0000     2          
    32  Na    c      2.2539 *     4.5078 *    -2.2539 *  0.0000     2          
    33  Na    c      2.2539 *     4.5078 *     2.2539 *  0.0000     2          
    34  Na    c      0.0000      -4.5078 *     4.5078 *  0.0000     1          
    35  Na    c      0.0000      -4.5078 *    -4.5078 *  0.0000     1          
    36  Na    c     -4.5078 *     0.0000 *     4.5078 *  0.0000     2          
    37  Na    c     -4.5078 *     0.0000 *    -4.5078 *  0.0000     2          
    38  Na    c     -4.5078 *    -4.5078 *     0.0000 *  0.0000     2          
    39  Na    c      0.0000       4.5078 *     4.5078 *  0.0000     1          
    40  Na    c      0.0000       4.5078 *    -4.5078 *  0.0000     1          
    41  Na    c     -4.5078 *     4.5078 *     0.0000 *  0.0000     2          
    42  O     c     -4.5078 *    -4.5078 *    -2.2539 *  0.0000     2          
    43  O     c     -4.5078 *    -4.5078 *     2.2539 *  0.0000     2          
    44  O     c      0.0000       0.0000 *     6.7617 *  0.0000     1          
    45  O     c      0.0000       0.0000 *    -6.7617 *  0.0000     1          
    46  O     c     -4.5078 *     4.5078 *    -2.2539 *  0.0000     2          
    47  O     c     -4.5078 *     4.5078 *     2.2539 *  0.0000     2          
    48  Cl    c      2.2539 *     6.7617 *     0.0000 *  0.0000     2          
    49  Cl    c      2.2539 *    -6.7617 *     0.0000 *  0.0000     2          
    50  Cl    c      6.7617 *     2.2539 *     0.0000 *  0.0000     2          
    51  Cl    c      6.7617 *    -2.2539 *     0.0000 *  0.0000     2          
    52  Na    c      2.2539 *     0.0000 *     6.7617 *  0.0000     2          
    53  Na    c      2.2539 *     0.0000 *    -6.7617 *  0.0000     2          
    54  Na    c      6.7617 *     0.0000 *    -2.2539 *  0.0000     2          
    55  Na    c      6.7617 *     0.0000 *     2.2539 *  0.0000     2          
    56  Na    c      0.0000       2.2539 *     6.7617 *  0.0000     1          
    57  Na    c      0.0000       2.2539 *    -6.7617 *  0.0000     1          
    58  Na    c      0.0000       6.7617 *    -2.2539 *  0.0000     1          
    59  Na    c      0.0000       6.7617 *     2.2539 *  0.0000     1          
    60  Na    c      0.0000      -2.2539 *     6.7617 *  0.0000     1          
    61  Na    c      0.0000      -2.2539 *    -6.7617 *  0.0000     1          
    62  Na    c      0.0000      -6.7617 *    -2.2539 *  0.0000     1          
    63  Na    c      0.0000      -6.7617 *     2.2539 *  0.0000     1          
    64  Na    c      4.5078 *    -4.5078 *     4.5078 *  0.0000     2          
    65  Na    c      4.5078 *    -4.5078 *    -4.5078 *  0.0000     2          
    66  Na    c     -4.5078 *     4.5078 *     4.5078 *  0.0000     2          
    67  Na    c     -4.5078 *     4.5078 *    -4.5078 *  0.0000     2          
    68  O     c      0.0000      -4.5078 *     6.7617 *  0.0000     1          
    69  O     c      0.0000      -4.5078 *    -6.7617 *  0.0000     1          
    70  O     c     -4.5078 *     0.0000 *     6.7617 *  0.0000     2          
    71  O     c     -4.5078 *     0.0000 *    -6.7617 *  0.0000     2          
    72  O     c      0.0000       4.5078 *     6.7617 *  0.0000     1          
    73  O     c      0.0000       4.5078 *    -6.7617 *  0.0000     1          
    74  Cl    c      2.2539 *     6.7617 *     4.5078 *  0.0000     2          
    75  Cl    c      2.2539 *     6.7617 *    -4.5078 *  0.0000     2          
    76  Cl    c      2.2539 *    -6.7617 *     4.5078 *  0.0000     2          
    77  Cl    c      2.2539 *    -6.7617 *    -4.5078 *  0.0000     2          
    78  Cl    c      6.7617 *     2.2539 *     4.5078 *  0.0000     2          
    79  Cl    c      6.7617 *     2.2539 *    -4.5078 *  0.0000     2          
    80  Cl    c      6.7617 *    -2.2539 *     4.5078 *  0.0000     2          
    81  Cl    c      6.7617 *    -2.2539 *    -4.5078 *  0.0000     2          
    82  Na    c      2.2539 *    -4.5078 *     6.7617 *  0.0000     2          
    83  Na    c      2.2539 *    -4.5078 *    -6.7617 *  0.0000     2          
    84  Na    c      6.7617 *    -4.5078 *    -2.2539 *  0.0000     2          
    85  Na    c      6.7617 *    -4.5078 *     2.2539 *  0.0000     2          
    86  Na    c     -4.5078 *     2.2539 *     6.7617 *  0.0000     2          
    87  Na    c     -4.5078 *     2.2539 *    -6.7617 *  0.0000     2          
    88  Na    c     -4.5078 *     6.7617 *    -2.2539 *  0.0000     2          
    89  Na    c     -4.5078 *     6.7617 *     2.2539 *  0.0000     2          
    90  Na    c     -4.5078 *    -2.2539 *     6.7617 *  0.0000     2          
    91  Na    c     -4.5078 *    -2.2539 *    -6.7617 *  0.0000     2          
    92  Na    c     -4.5078 *    -6.7617 *    -2.2539 *  0.0000     2          
    93  Na    c     -4.5078 *    -6.7617 *     2.2539 *  0.0000     2          
    94  Na    c      2.2539 *     4.5078 *     6.7617 *  0.0000     2          
    95  Na    c      2.2539 *     4.5078 *    -6.7617 *  0.0000     2          
    96  Na    c      6.7617 *     4.5078 *    -2.2539 *  0.0000     2          
    97  Na    c      6.7617 *     4.5078 *     2.2539 *  0.0000     2          
    98  Na    c      0.0000       0.0000 *     9.0156 *  0.0000     1          
    99  Na    c      0.0000       0.0000 *    -9.0156 *  0.0000     1          
   100  Na    c      0.0000       9.0156 *     0.0000 *  0.0000     1          
   101  Na    c      0.0000      -9.0156 *     0.0000 *  0.0000     1          
   102  Na    c      9.0156 *     0.0000 *     0.0000 *  0.0000     2          
   103  O     c      0.0000       9.0156 *    -2.2539 *  0.0000     1          
   104  O     c      0.0000       9.0156 *     2.2539 *  0.0000     1          
   105  O     c      0.0000      -9.0156 *    -2.2539 *  0.0000     1          
   106  O     c      0.0000      -9.0156 *     2.2539 *  0.0000     1          
   107  O     c      9.0156 *     0.0000 *    -2.2539 *  0.0000     2          
   108  O     c      9.0156 *     0.0000 *     2.2539 *  0.0000     2          
   109  O     c      4.5078 *     4.5078 *     6.7617 *  0.0000     2          
   110  O     c      4.5078 *     4.5078 *    -6.7617 *  0.0000     2          
   111  O     c      4.5078 *    -4.5078 *     6.7617 *  0.0000     2          
   112  O     c      4.5078 *    -4.5078 *    -6.7617 *  0.0000     2          
   113  Cl    c      2.2539 *     2.2539 *     9.0156 *  0.0000     2          
   114  Cl    c      2.2539 *     2.2539 *    -9.0156 *  0.0000     2          
   115  Cl    c      2.2539 *    -2.2539 *     9.0156 *  0.0000     2          
   116  Cl    c      2.2539 *    -2.2539 *    -9.0156 *  0.0000     2          
   117  Na    c      2.2539 *     9.0156 *    -2.2539 *  0.0000     2          
   118  Na    c      2.2539 *     9.0156 *     2.2539 *  0.0000     2          
   119  Na    c      2.2539 *    -9.0156 *    -2.2539 *  0.0000     2          
   120  Na    c      2.2539 *    -9.0156 *     2.2539 *  0.0000     2          
   121  Na    c      9.0156 *     2.2539 *    -2.2539 *  0.0000     2          
   122  Na    c      9.0156 *     2.2539 *     2.2539 *  0.0000     2          
   123  Na    c      9.0156 *    -2.2539 *    -2.2539 *  0.0000     2          
   124  Na    c      9.0156 *    -2.2539 *     2.2539 *  0.0000     2          
   125  Cl    c      6.7617 *     6.7617 *     0.0000 *  0.0000     2          
   126  Cl    c      6.7617 *    -6.7617 *     0.0000 *  0.0000     2          
   127  Na    c      6.7617 *     0.0000 *     6.7617 *  0.0000     2          
   128  Na    c      6.7617 *     0.0000 *    -6.7617 *  0.0000     2          
   129  Na    c      0.0000       6.7617 *     6.7617 *  0.0000     1          
   130  Na    c      0.0000       6.7617 *    -6.7617 *  0.0000     1          
   131  Na    c      0.0000      -6.7617 *     6.7617 *  0.0000     1          
   132  Na    c      0.0000      -6.7617 *    -6.7617 *  0.0000     1          
   133  Na    c      0.0000       9.0156 *     4.5078 *  0.0000     1          
   134  Na    c      0.0000       9.0156 *    -4.5078 *  0.0000     1          
   135  Na    c      0.0000      -4.5078 *     9.0156 *  0.0000     1          
   136  Na    c      0.0000      -4.5078 *    -9.0156 *  0.0000     1          
   137  Na    c      0.0000      -9.0156 *     4.5078 *  0.0000     1          
   138  Na    c      0.0000      -9.0156 *    -4.5078 *  0.0000     1          
   139  Na    c      9.0156 *     0.0000 *     4.5078 *  0.0000     2          
   140  Na    c      9.0156 *     0.0000 *    -4.5078 *  0.0000     2          
   141  Na    c      9.0156 *    -4.5078 *     0.0000 *  0.0000     2          
   142  Na    c     -4.5078 *     0.0000 *     9.0156 *  0.0000     2          
   143  Na    c     -4.5078 *     0.0000 *    -9.0156 *  0.0000     2          
   144  Na    c     -4.5078 *     9.0156 *     0.0000 *  0.0000     2          
   145  Na    c     -4.5078 *    -9.0156 *     0.0000 *  0.0000     2          
   146  Na    c      0.0000       4.5078 *     9.0156 *  0.0000     1          
   147  Na    c      0.0000       4.5078 *    -9.0156 *  0.0000     1          
   148  Na    c      9.0156 *     4.5078 *     0.0000 *  0.0000     2          
   149  O     c      9.0156 *    -4.5078 *    -2.2539 *  0.0000     2          
   150  O     c      9.0156 *    -4.5078 *     2.2539 *  0.0000     2          
   151  O     c     -4.5078 *     9.0156 *    -2.2539 *  0.0000     2          
   152  O     c     -4.5078 *     9.0156 *     2.2539 *  0.0000     2          
   153  O     c     -4.5078 *    -9.0156 *    -2.2539 *  0.0000     2          
   154  O     c     -4.5078 *    -9.0156 *     2.2539 *  0.0000     2          
   155  O     c      9.0156 *     4.5078 *    -2.2539 *  0.0000     2          
   156  O     c      9.0156 *     4.5078 *     2.2539 *  0.0000     2          
   157  Cl    c      6.7617 *     6.7617 *     4.5078 *  0.0000     2          
   158  Cl    c      6.7617 *     6.7617 *    -4.5078 *  0.0000     2          
   159  Cl    c      6.7617 *    -6.7617 *     4.5078 *  0.0000     2          
   160  Cl    c      6.7617 *    -6.7617 *    -4.5078 *  0.0000     2          
   161  Na    c      6.7617 *    -4.5078 *     6.7617 *  0.0000     2          
   162  Na    c      6.7617 *    -4.5078 *    -6.7617 *  0.0000     2          
   163  Na    c     -4.5078 *     6.7617 *     6.7617 *  0.0000     2          
   164  Na    c     -4.5078 *     6.7617 *    -6.7617 *  0.0000     2          
   165  Na    c     -4.5078 *    -6.7617 *     6.7617 *  0.0000     2          
   166  Na    c     -4.5078 *    -6.7617 *    -6.7617 *  0.0000     2          
   167  Na    c      6.7617 *     4.5078 *     6.7617 *  0.0000     2          
   168  Na    c      6.7617 *     4.5078 *    -6.7617 *  0.0000     2          
   169  Na    c      9.0156 *    -4.5078 *     4.5078 *  0.0000     2          
   170  Na    c      9.0156 *    -4.5078 *    -4.5078 *  0.0000     2          
   171  Na    c     -4.5078 *     9.0156 *     4.5078 *  0.0000     2          
   172  Na    c     -4.5078 *     9.0156 *    -4.5078 *  0.0000     2          
   173  Na    c     -4.5078 *    -9.0156 *     4.5078 *  0.0000     2          
   174  Na    c     -4.5078 *    -9.0156 *    -4.5078 *  0.0000     2          
   175  Na    c      4.5078 *     4.5078 *     9.0156 *  0.0000     2          
   176  Na    c      4.5078 *     4.5078 *    -9.0156 *  0.0000     2          
   177  Na    c      4.5078 *    -4.5078 *     9.0156 *  0.0000     2          
   178  Na    c      4.5078 *    -4.5078 *    -9.0156 *  0.0000     2          
   179  Na    c      9.0156 *     4.5078 *     4.5078 *  0.0000     2          
   180  Na    c      9.0156 *     4.5078 *    -4.5078 *  0.0000     2          
   181  O     c      0.0000       0.0000 *    11.2695 *  0.0000     1          
   182  O     c      0.0000       0.0000 *   -11.2695 *  0.0000     1          
   183  O     c      0.0000       9.0156 *     6.7617 *  0.0000     1          
   184  O     c      0.0000       9.0156 *    -6.7617 *  0.0000     1          
   185  O     c      0.0000      -9.0156 *     6.7617 *  0.0000     1          
   186  O     c      0.0000      -9.0156 *    -6.7617 *  0.0000     1          
   187  O     c      9.0156 *     0.0000 *     6.7617 *  0.0000     2          
   188  O     c      9.0156 *     0.0000 *    -6.7617 *  0.0000     2          
   189  Cl    c      2.2539 *    11.2695 *     0.0000 *  0.0000     2          
   190  Cl    c      2.2539 *   -11.2695 *     0.0000 *  0.0000     2          
   191  Cl    c     11.2695 *     2.2539 *     0.0000 *  0.0000     2          
   192  Cl    c     11.2695 *    -2.2539 *     0.0000 *  0.0000     2          
   193  Na    c      2.2539 *     0.0000 *    11.2695 *  0.0000     2          
   194  Na    c      2.2539 *     0.0000 *   -11.2695 *  0.0000     2          
   195  Na    c     11.2695 *     0.0000 *    -2.2539 *  0.0000     2          
   196  Na    c     11.2695 *     0.0000 *     2.2539 *  0.0000     2          
   197  Na    c      0.0000       2.2539 *    11.2695 *  0.0000     1          
   198  Na    c      0.0000       2.2539 *   -11.2695 *  0.0000     1          
   199  Na    c      0.0000      11.2695 *    -2.2539 *  0.0000     1          
   200  Na    c      0.0000      11.2695 *     2.2539 *  0.0000     1          
   201  Na    c      0.0000      -2.2539 *    11.2695 *  0.0000     1          
   202  Na    c      0.0000      -2.2539 *   -11.2695 *  0.0000     1          
   203  Na    c      0.0000     -11.2695 *    -2.2539 *  0.0000     1          
   204  Na    c      0.0000     -11.2695 *     2.2539 *  0.0000     1          
   205  Cl    c      2.2539 *     6.7617 *     9.0156 *  0.0000     2          
   206  Cl    c      2.2539 *     6.7617 *    -9.0156 *  0.0000     2          
   207  Cl    c      2.2539 *    -6.7617 *     9.0156 *  0.0000     2          
   208  Cl    c      2.2539 *    -6.7617 *    -9.0156 *  0.0000     2          
   209  Cl    c      6.7617 *     2.2539 *     9.0156 *  0.0000     2          
   210  Cl    c      6.7617 *     2.2539 *    -9.0156 *  0.0000     2          
   211  Cl    c      6.7617 *    -2.2539 *     9.0156 *  0.0000     2          
   212  Cl    c      6.7617 *    -2.2539 *    -9.0156 *  0.0000     2          
   213  Na    c      2.2539 *     9.0156 *     6.7617 *  0.0000     2          
   214  Na    c      2.2539 *     9.0156 *    -6.7617 *  0.0000     2          
   215  Na    c      2.2539 *    -9.0156 *     6.7617 *  0.0000     2          
   216  Na    c      2.2539 *    -9.0156 *    -6.7617 *  0.0000     2          
   217  Na    c      6.7617 *     9.0156 *    -2.2539 *  0.0000     2          
   218  Na    c      6.7617 *     9.0156 *     2.2539 *  0.0000     2          
   219  Na    c      6.7617 *    -9.0156 *    -2.2539 *  0.0000     2          
   220  Na    c      6.7617 *    -9.0156 *     2.2539 *  0.0000     2          
   221  Na    c      9.0156 *     2.2539 *     6.7617 *  0.0000     2          
   222  Na    c      9.0156 *     2.2539 *    -6.7617 *  0.0000     2          
   223  Na    c      9.0156 *     6.7617 *    -2.2539 *  0.0000     2          
   224  Na    c      9.0156 *     6.7617 *     2.2539 *  0.0000     2          
   225  Na    c      9.0156 *    -2.2539 *     6.7617 *  0.0000     2          
   226  Na    c      9.0156 *    -2.2539 *    -6.7617 *  0.0000     2          
   227  Na    c      9.0156 *    -6.7617 *    -2.2539 *  0.0000     2          
   228  Na    c      9.0156 *    -6.7617 *     2.2539 *  0.0000     2          
   229  O     c      0.0000       4.5078 *    11.2695 *  0.0000     1          
   230  O     c      0.0000       4.5078 *   -11.2695 *  0.0000     1          
   231  O     c      0.0000      -4.5078 *    11.2695 *  0.0000     1          
   232  O     c      0.0000      -4.5078 *   -11.2695 *  0.0000     1          
   233  O     c      4.5078 *     0.0000 *    11.2695 *  0.0000     2          
   234  O     c      4.5078 *     0.0000 *   -11.2695 *  0.0000     2          
   235  O     c      4.5078 *     9.0156 *     6.7617 *  0.0000     2          
   236  O     c      4.5078 *     9.0156 *    -6.7617 *  0.0000     2          
   237  O     c      4.5078 *    -9.0156 *     6.7617 *  0.0000     2          
   238  O     c      4.5078 *    -9.0156 *    -6.7617 *  0.0000     2          
   239  O     c      9.0156 *     4.5078 *     6.7617 *  0.0000     2          
   240  O     c      9.0156 *     4.5078 *    -6.7617 *  0.0000     2          
   241  O     c      9.0156 *    -4.5078 *     6.7617 *  0.0000     2          
   242  O     c      9.0156 *    -4.5078 *    -6.7617 *  0.0000     2          
   243  Cl    c      2.2539 *    11.2695 *     4.5078 *  0.0000     2          
   244  Cl    c      2.2539 *    11.2695 *    -4.5078 *  0.0000     2          
   245  Cl    c      2.2539 *   -11.2695 *     4.5078 *  0.0000     2          
   246  Cl    c      2.2539 *   -11.2695 *    -4.5078 *  0.0000     2          
   247  Cl    c     11.2695 *     2.2539 *     4.5078 *  0.0000     2          
   248  Cl    c     11.2695 *     2.2539 *    -4.5078 *  0.0000     2          
   249  Cl    c     11.2695 *    -2.2539 *     4.5078 *  0.0000     2          
   250  Cl    c     11.2695 *    -2.2539 *    -4.5078 *  0.0000     2          
   251  Na    c      2.2539 *     4.5078 *    11.2695 *  0.0000     2          
   252  Na    c      2.2539 *     4.5078 *   -11.2695 *  0.0000     2          
   253  Na    c      2.2539 *    -4.5078 *    11.2695 *  0.0000     2          
   254  Na    c      2.2539 *    -4.5078 *   -11.2695 *  0.0000     2          
   255  Na    c     11.2695 *     4.5078 *    -2.2539 *  0.0000     2          
   256  Na    c     11.2695 *     4.5078 *     2.2539 *  0.0000     2          
   257  Na    c     11.2695 *    -4.5078 *    -2.2539 *  0.0000     2          
   258  Na    c     11.2695 *    -4.5078 *     2.2539 *  0.0000     2          
   259  Na    c      4.5078 *     2.2539 *    11.2695 *  0.0000     2          
   260  Na    c      4.5078 *     2.2539 *   -11.2695 *  0.0000     2          
   261  Na    c      4.5078 *    11.2695 *    -2.2539 *  0.0000     2          
   262  Na    c      4.5078 *    11.2695 *     2.2539 *  0.0000     2          
   263  Na    c      4.5078 *    -2.2539 *    11.2695 *  0.0000     2          
   264  Na    c      4.5078 *    -2.2539 *   -11.2695 *  0.0000     2          
   265  Na    c      4.5078 *   -11.2695 *    -2.2539 *  0.0000     2          
   266  Na    c      4.5078 *   -11.2695 *     2.2539 *  0.0000     2          
   267  Na    c      0.0000       9.0156 *     9.0156 *  0.0000     1          
   268  Na    c      0.0000       9.0156 *    -9.0156 *  0.0000     1          
   269  Na    c      0.0000      -9.0156 *     9.0156 *  0.0000     1          
   270  Na    c      0.0000      -9.0156 *    -9.0156 *  0.0000     1          
   271  Na    c      9.0156 *     0.0000 *     9.0156 *  0.0000     2          
   272  Na    c      9.0156 *     0.0000 *    -9.0156 *  0.0000     2          
   273  Na    c      9.0156 *     9.0156 *     0.0000 *  0.0000     2          
   274  Na    c      9.0156 *    -9.0156 *     0.0000 *  0.0000     2          
   275  O     c     -4.5078 *    -4.5078 *    11.2695 *  0.0000     2          
   276  O     c     -4.5078 *    -4.5078 *   -11.2695 *  0.0000     2          
   277  O     c      4.5078 *     4.5078 *    11.2695 *  0.0000     2          
   278  O     c      4.5078 *     4.5078 *   -11.2695 *  0.0000     2          
   279  O     c      9.0156 *     9.0156 *    -2.2539 *  0.0000     2          
   280  O     c      9.0156 *     9.0156 *     2.2539 *  0.0000     2          
   281  O     c      9.0156 *    -9.0156 *    -2.2539 *  0.0000     2          
   282  O     c      9.0156 *    -9.0156 *     2.2539 *  0.0000     2          
   283  Cl    c      6.7617 *    11.2695 *     0.0000 *  0.0000     2          
   284  Cl    c      6.7617 *   -11.2695 *     0.0000 *  0.0000     2          
   285  Cl    c     11.2695 *     6.7617 *     0.0000 *  0.0000     2          
   286  Cl    c     11.2695 *    -6.7617 *     0.0000 *  0.0000     2          
   287  Na    c      6.7617 *     0.0000 *    11.2695 *  0.0000     2          
   288  Na    c      6.7617 *     0.0000 *   -11.2695 *  0.0000     2          
   289  Na    c     11.2695 *     0.0000 *     6.7617 *  0.0000     2          
   290  Na    c     11.2695 *     0.0000 *    -6.7617 *  0.0000     2          
   291  Na    c      0.0000       6.7617 *    11.2695 *  0.0000     1          
   292  Na    c      0.0000       6.7617 *   -11.2695 *  0.0000     1          
   293  Na    c      0.0000      11.2695 *     6.7617 *  0.0000     1          
   294  Na    c      0.0000      11.2695 *    -6.7617 *  0.0000     1          
   295  Na    c      0.0000      -6.7617 *    11.2695 *  0.0000     1          
   296  Na    c      0.0000      -6.7617 *   -11.2695 *  0.0000     1          
   297  Na    c      0.0000     -11.2695 *     6.7617 *  0.0000     1          
   298  Na    c      0.0000     -11.2695 *    -6.7617 *  0.0000     1          
   299  Cl    c      6.7617 *     6.7617 *     9.0156 *  0.0000     2          
   300  Cl    c      6.7617 *     6.7617 *    -9.0156 *  0.0000     2          
   301  Cl    c      6.7617 *    -6.7617 *     9.0156 *  0.0000     2          
   302  Cl    c      6.7617 *    -6.7617 *    -9.0156 *  0.0000     2          
   303  Na    c      6.7617 *     9.0156 *     6.7617 *  0.0000     2          
   304  Na    c      6.7617 *     9.0156 *    -6.7617 *  0.0000     2          
   305  Na    c      6.7617 *    -9.0156 *     6.7617 *  0.0000     2          
   306  Na    c      6.7617 *    -9.0156 *    -6.7617 *  0.0000     2          
   307  Na    c      9.0156 *     6.7617 *     6.7617 *  0.0000     2          
   308  Na    c      9.0156 *     6.7617 *    -6.7617 *  0.0000     2          
   309  Na    c      9.0156 *    -6.7617 *     6.7617 *  0.0000     2          
   310  Na    c      9.0156 *    -6.7617 *    -6.7617 *  0.0000     2          
   311  Na    c      9.0156 *     9.0156 *     4.5078 *  0.0000     2          
   312  Na    c      9.0156 *     9.0156 *    -4.5078 *  0.0000     2          
   313  Na    c      9.0156 *    -4.5078 *     9.0156 *  0.0000     2          
   314  Na    c      9.0156 *    -4.5078 *    -9.0156 *  0.0000     2          
   315  Na    c      9.0156 *    -9.0156 *     4.5078 *  0.0000     2          
   316  Na    c      9.0156 *    -9.0156 *    -4.5078 *  0.0000     2          
   317  Na    c     -4.5078 *     9.0156 *     9.0156 *  0.0000     2          
   318  Na    c     -4.5078 *     9.0156 *    -9.0156 *  0.0000     2          
   319  Na    c     -4.5078 *    -9.0156 *     9.0156 *  0.0000     2          
   320  Na    c     -4.5078 *    -9.0156 *    -9.0156 *  0.0000     2          
   321  Na    c      0.0000       0.0000 *    13.5234 *  0.0000     1          
   322  Na    c      0.0000       0.0000 *   -13.5234 *  0.0000     1          
   323  Na    c      0.0000      13.5234 *     0.0000 *  0.0000     1          
   324  Na    c      0.0000     -13.5234 *     0.0000 *  0.0000     1          
   325  Na    c      9.0156 *     4.5078 *     9.0156 *  0.0000     2          
   326  Na    c      9.0156 *     4.5078 *    -9.0156 *  0.0000     2          
   327  Na    c     13.5234 *     0.0000 *     0.0000 *  0.0000     2          
   328  O     c      0.0000      13.5234 *    -2.2539 *  0.0000     1          
   329  O     c      0.0000      13.5234 *     2.2539 *  0.0000     1          
   330  O     c      0.0000     -13.5234 *    -2.2539 *  0.0000     1          
   331  O     c      0.0000     -13.5234 *     2.2539 *  0.0000     1          
   332  O     c     13.5234 *     0.0000 *    -2.2539 *  0.0000     2          
   333  O     c     13.5234 *     0.0000 *     2.2539 *  0.0000     2          
   334  Cl    c      6.7617 *    11.2695 *     4.5078 *  0.0000     2          
   335  Cl    c      6.7617 *    11.2695 *    -4.5078 *  0.0000     2          
   336  Cl    c      6.7617 *   -11.2695 *     4.5078 *  0.0000     2          
   337  Cl    c      6.7617 *   -11.2695 *    -4.5078 *  0.0000     2          
   338  Cl    c     11.2695 *     6.7617 *     4.5078 *  0.0000     2          
   339  Cl    c     11.2695 *     6.7617 *    -4.5078 *  0.0000     2          
   340  Cl    c     11.2695 *    -6.7617 *     4.5078 *  0.0000     2          
   341  Cl    c     11.2695 *    -6.7617 *    -4.5078 *  0.0000     2          
   342  Na    c      6.7617 *    -4.5078 *    11.2695 *  0.0000     2          
   343  Na    c      6.7617 *    -4.5078 *   -11.2695 *  0.0000     2          
   344  Na    c     11.2695 *     4.5078 *     6.7617 *  0.0000     2          
   345  Na    c     11.2695 *     4.5078 *    -6.7617 *  0.0000     2          
   346  Na    c     11.2695 *    -4.5078 *     6.7617 *  0.0000     2          
   347  Na    c     11.2695 *    -4.5078 *    -6.7617 *  0.0000     2          
   348  Na    c      4.5078 *    11.2695 *     6.7617 *  0.0000     2          
   349  Na    c      4.5078 *    11.2695 *    -6.7617 *  0.0000     2          
   350  Na    c      4.5078 *   -11.2695 *     6.7617 *  0.0000     2          
   351  Na    c      4.5078 *   -11.2695 *    -6.7617 *  0.0000     2          
   352  Na    c     -4.5078 *     6.7617 *    11.2695 *  0.0000     2          
   353  Na    c     -4.5078 *     6.7617 *   -11.2695 *  0.0000     2          
   354  Na    c     -4.5078 *    -6.7617 *    11.2695 *  0.0000     2          
   355  Na    c     -4.5078 *    -6.7617 *   -11.2695 *  0.0000     2          
   356  Na    c      6.7617 *     4.5078 *    11.2695 *  0.0000     2          
   357  Na    c      6.7617 *     4.5078 *   -11.2695 *  0.0000     2          
   358  Cl    c      2.2539 *     2.2539 *    13.5234 *  0.0000     2          
   359  Cl    c      2.2539 *     2.2539 *   -13.5234 *  0.0000     2          
   360  Cl    c      2.2539 *    -2.2539 *    13.5234 *  0.0000     2          
   361  Cl    c      2.2539 *    -2.2539 *   -13.5234 *  0.0000     2          
   362  Na    c      2.2539 *    13.5234 *    -2.2539 *  0.0000     2          
   363  Na    c      2.2539 *    13.5234 *     2.2539 *  0.0000     2          
   364  Na    c      2.2539 *   -13.5234 *    -2.2539 *  0.0000     2          
   365  Na    c      2.2539 *   -13.5234 *     2.2539 *  0.0000     2          
   366  Na    c     13.5234 *     2.2539 *    -2.2539 *  0.0000     2          
   367  Na    c     13.5234 *     2.2539 *     2.2539 *  0.0000     2          
   368  Na    c     13.5234 *    -2.2539 *    -2.2539 *  0.0000     2          
   369  Na    c     13.5234 *    -2.2539 *     2.2539 *  0.0000     2          
   370  Na    c      0.0000       4.5078 *    13.5234 *  0.0000     1          
   371  Na    c      0.0000       4.5078 *   -13.5234 *  0.0000     1          
   372  Na    c      0.0000      13.5234 *     4.5078 *  0.0000     1          
   373  Na    c      0.0000      13.5234 *    -4.5078 *  0.0000     1          
   374  Na    c      0.0000      -4.5078 *    13.5234 *  0.0000     1          
   375  Na    c      0.0000      -4.5078 *   -13.5234 *  0.0000     1          
   376  Na    c      0.0000     -13.5234 *     4.5078 *  0.0000     1          
   377  Na    c      0.0000     -13.5234 *    -4.5078 *  0.0000     1          
   378  Na    c      4.5078 *     0.0000 *    13.5234 *  0.0000     2          
   379  Na    c      4.5078 *     0.0000 *   -13.5234 *  0.0000     2          
   380  Na    c      4.5078 *    13.5234 *     0.0000 *  0.0000     2          
   381  Na    c      4.5078 *   -13.5234 *     0.0000 *  0.0000     2          
   382  Na    c     13.5234 *     0.0000 *     4.5078 *  0.0000     2          
   383  Na    c     13.5234 *     0.0000 *    -4.5078 *  0.0000     2          
   384  Na    c     13.5234 *     4.5078 *     0.0000 *  0.0000     2          
   385  Na    c     13.5234 *    -4.5078 *     0.0000 *  0.0000     2          
   386  O     c      0.0000       9.0156 *    11.2695 *  0.0000     1          
   387  O     c      0.0000       9.0156 *   -11.2695 *  0.0000     1          
   388  O     c      0.0000      -9.0156 *    11.2695 *  0.0000     1          
   389  O     c      0.0000      -9.0156 *   -11.2695 *  0.0000     1          
   390  O     c      9.0156 *     0.0000 *    11.2695 *  0.0000     2          
   391  O     c      9.0156 *     0.0000 *   -11.2695 *  0.0000     2          
   392  O     c      9.0156 *     9.0156 *     6.7617 *  0.0000     2          
   393  O     c      9.0156 *     9.0156 *    -6.7617 *  0.0000     2          
   394  O     c      9.0156 *    -9.0156 *     6.7617 *  0.0000     2          
   395  O     c      9.0156 *    -9.0156 *    -6.7617 *  0.0000     2          
   396  O     c      4.5078 *    13.5234 *    -2.2539 *  0.0000     2          
   397  O     c      4.5078 *    13.5234 *     2.2539 *  0.0000     2          
   398  O     c      4.5078 *   -13.5234 *    -2.2539 *  0.0000     2          
   399  O     c      4.5078 *   -13.5234 *     2.2539 *  0.0000     2          
   400  O     c     13.5234 *     4.5078 *    -2.2539 *  0.0000     2          
   401  O     c     13.5234 *     4.5078 *     2.2539 *  0.0000     2          
   402  O     c     13.5234 *    -4.5078 *    -2.2539 *  0.0000     2          
   403  O     c     13.5234 *    -4.5078 *     2.2539 *  0.0000     2          
   404  Cl    c      2.2539 *    11.2695 *     9.0156 *  0.0000     2          
   405  Cl    c      2.2539 *    11.2695 *    -9.0156 *  0.0000     2          
   406  Cl    c      2.2539 *   -11.2695 *     9.0156 *  0.0000     2          
   407  Cl    c      2.2539 *   -11.2695 *    -9.0156 *  0.0000     2          
   408  Cl    c     11.2695 *     2.2539 *     9.0156 *  0.0000     2          
   409  Cl    c     11.2695 *     2.2539 *    -9.0156 *  0.0000     2          
   410  Cl    c     11.2695 *    -2.2539 *     9.0156 *  0.0000     2          
   411  Cl    c     11.2695 *    -2.2539 *    -9.0156 *  0.0000     2          
   412  Na    c      2.2539 *     9.0156 *    11.2695 *  0.0000     2          
   413  Na    c      2.2539 *     9.0156 *   -11.2695 *  0.0000     2          
   414  Na    c      2.2539 *    -9.0156 *    11.2695 *  0.0000     2          
   415  Na    c      2.2539 *    -9.0156 *   -11.2695 *  0.0000     2          
   416  Na    c      9.0156 *     2.2539 *    11.2695 *  0.0000     2          
   417  Na    c      9.0156 *     2.2539 *   -11.2695 *  0.0000     2          
   418  Na    c      9.0156 *    -2.2539 *    11.2695 *  0.0000     2          
   419  Na    c      9.0156 *    -2.2539 *   -11.2695 *  0.0000     2          
   420  Na    c     11.2695 *     9.0156 *    -2.2539 *  0.0000     2          
   421  Na    c     11.2695 *     9.0156 *     2.2539 *  0.0000     2          
   422  Na    c     11.2695 *    -9.0156 *    -2.2539 *  0.0000     2          
   423  Na    c     11.2695 *    -9.0156 *     2.2539 *  0.0000     2          
   424  Na    c      9.0156 *    11.2695 *    -2.2539 *  0.0000     2          
   425  Na    c      9.0156 *    11.2695 *     2.2539 *  0.0000     2          
   426  Na    c      9.0156 *   -11.2695 *    -2.2539 *  0.0000     2          
   427  Na    c      9.0156 *   -11.2695 *     2.2539 *  0.0000     2          
   428  Na    c      4.5078 *    13.5234 *     4.5078 *  0.0000     2          
   429  Na    c      4.5078 *    13.5234 *    -4.5078 *  0.0000     2          
   430  Na    c      4.5078 *    -4.5078 *    13.5234 *  0.0000     2          
   431  Na    c      4.5078 *    -4.5078 *   -13.5234 *  0.0000     2          
   432  Na    c      4.5078 *   -13.5234 *     4.5078 *  0.0000     2          
   433  Na    c      4.5078 *   -13.5234 *    -4.5078 *  0.0000     2          
   434  Na    c     13.5234 *     4.5078 *     4.5078 *  0.0000     2          
   435  Na    c     13.5234 *     4.5078 *    -4.5078 *  0.0000     2          
   436  Na    c     13.5234 *    -4.5078 *     4.5078 *  0.0000     2          
   437  Na    c     13.5234 *    -4.5078 *    -4.5078 *  0.0000     2          
   438  Na    c     -4.5078 *     4.5078 *    13.5234 *  0.0000     2          
   439  Na    c     -4.5078 *     4.5078 *   -13.5234 *  0.0000     2          
   440  O     c      4.5078 *     9.0156 *    11.2695 *  0.0000     2          
   441  O     c      4.5078 *     9.0156 *   -11.2695 *  0.0000     2          
   442  O     c      4.5078 *    -9.0156 *    11.2695 *  0.0000     2          
   443  O     c      4.5078 *    -9.0156 *   -11.2695 *  0.0000     2          
   444  O     c      9.0156 *     4.5078 *    11.2695 *  0.0000     2          
   445  O     c      9.0156 *     4.5078 *   -11.2695 *  0.0000     2          
   446  O     c      9.0156 *    -4.5078 *    11.2695 *  0.0000     2          
   447  O     c      9.0156 *    -4.5078 *   -11.2695 *  0.0000     2          
   448  O     c      0.0000      13.5234 *     6.7617 *  0.0000     1          
   449  O     c      0.0000      13.5234 *    -6.7617 *  0.0000     1          
   450  O     c      0.0000     -13.5234 *     6.7617 *  0.0000     1          
   451  O     c      0.0000     -13.5234 *    -6.7617 *  0.0000     1          
   452  O     c     13.5234 *     0.0000 *     6.7617 *  0.0000     2          
   453  O     c     13.5234 *     0.0000 *    -6.7617 *  0.0000     2          
   454  Cl    c      2.2539 *     6.7617 *    13.5234 *  0.0000     2          
   455  Cl    c      2.2539 *     6.7617 *   -13.5234 *  0.0000     2          
   456  Cl    c      2.2539 *    -6.7617 *    13.5234 *  0.0000     2          
   457  Cl    c      2.2539 *    -6.7617 *   -13.5234 *  0.0000     2          
   458  Cl    c      6.7617 *     2.2539 *    13.5234 *  0.0000     2          
   459  Cl    c      6.7617 *     2.2539 *   -13.5234 *  0.0000     2          
   460  Cl    c      6.7617 *    -2.2539 *    13.5234 *  0.0000     2          
   461  Cl    c      6.7617 *    -2.2539 *   -13.5234 *  0.0000     2          
   462  Na    c      2.2539 *    13.5234 *     6.7617 *  0.0000     2          
   463  Na    c      2.2539 *    13.5234 *    -6.7617 *  0.0000     2          
   464  Na    c      2.2539 *   -13.5234 *     6.7617 *  0.0000     2          
   465  Na    c      2.2539 *   -13.5234 *    -6.7617 *  0.0000     2          
   466  Na    c     13.5234 *     2.2539 *     6.7617 *  0.0000     2          
   467  Na    c     13.5234 *     2.2539 *    -6.7617 *  0.0000     2          
   468  Na    c     13.5234 *    -2.2539 *     6.7617 *  0.0000     2          
   469  Na    c     13.5234 *    -2.2539 *    -6.7617 *  0.0000     2          
   470  Na    c      6.7617 *    13.5234 *    -2.2539 *  0.0000     2          
   471  Na    c      6.7617 *    13.5234 *     2.2539 *  0.0000     2          
   472  Na    c      6.7617 *   -13.5234 *    -2.2539 *  0.0000     2          
   473  Na    c      6.7617 *   -13.5234 *     2.2539 *  0.0000     2          
   474  Na    c     13.5234 *     6.7617 *    -2.2539 *  0.0000     2          
   475  Na    c     13.5234 *     6.7617 *     2.2539 *  0.0000     2          
   476  Na    c     13.5234 *    -6.7617 *    -2.2539 *  0.0000     2          
   477  Na    c     13.5234 *    -6.7617 *     2.2539 *  0.0000     2          
   478  Na    c      9.0156 *     9.0156 *     9.0156 *  0.0000     2          
   479  Na    c      9.0156 *     9.0156 *    -9.0156 *  0.0000     2          
   480  Na    c      9.0156 *    -9.0156 *     9.0156 *  0.0000     2          
   481  Na    c      9.0156 *    -9.0156 *    -9.0156 *  0.0000     2          
   482  O     c      0.0000       0.0000 *    15.7773 *  0.0000     1          
   483  O     c      0.0000       0.0000 *   -15.7773 *  0.0000     1          
   484  O     c      4.5078 *    13.5234 *     6.7617 *  0.0000     2          
   485  O     c      4.5078 *    13.5234 *    -6.7617 *  0.0000     2          
   486  O     c      4.5078 *   -13.5234 *     6.7617 *  0.0000     2          
   487  O     c      4.5078 *   -13.5234 *    -6.7617 *  0.0000     2          
   488  O     c     13.5234 *     4.5078 *     6.7617 *  0.0000     2          
   489  O     c     13.5234 *     4.5078 *    -6.7617 *  0.0000     2          
   490  O     c     13.5234 *    -4.5078 *     6.7617 *  0.0000     2          
   491  O     c     13.5234 *    -4.5078 *    -6.7617 *  0.0000     2          
   492  Cl    c      2.2539 *   -15.7773 *     0.0000 *  0.0000     2          
   493  Cl    c      6.7617 *    11.2695 *     9.0156 *  0.0000     2          
   494  Cl    c      6.7617 *    11.2695 *    -9.0156 *  0.0000     2          
   495  Cl    c      6.7617 *   -11.2695 *     9.0156 *  0.0000     2          
   496  Cl    c      6.7617 *   -11.2695 *    -9.0156 *  0.0000     2          
   497  Cl    c     11.2695 *     6.7617 *     9.0156 *  0.0000     2          
   498  Cl    c     11.2695 *     6.7617 *    -9.0156 *  0.0000     2          
   499  Cl    c     11.2695 *    11.2695 *     0.0000 *  0.0000     2          
   500  Cl    c     11.2695 *    -6.7617 *     9.0156 *  0.0000     2          
   501  Cl    c     11.2695 *    -6.7617 *    -9.0156 *  0.0000     2          
   502  Cl    c     11.2695 *   -11.2695 *     0.0000 *  0.0000     2          
   503  Cl    c    -15.7773 *     2.2539 *     0.0000 *  0.0000     2          
   504  Cl    c    -15.7773 *    -2.2539 *     0.0000 *  0.0000     2          
   505  Na    c      2.2539 *     0.0000 *    15.7773 *  0.0000     2          
   506  Na    c      2.2539 *     0.0000 *   -15.7773 *  0.0000     2          
   507  Na    c     11.2695 *     0.0000 *    11.2695 *  0.0000     2          
   508  Na    c     11.2695 *     0.0000 *   -11.2695 *  0.0000     2          
   509  Na    c    -15.7773 *     0.0000 *    -2.2539 *  0.0000     2          
   510  Na    c    -15.7773 *     0.0000 *     2.2539 *  0.0000     2          
   511  Na    c      0.0000       2.2539 *    15.7773 *  0.0000     1          
   512  Na    c      0.0000       2.2539 *   -15.7773 *  0.0000     1          
   513  Na    c      0.0000      11.2695 *    11.2695 *  0.0000     1          
   514  Na    c      0.0000      11.2695 *   -11.2695 *  0.0000     1          
   515  Na    c      0.0000      -2.2539 *    15.7773 *  0.0000     1          
   516  Na    c      0.0000      -2.2539 *   -15.7773 *  0.0000     1          
   517  Na    c      0.0000     -11.2695 *    11.2695 *  0.0000     1          
   518  Na    c      0.0000     -11.2695 *   -11.2695 *  0.0000     1          
   519  Na    c      0.0000     -15.7773 *    -2.2539 *  0.0000     1          
   520  Na    c      0.0000     -15.7773 *     2.2539 *  0.0000     1          
   521  Na    c      6.7617 *     9.0156 *    11.2695 *  0.0000     2          
   522  Na    c      6.7617 *     9.0156 *   -11.2695 *  0.0000     2          
   523  Na    c      6.7617 *    -9.0156 *    11.2695 *  0.0000     2          
   524  Na    c      6.7617 *    -9.0156 *   -11.2695 *  0.0000     2          
   525  Na    c      9.0156 *     6.7617 *    11.2695 *  0.0000     2          
   526  Na    c      9.0156 *     6.7617 *   -11.2695 *  0.0000     2          
   527  Na    c      9.0156 *    -6.7617 *    11.2695 *  0.0000     2          
   528  Na    c      9.0156 *    -6.7617 *   -11.2695 *  0.0000     2          
   529  Cl    c      2.2539 *    15.7773 *     0.0000 *  0.0000     2          
   530  Na    c     11.2695 *     9.0156 *     6.7617 *  0.0000     2          
   531  Na    c     11.2695 *     9.0156 *    -6.7617 *  0.0000     2          
   532  Na    c     11.2695 *    -9.0156 *     6.7617 *  0.0000     2          
   533  Na    c     11.2695 *    -9.0156 *    -6.7617 *  0.0000     2          
   534  Na    c      0.0000      15.7773 *    -2.2539 *  0.0000     1          
   535  Na    c      0.0000      15.7773 *     2.2539 *  0.0000     1          
   536  Na    c      9.0156 *    11.2695 *     6.7617 *  0.0000     2          
   537  Na    c      9.0156 *    11.2695 *    -6.7617 *  0.0000     2          
   538  Na    c      9.0156 *   -11.2695 *     6.7617 *  0.0000     2          
   539  Na    c      9.0156 *   -11.2695 *    -6.7617 *  0.0000     2          
   540  O     s      0.0000       0.0000 *    -2.2539 *  0.0000     1          
   541  O     s      0.0000       0.0000 *     2.2539 *  0.0000     1          
   542  Cl    s      2.2539 *     2.2539 *     0.0000 *  0.0000     2          
   543  Cl    s      2.2539 *    -2.2539 *     0.0000 *  0.0000     2          
   544  O     s      0.0000      -4.5078 *    -2.2539 *  0.0000     1          
   545  O     s      0.0000      -4.5078 *     2.2539 *  0.0000     1          
   546  O     s     -4.5078 *     0.0000 *    -2.2539 *  0.0000     2          
   547  O     s     -4.5078 *     0.0000 *     2.2539 *  0.0000     2          
   548  O     s      0.0000       4.5078 *    -2.2539 *  0.0000     1          
   549  O     s      0.0000       4.5078 *     2.2539 *  0.0000     1          
   550  Cl    s      2.2539 *     2.2539 *     4.5078 *  0.0000     2          
   551  Cl    s      2.2539 *     2.2539 *    -4.5078 *  0.0000     2          
   552  Cl    s      2.2539 *    -2.2539 *     4.5078 *  0.0000     2          
   553  Cl    s      2.2539 *    -2.2539 *    -4.5078 *  0.0000     2          
   554  O     s     -4.5078 *    -4.5078 *    -2.2539 *  0.0000     2          
   555  O     s     -4.5078 *    -4.5078 *     2.2539 *  0.0000     2          
   556  O     s      0.0000       0.0000 *     6.7617 *  0.0000     1          
   557  O     s      0.0000       0.0000 *    -6.7617 *  0.0000     1          
   558  O     s     -4.5078 *     4.5078 *    -2.2539 *  0.0000     2          
   559  O     s     -4.5078 *     4.5078 *     2.2539 *  0.0000     2          
   560  Cl    s      2.2539 *     6.7617 *     0.0000 *  0.0000     2          
   561  Cl    s      2.2539 *    -6.7617 *     0.0000 *  0.0000     2          
   562  Cl    s      6.7617 *     2.2539 *     0.0000 *  0.0000     2          
   563  Cl    s      6.7617 *    -2.2539 *     0.0000 *  0.0000     2          
   564  O     s      0.0000      -4.5078 *     6.7617 *  0.0000     1          
   565  O     s      0.0000      -4.5078 *    -6.7617 *  0.0000     1          
   566  O     s     -4.5078 *     0.0000 *     6.7617 *  0.0000     2          
   567  O     s     -4.5078 *     0.0000 *    -6.7617 *  0.0000     2          
   568  O     s      0.0000       4.5078 *     6.7617 *  0.0000     1          
   569  O     s      0.0000       4.5078 *    -6.7617 *  0.0000     1          
   570  Cl    s      2.2539 *     6.7617 *     4.5078 *  0.0000     2          
   571  Cl    s      2.2539 *     6.7617 *    -4.5078 *  0.0000     2          
   572  Cl    s      2.2539 *    -6.7617 *     4.5078 *  0.0000     2          
   573  Cl    s      2.2539 *    -6.7617 *    -4.5078 *  0.0000     2          
   574  Cl    s      6.7617 *     2.2539 *     4.5078 *  0.0000     2          
   575  Cl    s      6.7617 *     2.2539 *    -4.5078 *  0.0000     2          
   576  Cl    s      6.7617 *    -2.2539 *     4.5078 *  0.0000     2          
   577  Cl    s      6.7617 *    -2.2539 *    -4.5078 *  0.0000     2          
   578  O     s      0.0000       9.0156 *    -2.2539 *  0.0000     1          
   579  O     s      0.0000       9.0156 *     2.2539 *  0.0000     1          
   580  O     s      0.0000      -9.0156 *    -2.2539 *  0.0000     1          
   581  O     s      0.0000      -9.0156 *     2.2539 *  0.0000     1          
   582  O     s      9.0156 *     0.0000 *    -2.2539 *  0.0000     2          
   583  O     s      9.0156 *     0.0000 *     2.2539 *  0.0000     2          
   584  O     s      4.5078 *     4.5078 *     6.7617 *  0.0000     2          
   585  O     s      4.5078 *     4.5078 *    -6.7617 *  0.0000     2          
   586  O     s      4.5078 *    -4.5078 *     6.7617 *  0.0000     2          
   587  O     s      4.5078 *    -4.5078 *    -6.7617 *  0.0000     2          
   588  Cl    s      2.2539 *     2.2539 *     9.0156 *  0.0000     2          
   589  Cl    s      2.2539 *     2.2539 *    -9.0156 *  0.0000     2          
   590  Cl    s      2.2539 *    -2.2539 *     9.0156 *  0.0000     2          
   591  Cl    s      2.2539 *    -2.2539 *    -9.0156 *  0.0000     2          
   592  Cl    s      6.7617 *     6.7617 *     0.0000 *  0.0000     2          
   593  Cl    s      6.7617 *    -6.7617 *     0.0000 *  0.0000     2          
   594  O     s      9.0156 *    -4.5078 *    -2.2539 *  0.0000     2          
   595  O     s      9.0156 *    -4.5078 *     2.2539 *  0.0000     2          
   596  O     s     -4.5078 *     9.0156 *    -2.2539 *  0.0000     2          
   597  O     s     -4.5078 *     9.0156 *     2.2539 *  0.0000     2          
   598  O     s     -4.5078 *    -9.0156 *    -2.2539 *  0.0000     2          
   599  O     s     -4.5078 *    -9.0156 *     2.2539 *  0.0000     2          
   600  O     s      9.0156 *     4.5078 *    -2.2539 *  0.0000     2          
   601  O     s      9.0156 *     4.5078 *     2.2539 *  0.0000     2          
   602  Cl    s      6.7617 *     6.7617 *     4.5078 *  0.0000     2          
   603  Cl    s      6.7617 *     6.7617 *    -4.5078 *  0.0000     2          
   604  Cl    s      6.7617 *    -6.7617 *     4.5078 *  0.0000     2          
   605  Cl    s      6.7617 *    -6.7617 *    -4.5078 *  0.0000     2          
   606  O     s      0.0000       0.0000 *    11.2695 *  0.0000     1          
   607  O     s      0.0000       0.0000 *   -11.2695 *  0.0000     1          
   608  O     s      0.0000       9.0156 *     6.7617 *  0.0000     1          
   609  O     s      0.0000       9.0156 *    -6.7617 *  0.0000     1          
   610  O     s      0.0000      -9.0156 *     6.7617 *  0.0000     1          
   611  O     s      0.0000      -9.0156 *    -6.7617 *  0.0000     1          
   612  O     s      9.0156 *     0.0000 *     6.7617 *  0.0000     2          
   613  O     s      9.0156 *     0.0000 *    -6.7617 *  0.0000     2          
   614  Cl    s      2.2539 *    11.2695 *     0.0000 *  0.0000     2          
   615  Cl    s      2.2539 *   -11.2695 *     0.0000 *  0.0000     2          
   616  Cl    s     11.2695 *     2.2539 *     0.0000 *  0.0000     2          
   617  Cl    s     11.2695 *    -2.2539 *     0.0000 *  0.0000     2          
   618  Cl    s      2.2539 *     6.7617 *     9.0156 *  0.0000     2          
   619  Cl    s      2.2539 *     6.7617 *    -9.0156 *  0.0000     2          
   620  Cl    s      2.2539 *    -6.7617 *     9.0156 *  0.0000     2          
   621  Cl    s      2.2539 *    -6.7617 *    -9.0156 *  0.0000     2          
   622  Cl    s      6.7617 *     2.2539 *     9.0156 *  0.0000     2          
   623  Cl    s      6.7617 *     2.2539 *    -9.0156 *  0.0000     2          
   624  Cl    s      6.7617 *    -2.2539 *     9.0156 *  0.0000     2          
   625  Cl    s      6.7617 *    -2.2539 *    -9.0156 *  0.0000     2          
   626  O     s      0.0000       4.5078 *    11.2695 *  0.0000     1          
   627  O     s      0.0000       4.5078 *   -11.2695 *  0.0000     1          
   628  O     s      0.0000      -4.5078 *    11.2695 *  0.0000     1          
   629  O     s      0.0000      -4.5078 *   -11.2695 *  0.0000     1          
   630  O     s      4.5078 *     0.0000 *    11.2695 *  0.0000     2          
   631  O     s      4.5078 *     0.0000 *   -11.2695 *  0.0000     2          
   632  O     s      4.5078 *     9.0156 *     6.7617 *  0.0000     2          
   633  O     s      4.5078 *     9.0156 *    -6.7617 *  0.0000     2          
   634  O     s      4.5078 *    -9.0156 *     6.7617 *  0.0000     2          
   635  O     s      4.5078 *    -9.0156 *    -6.7617 *  0.0000     2          
   636  O     s      9.0156 *     4.5078 *     6.7617 *  0.0000     2          
   637  O     s      9.0156 *     4.5078 *    -6.7617 *  0.0000     2          
   638  O     s      9.0156 *    -4.5078 *     6.7617 *  0.0000     2          
   639  O     s      9.0156 *    -4.5078 *    -6.7617 *  0.0000     2          
   640  Cl    s      2.2539 *    11.2695 *     4.5078 *  0.0000     2          
   641  Cl    s      2.2539 *    11.2695 *    -4.5078 *  0.0000     2          
   642  Cl    s      2.2539 *   -11.2695 *     4.5078 *  0.0000     2          
   643  Cl    s      2.2539 *   -11.2695 *    -4.5078 *  0.0000     2          
   644  Cl    s     11.2695 *     2.2539 *     4.5078 *  0.0000     2          
   645  Cl    s     11.2695 *     2.2539 *    -4.5078 *  0.0000     2          
   646  Cl    s     11.2695 *    -2.2539 *     4.5078 *  0.0000     2          
   647  Cl    s     11.2695 *    -2.2539 *    -4.5078 *  0.0000     2          
   648  O     s     -4.5078 *    -4.5078 *    11.2695 *  0.0000     2          
   649  O     s     -4.5078 *    -4.5078 *   -11.2695 *  0.0000     2          
[...]
    673 y         -9.015574     -9.047134    -0.031560    Cartesian    0.35
    673 z         -4.507787     -4.519410    -0.011623    Cartesian    0.26
    674 x         13.523362     13.572300     0.048938    Cartesian    0.36
    674 y          9.015574      9.010529    -0.005046    Cartesian   -0.06
    674 z          4.507787      4.506091    -0.001696    Cartesian   -0.04
    675 x         13.523362     13.552264     0.028903    Cartesian    0.21
    675 y          9.015574      9.003206    -0.012369    Cartesian   -0.14
    675 z         -4.507787     -4.512170    -0.004382    Cartesian    0.10
    676 x         13.523362     13.598722     0.075361    Cartesian    0.56
    676 y         -4.507787     -4.558944    -0.051157    Cartesian    1.13
    676 z          4.507787      4.509434     0.001647    Cartesian    0.04
    677 x         13.523362     13.582510     0.059148    Cartesian    0.44
    677 y         -4.507787     -4.530593    -0.022805    Cartesian    0.51
    677 z         -4.507787     -4.483986     0.023801    Cartesian   -0.53
    678 x          4.507787      4.538032     0.030245    Cartesian    0.67
    678 y          4.507787      4.521064     0.013277    Cartesian    0.29
    678 z         13.523362     13.535694     0.012332    Cartesian    0.09
    679 x          4.507787      4.521025     0.013238    Cartesian    0.29
    679 y          4.507787      4.514641     0.006854    Cartesian    0.15
    679 z        -13.523362    -13.532998    -0.009636    Cartesian    0.07
    680 x          4.507787      4.485268    -0.022519    Cartesian   -0.50
    680 y          0.000000      0.000517     0.000517    Cartesian    0.00
    680 z         13.523362     13.559783     0.036421    Cartesian    0.27
    681 x          4.507787      4.474824    -0.032963    Cartesian   -0.73
    681 y          0.000000      0.021634     0.021634    Cartesian    0.00
    681 z        -13.523362    -13.543977    -0.020616    Cartesian    0.15
    682 x          2.253894      2.253894     0.000000    Cartesian    0.00
    682 y         11.269468     11.292803     0.023335    Cartesian    0.21
    682 z         11.269468     11.243754    -0.025714    Cartesian   -0.23
    683 x          2.253894      2.253894     0.000000    Cartesian    0.00
    683 y         11.269468     11.298299     0.028831    Cartesian    0.26
    683 z        -11.269468    -11.250884     0.018584    Cartesian   -0.16
    684 x          2.253894      2.253894     0.000000    Cartesian    0.00
    684 y         -6.761681     -6.744459     0.017222    Cartesian   -0.25
    684 z         11.269468     11.267379    -0.002089    Cartesian   -0.02
    685 x          2.253894      2.253894     0.000000    Cartesian    0.00
    685 y         -6.761681     -6.765313    -0.003632    Cartesian    0.05
    685 z        -11.269468    -11.252824     0.016644    Cartesian   -0.15
    686 x         11.269468     11.257579    -0.011889    Cartesian   -0.11
    686 y          2.253894      2.269307     0.015413    Cartesian    0.68
    686 z         11.269468     11.256349    -0.013120    Cartesian   -0.12
    687 x         11.269468     11.256673    -0.012795    Cartesian   -0.11
    687 y          2.253894      2.270844     0.016951    Cartesian    0.75
    687 z        -11.269468    -11.258613     0.010855    Cartesian   -0.10
    688 x         11.269468     11.266913    -0.002555    Cartesian   -0.02
    688 y         11.269468     11.243377    -0.026091    Cartesian   -0.23
    688 z          6.761681      6.759911    -0.001770    Cartesian   -0.03
    689 x         11.269468     11.265762    -0.003706    Cartesian   -0.03
    689 y         11.269468     11.240997    -0.028471    Cartesian   -0.25
    689 z         -6.761681     -6.760760     0.000921    Cartesian   -0.01
    690 x         11.269468     11.264968    -0.004500    Cartesian   -0.04
    690 y         -6.761681     -6.742583     0.019098    Cartesian   -0.28
    690 z          6.761681      6.741732    -0.019949    Cartesian   -0.30
    691 x         11.269468     11.269286    -0.000182    Cartesian   -0.00
    691 y         -6.761681     -6.747494     0.014186    Cartesian   -0.21
    691 z         -6.761681     -6.743056     0.018625    Cartesian   -0.28
    692 x          6.761681      6.767694     0.006013    Cartesian    0.09
    692 y         15.777255     15.764172    -0.013084    Cartesian   -0.08
    692 z         -2.253894     -2.231494     0.022399    Cartesian   -0.99
    693 x          6.761681      6.758350    -0.003331    Cartesian   -0.05
    693 y         15.777255     15.762261    -0.014994    Cartesian   -0.10
    693 z          2.253894      2.231871    -0.022023    Cartesian   -0.98
    694 x          6.761681      6.755201    -0.006480    Cartesian   -0.10
    694 y        -11.269468    -11.255544     0.013924    Cartesian   -0.12
    694 z         -2.253894     -2.270672    -0.016778    Cartesian    0.74
    695 x          6.761681      6.770823     0.009142    Cartesian    0.14
    695 y        -11.269468    -11.255092     0.014376    Cartesian   -0.13
    695 z          2.253894      2.266507     0.012613    Cartesian    0.56
    696 x         15.777255     15.780101     0.002846    Cartesian    0.02
    696 y          6.761681      6.745235    -0.016445    Cartesian   -0.24
    696 z         -2.253894     -2.238814     0.015080    Cartesian   -0.67
    697 x         15.777255     15.774075    -0.003180    Cartesian   -0.02
    697 y          6.761681      6.767241     0.005560    Cartesian    0.08
    697 z          2.253894      2.242853    -0.011041    Cartesian   -0.49
    698 x         15.777255     15.774486    -0.002769    Cartesian   -0.02
    698 y         -2.253894     -2.240053     0.013840    Cartesian   -0.61
    698 z         -2.253894     -2.252693     0.001200    Cartesian   -0.05
    699 x         15.777255     15.770510    -0.006746    Cartesian   -0.04
    699 y         -2.253894     -2.217291     0.036603    Cartesian   -1.62
    699 z          2.253894      2.256738     0.002844    Cartesian    0.13
    700 x          4.507787      4.513265     0.005478    Cartesian    0.12
    700 y         13.523362     13.536382     0.013021    Cartesian    0.10
    700 z          9.015574      9.042441     0.026866    Cartesian    0.30
    701 x          4.507787      4.526442     0.018655    Cartesian    0.41
    701 y         13.523362     13.538234     0.014872    Cartesian    0.11
    701 z         -9.015574     -9.042978    -0.027404    Cartesian    0.30
    702 x          4.507787      4.531368     0.023581    Cartesian    0.52
    702 y         -9.015574     -9.035456    -0.019882    Cartesian    0.22
    702 z          9.015574      9.032386     0.016812    Cartesian    0.19
    703 x          4.507787      4.516480     0.008693    Cartesian    0.19
    703 y         -9.015574     -9.033820    -0.018246    Cartesian    0.20
    703 z         -9.015574     -9.051390    -0.035815    Cartesian    0.40
    704 x         13.523362     13.572220     0.048858    Cartesian    0.36
    704 y          4.507787      4.485427    -0.022360    Cartesian   -0.50
    704 z          9.015574      9.043278     0.027703    Cartesian    0.31
    705 x         13.523362     13.579538     0.056176    Cartesian    0.42
    705 y          4.507787      4.488786    -0.019001    Cartesian   -0.42
    705 z         -9.015574     -9.038818    -0.023243    Cartesian    0.26
    706 x         13.523362     13.520362    -0.002999    Cartesian   -0.02
    706 y          0.000000     -0.004895    -0.004895    Cartesian    0.00
    706 z          9.015574      9.016949     0.001375    Cartesian    0.02
    707 x         13.523362     13.525630     0.002269    Cartesian    0.02
    707 y          0.000000     -0.003068    -0.003068    Cartesian    0.00
    707 z         -9.015574     -9.022627    -0.007053    Cartesian    0.08
    708 x          6.761681      6.762859     0.001178    Cartesian    0.02
    708 y         11.269468     11.247029    -0.022439    Cartesian   -0.20
    708 z         11.269468     11.275265     0.005797    Cartesian    0.05
    709 x          6.761681      6.762507     0.000826    Cartesian    0.01
    709 y         11.269468     11.247922    -0.021546    Cartesian   -0.19
    709 z        -11.269468    -11.272654    -0.003186    Cartesian    0.03
    710 x          6.761681      6.763660     0.001979    Cartesian    0.03
    710 y         -6.761681     -6.766180    -0.004499    Cartesian    0.07
    710 z         11.269468     11.244436    -0.025032    Cartesian   -0.22
    711 x          6.761681      6.763009     0.001328    Cartesian    0.02
    711 y         -6.761681     -6.765218    -0.003538    Cartesian    0.05
    711 z        -11.269468    -11.247570     0.021898    Cartesian   -0.19
    712 x         11.269468     11.271669     0.002201    Cartesian    0.02
    712 y          6.761681      6.746395    -0.015286    Cartesian   -0.23
    712 z         11.269468     11.252992    -0.016476    Cartesian   -0.15
    713 x         11.269468     11.269766     0.000298    Cartesian    0.00
    713 y          6.761681      6.745002    -0.016679    Cartesian   -0.25
    713 z        -11.269468    -11.251844     0.017624    Cartesian   -0.16
    714 x         11.269468     11.270057     0.000589    Cartesian    0.01
    714 y         -2.253894     -2.256592    -0.002698    Cartesian    0.12
    714 z         11.269468     11.261738    -0.007730    Cartesian   -0.07
    715 x         11.269468     11.268758    -0.000710    Cartesian   -0.01
    715 y         -2.253894     -2.257839    -0.003945    Cartesian    0.18
    715 z        -11.269468    -11.261408     0.008060    Cartesian   -0.07
    716 x          2.253894      2.253894     0.000000    Cartesian    0.00
    716 y         15.777255     15.778530     0.001274    Cartesian    0.01
    716 z          6.761681      6.739146    -0.022535    Cartesian   -0.33
    717 x          2.253894      2.253894     0.000000    Cartesian    0.00
    717 y         15.777255     15.784258     0.007002    Cartesian    0.04
    717 z         -6.761681     -6.739411     0.022269    Cartesian   -0.33
    718 x          2.253894      2.253894     0.000000    Cartesian    0.00
    718 y        -11.269468    -11.264010     0.005458    Cartesian   -0.05
    718 z          6.761681      6.753662    -0.008019    Cartesian   -0.12
    719 x          2.253894      2.253894     0.000000    Cartesian    0.00
    719 y        -11.269468    -11.264445     0.005023    Cartesian   -0.04
    719 z         -6.761681     -6.745575     0.016106    Cartesian   -0.24
    720 x         15.777255     15.769238    -0.008018    Cartesian   -0.05
    720 y          2.253894      2.259035     0.005141    Cartesian    0.23
    720 z          6.761681      6.752161    -0.009520    Cartesian   -0.14
    721 x         15.777255     15.775315    -0.001940    Cartesian   -0.01
    721 y          2.253894      2.262728     0.008835    Cartesian    0.39
    721 z         -6.761681     -6.754275     0.007406    Cartesian   -0.11
    722 x          4.507787      4.512369     0.004582    Cartesian    0.10
    722 y          9.015574      9.025052     0.009477    Cartesian    0.11
    722 z         13.523362     13.560611     0.037250    Cartesian    0.28
    723 x          4.507787      4.532556     0.024769    Cartesian    0.55
    723 y          9.015574      9.030152     0.014578    Cartesian    0.16
    723 z        -13.523362    -13.544828    -0.021466    Cartesian    0.16
    724 x          4.507787      4.510614     0.002827    Cartesian    0.06
    724 y         -4.507787     -4.524083    -0.016296    Cartesian    0.36
    724 z         13.523362     13.542179     0.018818    Cartesian    0.14
    725 x          4.507787      4.513289     0.005501    Cartesian    0.12
    725 y         -4.507787     -4.504523     0.003264    Cartesian   -0.07
    725 z        -13.523362    -13.580750    -0.057388    Cartesian    0.42
    726 x          9.015574      9.035594     0.020019    Cartesian    0.22
    726 y          4.507787      4.505211    -0.002576    Cartesian   -0.06
    726 z         13.523362     13.588449     0.065087    Cartesian    0.48
    727 x          9.015574      9.035797     0.020222    Cartesian    0.22
    727 y          4.507787      4.505721    -0.002066    Cartesian   -0.05
    727 z        -13.523362    -13.594217    -0.070855    Cartesian    0.52
    728 x          9.015574      8.993278    -0.022296    Cartesian   -0.25
    728 y          0.000000      0.003315     0.003315    Cartesian    0.00
    728 z         13.523362     13.518701    -0.004661    Cartesian   -0.03
    729 x          9.015574      8.997672    -0.017902    Cartesian   -0.20
    729 y          0.000000      0.001131     0.001131    Cartesian    0.00
    729 z        -13.523362    -13.519625     0.003736    Cartesian   -0.03
    730 x          2.253894      2.253894     0.000000    Cartesian    0.00
    730 y          2.253894      2.228242    -0.025652    Cartesian   -1.14
    730 z         15.777255     15.758147    -0.019108    Cartesian   -0.12
    731 x          2.253894      2.253894     0.000000    Cartesian    0.00
    731 y          2.253894      2.255703     0.001810    Cartesian    0.08
    731 z        -15.777255    -15.776567     0.000688    Cartesian   -0.00
    732 x          6.761681      6.763495     0.001815    Cartesian    0.03
    732 y         15.777255     15.757631    -0.019624    Cartesian   -0.12
    732 z          6.761681      6.772872     0.011191    Cartesian    0.17
    733 x          6.761681      6.764278     0.002597    Cartesian    0.04
    733 y         15.777255     15.757799    -0.019456    Cartesian   -0.12
    733 z         -6.761681     -6.773792    -0.012111    Cartesian    0.18
    734 x          6.761681      6.764524     0.002844    Cartesian    0.04
    734 y        -11.269468    -11.265115     0.004353    Cartesian   -0.04
    734 z          6.761681      6.753619    -0.008062    Cartesian   -0.12
    735 x          6.761681      6.764571     0.002890    Cartesian    0.04
    735 y        -11.269468    -11.266133     0.003335    Cartesian   -0.03
    735 z         -6.761681     -6.755878     0.005803    Cartesian   -0.09
    736 x         15.777255     15.776818    -0.000437    Cartesian   -0.00
    736 y          6.761681      6.756951    -0.004730    Cartesian   -0.07
    736 z          6.761681      6.759993    -0.001687    Cartesian   -0.02
    737 x         15.777255     15.777017    -0.000238    Cartesian   -0.00
    737 y          6.761681      6.756369    -0.005311    Cartesian   -0.08
    737 z         -6.761681     -6.758424     0.003257    Cartesian   -0.05
    738 x         15.777255     15.778254     0.000999    Cartesian    0.01
    738 y         -2.253894     -2.250981     0.002913    Cartesian   -0.13
    738 z          6.761681      6.751623    -0.010058    Cartesian   -0.15
    739 x         15.777255     15.782530     0.005274    Cartesian    0.03
    739 y         -2.253894     -2.254306    -0.000412    Cartesian    0.02
    739 z         -6.761681     -6.754249     0.007431    Cartesian   -0.11
    740 x          4.507787      4.467819    -0.039968    Cartesian   -0.89
    740 y        -13.523362    -13.581218    -0.057856    Cartesian    0.43
    740 z          0.000000     -0.011976    -0.011976    Cartesian    0.00
    741 x          9.015574      9.026474     0.010899    Cartesian    0.12
    741 y         13.523362     13.545883     0.022521    Cartesian    0.17
    741 z          9.015574      9.018484     0.002909    Cartesian    0.03
    742 x          9.015574      9.032498     0.016924    Cartesian    0.19
    742 y         13.523362     13.549542     0.026180    Cartesian    0.19
    742 z         -9.015574     -9.016420    -0.000846    Cartesian    0.01
    743 x          9.015574      9.009125    -0.006450    Cartesian   -0.07
    743 y         -9.015574     -9.047215    -0.031640    Cartesian    0.35
    743 z          9.015574      9.034257     0.018683    Cartesian    0.21
    744 x          9.015574      9.013572    -0.002003    Cartesian   -0.02
    744 y         -9.015574     -9.044576    -0.029002    Cartesian    0.32
    744 z         -9.015574     -9.036368    -0.020794    Cartesian    0.23
    745 x         13.523362     13.551976     0.028615    Cartesian    0.21
    745 y          9.015574      9.021991     0.006417    Cartesian    0.07
    745 z          9.015574      9.021441     0.005867    Cartesian    0.07
    746 x         13.523362     13.553975     0.030614    Cartesian    0.23
    746 y          9.015574      9.018946     0.003372    Cartesian    0.04
    746 z         -9.015574     -9.018859    -0.003285    Cartesian    0.04
    747 x         13.523362     13.560657     0.037295    Cartesian    0.28
    747 y         13.523362     13.507513    -0.015848    Cartesian   -0.12
    747 z          0.000000     -0.004349    -0.004349    Cartesian    0.00
    748 x         13.523362     13.524513     0.001152    Cartesian    0.01
    748 y         -4.507787     -4.510936    -0.003149    Cartesian    0.07
    748 z          9.015574      9.039044     0.023469    Cartesian    0.26
    749 x         13.523362     13.532224     0.008863    Cartesian    0.07
    749 y         -4.507787     -4.516538    -0.008750    Cartesian    0.19
    749 z         -9.015574     -9.036280    -0.020706    Cartesian    0.23
    750 x         13.523362     13.509580    -0.013782    Cartesian   -0.10
    750 y         -9.015574     -9.070050    -0.054475    Cartesian    0.60
    750 z          0.000000      0.005729     0.005729    Cartesian    0.00
    751 x        -13.523362    -13.576750    -0.053388    Cartesian    0.39
    751 y          4.507787      4.495097    -0.012691    Cartesian   -0.28
    751 z          0.000000      0.005137     0.005137    Cartesian    0.00
    752 x        -13.523362    -13.576538    -0.053176    Cartesian    0.39
    752 y          0.000000     -0.016929    -0.016929    Cartesian    0.00
    752 z          0.000000      0.000532     0.000532    Cartesian    0.00
    753 x          4.507787      4.534877     0.027090    Cartesian    0.60
    753 y         18.031149     18.091392     0.060243    Cartesian    0.33
    753 z          0.000000      0.005836     0.005836    Cartesian    0.00
--------------------------------------------------------------------------------


  Time to end of optimisation  =      728.3616 seconds


  Peak dynamic memory used =     541.02 MB 


  Timing analysis for GULP :

--------------------------------------------------------------------------------
  Task / Subroutine                                          Time (Seconds)
--------------------------------------------------------------------------------
  Calculation of reciprocal space energy and derivatives          0.0006
  Calculation of reciprocal space energy using symmetry           0.0009
  Calculation of real space energy and derivatives                0.0036
  Calculation of real space energy using symmetry                 0.0088
  Calculation for region 1 energy and derivatives (2-b)         403.1445
  Calculation for region 2a energy                              210.0324
  Calculation for region 2b energy                                0.0259
  Calculation and manipulation of Hessian matrix                  1.4170
  Calculation of matrix inversion                               110.9064
  Symmetry generation of equivalent positions                     0.0046
--------------------------------------------------------------------------------
  Total CPU time                                                728.3617
--------------------------------------------------------------------------------


  Dump file written as Na3OCl.grs


  Job Finished at 22:05.02 30th November   2020                               

