********************************************************************************
*                       GENERAL UTILITY LATTICE PROGRAM                        *
*                                 Julian Gale                                  *
*                       Curtin Institute for Computation                       *
*                    School of Molecular and Life Sciences                     *
*                    Curtin University, Western Australia                      *
********************************************************************************
* Version = 5.2.0 * Last modified =  10th September 2020                       *
********************************************************************************
*  optimise     - perform optimisation run                                     *
*  conp         - constant pressure calculation                                *
*  property     - calculate properties for final geometry                      *
*  defect       - perform defect calculation after bulk run                    *
*  compare      - compare initial and final structures                         *
********************************************************************************

  Job Started  at 16:31.09 26th November   2020                               

  Number of CPUs =     1


  Total number of configurations input =      1

********************************************************************************
*  Input for Configuration =   1                                               *
********************************************************************************

  Formula = ClONa3                                                      

  Number of irreducible atoms/shells =       5


  Total number atoms/shells =       7

  Dimensionality = 3               :  Bulk   


  Symmetry :

  Crystal family                   :  Cubic       
  Crystal class  (Groth - 1921)    :  Cubic Hexakisoctahedral              

  Space group (centrosymmetric)    :  P M 3 M         

  Patterson group                  :  P m -3 m 

  Cartesian lattice vectors (Angstroms) :

        4.504000    0.000000    0.000000
        0.000000    4.504000    0.000000
        0.000000    0.000000    4.504000

  Cell parameters (Angstroms/Degrees):

  a =       4.5040    alpha =  90.0000
  b =       4.5040    beta  =  90.0000
  c =       4.5040    gamma =  90.0000

  Initial cell volume =          91.368216 Angs**3

  Temperature of configuration =   0.00     K 

  Pressure of configuration =         0.000 GPa 

  Fractional coordinates of asymmetric unit :

--------------------------------------------------------------------------------
   No.  Atomic       x           y          z         Charge      Occupancy
        Label      (Frac)      (Frac)     (Frac)        (e)         (Frac)  
--------------------------------------------------------------------------------
      1 Cl    c    0.000000    0.000000    0.000000     1.48500    1.000000    
      2 O     c    0.500000    0.500000    0.500000     0.18300    1.000000    
      3 Na    c    0.500000    0.500000    0.000000     1.00000    1.000000    
      4 Cl    s    0.000000    0.000000    0.000000    -2.48500    1.000000    
      5 O     s    0.500000    0.500000    0.500000    -2.18300    1.000000    
--------------------------------------------------------------------------------


  Constraints : 

--------------------------------------------------------------------------------
  Constraint no.      Unconstrained     Constrained    Coefficient    Offset
                         Variable         Variable
--------------------------------------------------------------------------------
           1              Strain 1        Strain 2       1.00000      0.0000
           2              Strain 1        Strain 3       1.00000      0.0000
--------------------------------------------------------------------------------


********************************************************************************
*  General input information                                                   *
********************************************************************************

  Species output for all configurations : 

--------------------------------------------------------------------------------
  Species    Type    Atomic    Atomic    Charge       Radii (Angs)     Library
                     Number     Mass       (e)     Cova   Ionic  VDW   Symbol
--------------------------------------------------------------------------------
    Na       Core       11      22.99   1.000000   0.970  0.000  2.300          
    O        Core        8      16.00   0.183000   0.730  0.000  1.360          
    O        Shell       8       0.00  -2.183000   0.730  0.000  1.360          
    Cl       Core       17      35.45   1.485000   0.990  0.000  1.650          
    Cl       Shell      17       0.00  -2.485000   0.990  0.000  1.650          
--------------------------------------------------------------------------------


  Lattice summation method               =    Ewald          (3-D)
                                         =    Parry          (2-D)
                                         =    Saunders et al (1-D)
  Accuracy factor for lattice sums       =   12.000


  Analytic derivatives to be used

  Time limit = Infinity

  Maximum range for interatomic potentials =    100000.000000 Angstroms

  General interatomic potentials :

--------------------------------------------------------------------------------
Atom  Types   Potential      Parameter       Value         Units   Cutoffs(Ang)
  1     2                                                            Min /  Max 
--------------------------------------------------------------------------------
O    c O    s Spring (c-s)  Spring k 2       593.72000    eV*Ang^-2 0.000  0.800
                            Spring k 4       0.0000000    eV*Ang^-4 
--------------------------------------------------------------------------------
Cl   c Cl   s Spring (c-s)  Spring k 2       29.380000    eV*Ang^-2 0.000  0.800
                            Spring k 4       0.0000000    eV*Ang^-4 
--------------------------------------------------------------------------------
Na   c Na   c Buckingham    Buckingham A     1788.1900    eV        0.000 12.000
                            Buckingham rho  0.15900000    Ang       
                            Buckingham C     0.0000000    eV*Ang^6  
--------------------------------------------------------------------------------
Na   c O    s Buckingham    Buckingham A     1226.8400    eV        0.000 12.000
                            Buckingham rho  0.30700000    Ang       
                            Buckingham C     0.0000000    eV*Ang^6  
--------------------------------------------------------------------------------
Na   c Cl   s Buckingham    Buckingham A     2314.7000    eV        0.000 12.000
                            Buckingham rho  0.29000000    Ang       
                            Buckingham C     0.0000000    eV*Ang^6  
--------------------------------------------------------------------------------
O    s O    s Buckingham    Buckingham A     22764.300    eV        0.000 12.000
                            Buckingham rho  0.14900000    Ang       
                            Buckingham C     13.190000    eV*Ang^6  
--------------------------------------------------------------------------------
O    s Cl   s Buckingham    Buckingham A     8286.9100    eV        0.000 12.000
                            Buckingham rho  0.25900000    Ang       
                            Buckingham C     62.200000    eV*Ang^6  
--------------------------------------------------------------------------------
Cl   s Cl   s Buckingham    Buckingham A     1227.2000    eV        0.000 12.000
                            Buckingham rho  0.32100000    Ang       
                            Buckingham C     14.530000    eV*Ang^6  
--------------------------------------------------------------------------------

********************************************************************************
*  Output for configuration   1                                                *
********************************************************************************


  Components of energy : 

--------------------------------------------------------------------------------
  Interatomic potentials     =           5.13022605 eV    
  Monopole - monopole (real) =         -10.03624526 eV    
  Monopole - monopole (recip)=         -29.53581274 eV    
  Monopole - monopole (total)=         -39.57205800 eV    
--------------------------------------------------------------------------------
  Total lattice energy       =         -34.44183194 eV    
--------------------------------------------------------------------------------
  Total lattice energy       =           -3323.1103 kJ/(mole unit cells)
--------------------------------------------------------------------------------


  Number of variables =        1

  Maximum number of calculations  =          1000
  Maximum Hessian update interval =            10
  Maximum step size               =   1.000000000
  Maximum parameter tolerance     =   0.000010000
  Maximum function  tolerance     =   0.000010000
  Maximum gradient  tolerance     =   0.001000000
  Maximum gradient  component     =   0.010000000

  Symmetry constrained optimisation

  Symmetry used for second derivatives

  Cell parameters to be optimised using strains

  Newton-Raphson optimiser to be used

  BFGS hessian update to be used

  Lower half triangular hessian to be used

  Start of bulk optimisation :

  Cycle:      0 Energy:       -34.441832  Gnorm:      0.196570  CPU:    0.017
  ** Hessian calculated **
  Cycle:      1 Energy:       -34.441914  Gnorm:      0.000103  CPU:    0.021


  **** Optimisation achieved ****


  Final energy =     -34.44191447 eV
  Final Gnorm  =       0.00000000

  Components of energy : 

--------------------------------------------------------------------------------
  Interatomic potentials     =           5.09689708 eV    
  Monopole - monopole (real) =         -10.02781331 eV    
  Monopole - monopole (recip)=         -29.51099824 eV    
  Monopole - monopole (total)=         -39.53881155 eV    
--------------------------------------------------------------------------------
  Total lattice energy       =         -34.44191447 eV    
--------------------------------------------------------------------------------
  Total lattice energy       =           -3323.1183 kJ/(mole unit cells)
--------------------------------------------------------------------------------

  Final asymmetric unit coordinates :

--------------------------------------------------------------------------------
   No.  Atomic        x           y           z         Radius
        Label       (Frac)      (Frac)      (Frac)       (Angs) 
--------------------------------------------------------------------------------
     1  Cl    c     0.000000    0.000000    0.000000    0.000000
     2  O     c     0.500000    0.500000    0.500000    0.000000
     3  Na    c     0.500000    0.500000    0.000000    0.000000
     4  Cl    s     0.000000    0.000000    0.000000    0.000000
     5  O     s     0.500000    0.500000    0.500000    0.000000
--------------------------------------------------------------------------------

  Final Cartesian lattice vectors (Angstroms) :

        4.507787    0.000000    0.000000
        0.000000    4.507787    0.000000
        0.000000    0.000000    4.507787


  Final cell parameters and derivatives :

--------------------------------------------------------------------------------
       a            4.507787 Angstrom     dE/de1(xx)     0.000000 eV/strain
       b            4.507787 Angstrom     dE/de2(yy)     0.000000 eV/strain
       c            4.507787 Angstrom     dE/de3(zz)     0.000000 eV/strain
       alpha       90.000000 Degrees      dE/de4(yz)     0.000000 eV/strain
       beta        90.000000 Degrees      dE/de5(xz)     0.000000 eV/strain
       gamma       90.000000 Degrees      dE/de6(xy)     0.000000 eV/strain
--------------------------------------------------------------------------------

  Primitive cell volume =            91.598892 Angs**3

  Density of cell =      2.183054 g/cm**3

  Non-primitive cell volume =            91.598892 Angs**3


  Final internal derivatives :

--------------------------------------------------------------------------------
   No.  Atomic          a             b             c           Radius
        Label          (eV)          (eV)          (eV)        (eV/Angs)
--------------------------------------------------------------------------------
      1 Cl    c       0.000000      0.000000      0.000000      0.000000
      2 O     c       0.000000      0.000000      0.000000      0.000000
      3 Na    c       0.000000      0.000000      0.000000      0.000000
      4 Cl    s       0.000000      0.000000      0.000000      0.000000
      5 O     s       0.000000      0.000000      0.000000      0.000000
--------------------------------------------------------------------------------
  Maximum abs         0.000000      0.000000      0.000000      0.000000
--------------------------------------------------------------------------------

  Comparison of initial and final structures : 

--------------------------------------------------------------------------------
  Parameter   Initial value   Final value   Difference    Units      Percent
--------------------------------------------------------------------------------
    Volume        91.368216     91.598892     0.230676    Angs**3      0.25
    a              4.504000      4.507787     0.003787    Angstroms    0.08
    b              4.504000      4.507787     0.003787    Angstroms    0.08
    c              4.504000      4.507787     0.003787    Angstroms    0.08
    alpha         90.000000     90.000000     0.000000    Degrees      0.00
    beta          90.000000     90.000000     0.000000    Degrees      0.00
    gamma         90.000000     90.000000     0.000000    Degrees      0.00
      1 x          0.000000      0.000000     0.000000    Fractional   0.00
      1 y          0.000000      0.000000     0.000000    Fractional   0.00
      1 z          0.000000      0.000000     0.000000    Fractional   0.00
      2 x          0.500000      0.500000     0.000000    Fractional   0.00
      2 y          0.500000      0.500000     0.000000    Fractional   0.00
      2 z          0.500000      0.500000     0.000000    Fractional   0.00
      3 x          0.500000      0.500000     0.000000    Fractional   0.00
      3 y          0.500000      0.500000     0.000000    Fractional   0.00
      3 z          0.000000      0.000000     0.000000    Fractional   0.00
      4 x          0.000000      0.000000     0.000000    Fractional   0.00
      4 y          0.000000      0.000000     0.000000    Fractional   0.00
      4 z          0.000000      0.000000     0.000000    Fractional   0.00
      5 x          0.500000      0.500000     0.000000    Fractional   0.00
      5 y          0.500000      0.500000     0.000000    Fractional   0.00
      5 z          0.500000      0.500000     0.000000    Fractional   0.00
--------------------------------------------------------------------------------


  Born effective charge tensors : 

-------------------------------------------------------------------------------
  Atom             x           y             z
-------------------------------------------------------------------------------
    1 Cl    x      -1.0181     -0.0000      0.0000
            y      -0.0000     -1.0181      0.0000
            z       0.0000      0.0000     -1.0181
-------------------------------------------------------------------------------
    2 O     x      -2.2647      0.0000     -0.0000
            y       0.0000     -2.2647     -0.0000
            z      -0.0000     -0.0000     -2.2647
-------------------------------------------------------------------------------
    3 Na    x       1.2258     -0.0000      0.0000
            y      -0.0000      1.2258     -0.0000
            z       0.0000     -0.0000      0.8313
-------------------------------------------------------------------------------




  Elastic Constant Matrix: (Units=GPa)

-------------------------------------------------------------------------------
  Indices      1         2         3         4         5         6    
-------------------------------------------------------------------------------
       1     95.8177   20.0737   20.0737   -0.0000   -0.0000    0.0000
       2     20.0737   95.8177   20.0737   -0.0000   -0.0000    0.0000
       3     20.0737   20.0737   95.8177   -0.0000   -0.0000    0.0000
       4     -0.0000   -0.0000   -0.0000   20.0737   -0.0000    0.0000
       5     -0.0000   -0.0000   -0.0000   -0.0000   20.0737    0.0000
       6      0.0000    0.0000    0.0000    0.0000    0.0000   20.0737
-------------------------------------------------------------------------------


  Elastic Compliance Matrix: (Units=1/GPa)

-------------------------------------------------------------------------------
  Indices      1         2         3         4         5         6    
-------------------------------------------------------------------------------
       1    0.011253 -0.001949 -0.001949  0.000000  0.000000 -0.000000
       2   -0.001949  0.011253 -0.001949  0.000000  0.000000  0.000000
       3   -0.001949 -0.001949  0.011253  0.000000  0.000000 -0.000000
       4    0.000000  0.000000  0.000000  0.049816  0.000000 -0.000000
       5    0.000000  0.000000  0.000000  0.000000  0.049816 -0.000000
       6   -0.000000  0.000000 -0.000000 -0.000000 -0.000000  0.049816
-------------------------------------------------------------------------------

  Mechanical properties :

-------------------------------------------------------------------------------
  Convention :                    Reuss         Voigt         Hill
-------------------------------------------------------------------------------
  Bulk  Modulus (GPa)     =      45.32174      45.32174      45.32174
  Shear Modulus (GPa)     =      24.72085      27.19304      25.95695
-------------------------------------------------------------------------------
  Velocity S-wave (km/s)  =       3.36511       3.52937       3.44822
  Velocity P-wave (km/s)  =       5.98827       6.11304       6.05098
-------------------------------------------------------------------------------
  Compressibility (1/GPa) =    0.02206447
-------------------------------------------------------------------------------
  Stress axis :                     x             y             z
-------------------------------------------------------------------------------
  Youngs Moduli (GPa)     =      88.86373      88.86373      88.86373
-------------------------------------------------------------------------------
  Poissons Ratio (x)      =                     0.17321       0.17321
  Poissons Ratio (y)      =       0.17321                     0.17321
  Poissons Ratio (z)      =       0.17321       0.17321
-------------------------------------------------------------------------------


  Piezoelectric Strain Matrix: (Units=C/m**2)

-------------------------------------------------------------------------------
  Indices      1         2         3         4         5         6    
-------------------------------------------------------------------------------
       x    -0.00000  -0.00000  -0.00000   0.00000  -0.00000  -0.00000
       y    -0.00000  -0.00000   0.00000  -0.00000   0.00000   0.00000
       z    -0.00000  -0.00000  -0.00000  -0.00000   0.00000   0.00000
-------------------------------------------------------------------------------


  Piezoelectric Stress Matrix: (Units=10**-11 C/N)

-------------------------------------------------------------------------------
  Indices      1         2         3         4         5         6    
-------------------------------------------------------------------------------
       x    -0.00000   0.00000   0.00000   0.00000  -0.00000  -0.00000
       y    -0.00000  -0.00000   0.00000  -0.00000   0.00000   0.00000
       z     0.00000   0.00000  -0.00000  -0.00000   0.00000   0.00000
-------------------------------------------------------------------------------


  Static dielectric constant tensor : 

-------------------------------------------------------------------------------
              x         y         z
-------------------------------------------------------------------------------
       x    22.84729   0.00000   0.00000
       y     0.00000  22.84729  -0.00000
       z     0.00000  -0.00000  22.84729
--------------------------------------------------------------------------------

  High frequency dielectric constant tensor : 

-------------------------------------------------------------------------------
              x         y         z
-------------------------------------------------------------------------------
       x     1.47557   0.00000  -0.00000
       y     0.00000   1.47557  -0.00000
       z    -0.00000  -0.00000   1.47557
-------------------------------------------------------------------------------

  Static refractive indices : 

-------------------------------------------------------------------------------
    1 =    4.77988      2 =    4.77988      3 =    4.77988
-------------------------------------------------------------------------------

  High frequency refractive indices : 

-------------------------------------------------------------------------------
    1 =    1.21473      2 =    1.21473      3 =    1.21473
-------------------------------------------------------------------------------


  Time to end of optimisation =       0.0317 seconds

********************************************************************************
*  Defect calculation for configuration   1 :                                  *
********************************************************************************

  Total number of defects =      3

  Total charge on defect  =  -1.00

  Defect centre is at   0.5000   0.2500   0.2500  Frac

  Region 1 radius =  12.0000      Number of ions =    543

  Number of symmetry inequivalent region 1 ions  =    179

  Region 2 radius =  16.0000      Number of ions =    766

  Number of symmetry inequivalent region 2a ions =    227

  Region 2a mode = 4 : screened electrostatics due to region 1 
                       neglect correction to region 1 forces from 2a
                       region 2a displacements based on defects only

  Region 2a ions will only interact with defects in region 1

  Vacancies:

--------------------------------------------------------------------------------
    Specification type     Symbol/Number         x          y          z
--------------------------------------------------------------------------------
    Fractional                               0.500000   0.500000   0.000000
    Fractional                               0.500000   0.000000   0.500000
--------------------------------------------------------------------------------

  Interstitials:

--------------------------------------------------------------------------------
    Specification type     Symbol/Number         x          y          z
--------------------------------------------------------------------------------
    Atom/Fractional         Na               0.500000   0.250000   0.250000
--------------------------------------------------------------------------------


  Symmetry reduced region 1 (Relative to defect centre) :

--------------------------------------------------------------------------------
   No.   Atomic       x            y             z       Radius  Multiplicity   
         Label      (Angs)       (Angs)        (Angs)    (Angs)     
--------------------------------------------------------------------------------
     1  Na    c      0.0000       0.0000 *     0.0000    0.0000     1    Defect
     2  O     c      0.0000       1.1269 *     1.1269    0.0000     1          
     3  Cl    c      2.2539 *    -1.1269 *    -1.1269    0.0000     2          
     4  Na    c      2.2539 *     1.1269 *     1.1269    0.0000     2          
     5  O     c      0.0000       1.1269 *    -3.3808 *  0.0000     2          
     6  Na    c      0.0000       1.1269 *     3.3808 *  0.0000     2          
     7  Na    c      0.0000      -3.3808 *    -1.1269 *  0.0000     2          
     8  Cl    c      2.2539 *    -1.1269 *     3.3808 *  0.0000     4          
     9  Na    c      2.2539 *     1.1269 *    -3.3808 *  0.0000     4          
    10  O     c     -4.5078 *     1.1269 *     1.1269    0.0000     2          
    11  Na    c     -4.5078 *     1.1269 *    -1.1269 *  0.0000     4          
    12  O     c      0.0000      -3.3808 *    -3.3808    0.0000     1          
    13  Na    c      0.0000      -3.3808 *     3.3808 *  0.0000     2          
    14  Cl    c      2.2539 *     3.3808 *     3.3808    0.0000     2          
    15  Na    c      2.2539 *    -3.3808 *    -3.3808    0.0000     2          
    16  O     c      0.0000       1.1269 *     5.6347 *  0.0000     2          
    17  Na    c      0.0000       1.1269 *    -5.6347 *  0.0000     2          
    18  Na    c      0.0000       5.6347 *    -1.1269 *  0.0000     2          
    19  O     c     -4.5078 *     1.1269 *    -3.3808 *  0.0000     4          
    20  Na    c     -4.5078 *     1.1269 *     3.3808 *  0.0000     4          
    21  Na    c     -4.5078 *    -3.3808 *    -1.1269 *  0.0000     4          
    22  Cl    c      2.2539 *    -1.1269 *    -5.6347 *  0.0000     4          
    23  Na    c      2.2539 *     1.1269 *     5.6347 *  0.0000     4          
    24  O     c      0.0000       5.6347 *    -3.3808 *  0.0000     2          
    25  Na    c      0.0000       5.6347 *     3.3808 *  0.0000     2          
    26  Na    c      0.0000      -3.3808 *    -5.6347 *  0.0000     2          
    27  O     c      4.5078 *    -3.3808 *    -3.3808    0.0000     2          
    28  Na    c      4.5078 *    -3.3808 *     3.3808 *  0.0000     4          
    29  Cl    c      2.2539 *     3.3808 *    -5.6347 *  0.0000     4          
    30  Na    c      2.2539 *     5.6347 *    -3.3808 *  0.0000     4          
    31  Cl    c      6.7617 *    -1.1269 *    -1.1269    0.0000     2          
    32  Na    c      6.7617 *     1.1269 *     1.1269    0.0000     2          
    33  O     c     -4.5078 *     1.1269 *     5.6347 *  0.0000     4          
    34  Na    c     -4.5078 *     1.1269 *    -5.6347 *  0.0000     4          
    35  Na    c     -4.5078 *    -1.1269 *     5.6347 *  0.0000     4          
    36  Cl    c      6.7617 *    -1.1269 *     3.3808 *  0.0000     4          
    37  Na    c      6.7617 *     1.1269 *    -3.3808 *  0.0000     4          
    38  O     c      0.0000       5.6347 *     5.6347    0.0000     1          
    39  Na    c      0.0000       5.6347 *    -5.6347 *  0.0000     2          
    40  O     c     -4.5078 *    -3.3808 *     5.6347 *  0.0000     4          
    41  Na    c     -4.5078 *    -3.3808 *    -5.6347 *  0.0000     4          
    42  Na    c     -4.5078 *     3.3808 *     5.6347 *  0.0000     4          
    43  O     c      0.0000       1.1269 *    -7.8886 *  0.0000     2          
    44  Na    c      0.0000       1.1269 *     7.8886 *  0.0000     2          
    45  Na    c      0.0000      -7.8886 *    -1.1269 *  0.0000     2          
    46  Cl    c      2.2539 *    -5.6347 *    -5.6347    0.0000     2          
    47  Na    c      2.2539 *     5.6347 *     5.6347    0.0000     2          
    48  Cl    c      2.2539 *    -1.1269 *     7.8886 *  0.0000     4          
    49  Na    c      2.2539 *     1.1269 *    -7.8886 *  0.0000     4          
    50  Cl    c      6.7617 *     3.3808 *     3.3808    0.0000     2          
    51  Na    c      6.7617 *    -3.3808 *    -3.3808    0.0000     2          
    52  O     c      0.0000      -3.3808 *    -7.8886 *  0.0000     2          
    53  Na    c      0.0000      -3.3808 *     7.8886 *  0.0000     2          
    54  Na    c      0.0000      -7.8886 *     3.3808 *  0.0000     2          
    55  Cl    c      2.2539 *     3.3808 *     7.8886 *  0.0000     4          
    56  Cl    c      6.7617 *    -1.1269 *    -5.6347 *  0.0000     4          
    57  Na    c      2.2539 *    -3.3808 *    -7.8886 *  0.0000     4          
    58  Na    c      6.7617 *     1.1269 *     5.6347 *  0.0000     4          
    59  O     c      4.5078 *     5.6347 *     5.6347    0.0000     2          
    60  O     c      4.5078 *    -7.8886 *     1.1269 *  0.0000     4          
    61  O     c      9.0156 *     1.1269 *     1.1269    0.0000     2          
    62  Na    c      4.5078 *     5.6347 *    -5.6347 *  0.0000     4          
    63  Na    c      4.5078 *    -7.8886 *    -1.1269 *  0.0000     4          
    64  Na    c      9.0156 *     1.1269 *    -1.1269 *  0.0000     4          
    65  Na    c     -4.5078 *     1.1269 *     7.8886 *  0.0000     4          
    66  Cl    c      6.7617 *     3.3808 *    -5.6347 *  0.0000     4          
    67  Na    c      6.7617 *    -3.3808 *     5.6347 *  0.0000     4          
    68  O     c      0.0000       5.6347 *    -7.8886 *  0.0000     2          
    69  O     c      9.0156 *    -3.3808 *     1.1269 *  0.0000     4          
    70  O     c     -4.5078 *    -3.3808 *    -7.8886 *  0.0000     4          
    71  Na    c      0.0000       5.6347 *     7.8886 *  0.0000     2          
    72  Na    c      0.0000      -7.8886 *    -5.6347 *  0.0000     2          
    73  Na    c      9.0156 *    -3.3808 *    -1.1269 *  0.0000     4          
    74  Na    c     -4.5078 *    -3.3808 *     7.8886 *  0.0000     4          
    75  Na    c      9.0156 *     3.3808 *     1.1269 *  0.0000     4          
    76  Na    c     -4.5078 *     3.3808 *    -7.8886 *  0.0000     4          
    77  Cl    c      2.2539 *     7.8886 *    -5.6347 *  0.0000     4          
    78  Na    c      2.2539 *     5.6347 *    -7.8886 *  0.0000     4          
    79  O     c      0.0000      10.1425 *     1.1269 *  0.0000     2          
    80  Na    c      0.0000      10.1425 *    -1.1269 *  0.0000     2          
    81  Na    c      0.0000     -10.1425 *     1.1269 *  0.0000     2          
    82  O     c      9.0156 *    -3.3808 *    -3.3808    0.0000     2          
    83  Na    c      9.0156 *    -3.3808 *     3.3808 *  0.0000     4          
    84  Cl    c      6.7617 *    -5.6347 *    -5.6347    0.0000     2          
    85  Na    c      6.7617 *     5.6347 *     5.6347    0.0000     2          
    86  Cl    c      2.2539 *    -1.1269 *   -10.1425 *  0.0000     4          
    87  Cl    c      6.7617 *    -1.1269 *     7.8886 *  0.0000     4          
    88  Na    c      2.2539 *     1.1269 *    10.1425 *  0.0000     4          
    89  Na    c      6.7617 *     1.1269 *    -7.8886 *  0.0000     4          
    90  O     c      4.5078 *     5.6347 *    -7.8886 *  0.0000     4          
    91  O     c      9.0156 *     1.1269 *     5.6347 *  0.0000     4          
    92  Na    c      4.5078 *     5.6347 *     7.8886 *  0.0000     4          
    93  Na    c      4.5078 *    -7.8886 *    -5.6347 *  0.0000     4          
    94  Na    c      9.0156 *     1.1269 *    -5.6347 *  0.0000     4          
    95  Na    c      9.0156 *     5.6347 *    -1.1269 *  0.0000     4          
    96  O     c      0.0000      10.1425 *    -3.3808 *  0.0000     2          
    97  Na    c      0.0000      10.1425 *     3.3808 *  0.0000     2          
    98  Na    c      0.0000      -3.3808 *   -10.1425 *  0.0000     2          
    99  Cl    c      2.2539 *     3.3808 *   -10.1425 *  0.0000     4          
   100  Cl    c      6.7617 *     7.8886 *     3.3808 *  0.0000     4          
   101  Na    c      2.2539 *    10.1425 *    -3.3808 *  0.0000     4          
   102  Na    c      6.7617 *    -7.8886 *    -3.3808 *  0.0000     4          
   103  O     c      9.0156 *    -3.3808 *     5.6347 *  0.0000     4          
   104  O     c     -4.5078 *    10.1425 *     1.1269 *  0.0000     4          
   105  Na    c      9.0156 *    -3.3808 *    -5.6347 *  0.0000     4          
   106  Na    c     -4.5078 *    10.1425 *    -1.1269 *  0.0000     4          
   107  Na    c      9.0156 *     3.3808 *     5.6347 *  0.0000     4          
   108  Na    c     -4.5078 *   -10.1425 *     1.1269 *  0.0000     4          
   109  O     c      0.0000      -7.8886 *    -7.8886    0.0000     1          
   110  Na    c      0.0000      -7.8886 *     7.8886 *  0.0000     2          
   111  Cl    c     11.2695 *    -1.1269 *    -1.1269    0.0000     2          
   112  Na    c     11.2695 *     1.1269 *     1.1269    0.0000     2          
   113  Cl    c      2.2539 *     7.8886 *     7.8886    0.0000     2          
   114  Na    c      2.2539 *    -7.8886 *    -7.8886    0.0000     2          
   115  O     c      0.0000       5.6347 *    10.1425 *  0.0000     2          
   116  O     c     -4.5078 *    10.1425 *    -3.3808 *  0.0000     4          
   117  Na    c      0.0000       5.6347 *   -10.1425 *  0.0000     2          
   118  Na    c      0.0000      10.1425 *    -5.6347 *  0.0000     2          
   119  Na    c     -4.5078 *    10.1425 *     3.3808 *  0.0000     4          
   120  Na    c     -4.5078 *   -10.1425 *    -3.3808 *  0.0000     4          
   121  Cl    c     11.2695 *    -1.1269 *     3.3808 *  0.0000     4          
   122  Na    c     11.2695 *     1.1269 *    -3.3808 *  0.0000     4          
   123  Cl    c      2.2539 *    -5.6347 *   -10.1425 *  0.0000     4          
   124  Cl    c      6.7617 *     7.8886 *    -5.6347 *  0.0000     4          
   125  Na    c      2.2539 *     5.6347 *    10.1425 *  0.0000     4          
   126  Na    c      6.7617 *    -7.8886 *     5.6347 *  0.0000     4          
   127  O     s      0.0000       1.1269 *     1.1269    0.0000     1          
   128  Cl    s      2.2539 *    -1.1269 *    -1.1269    0.0000     2          
   129  O     s      0.0000       1.1269 *    -3.3808 *  0.0000     2          
   130  Cl    s      2.2539 *    -1.1269 *     3.3808 *  0.0000     4          
   131  O     s     -4.5078 *     1.1269 *     1.1269    0.0000     2          
   132  O     s      0.0000      -3.3808 *    -3.3808    0.0000     1          
   133  Cl    s      2.2539 *     3.3808 *     3.3808    0.0000     2          
   134  O     s      0.0000       1.1269 *     5.6347 *  0.0000     2          
   135  O     s     -4.5078 *     1.1269 *    -3.3808 *  0.0000     4          
   136  Cl    s      2.2539 *    -1.1269 *    -5.6347 *  0.0000     4          
   137  O     s      0.0000       5.6347 *    -3.3808 *  0.0000     2          
   138  O     s      4.5078 *    -3.3808 *    -3.3808    0.0000     2          
   139  Cl    s      2.2539 *     3.3808 *    -5.6347 *  0.0000     4          
   140  Cl    s      6.7617 *    -1.1269 *    -1.1269    0.0000     2          
   141  O     s     -4.5078 *     1.1269 *     5.6347 *  0.0000     4          
   142  Cl    s      6.7617 *    -1.1269 *     3.3808 *  0.0000     4          
   143  O     s      0.0000       5.6347 *     5.6347    0.0000     1          
   144  O     s     -4.5078 *    -3.3808 *     5.6347 *  0.0000     4          
   145  O     s      0.0000       1.1269 *    -7.8886 *  0.0000     2          
   146  Cl    s      2.2539 *    -5.6347 *    -5.6347    0.0000     2          
   147  Cl    s      2.2539 *    -1.1269 *     7.8886 *  0.0000     4          
   148  Cl    s      6.7617 *     3.3808 *     3.3808    0.0000     2          
   149  O     s      0.0000      -3.3808 *    -7.8886 *  0.0000     2          
   150  Cl    s      2.2539 *     3.3808 *     7.8886 *  0.0000     4          
   151  Cl    s      6.7617 *    -1.1269 *    -5.6347 *  0.0000     4          
   152  O     s      4.5078 *     5.6347 *     5.6347    0.0000     2          
   153  O     s      4.5078 *    -7.8886 *     1.1269 *  0.0000     4          
   154  O     s      9.0156 *     1.1269 *     1.1269    0.0000     2          
   155  Cl    s      6.7617 *     3.3808 *    -5.6347 *  0.0000     4          
   156  O     s      0.0000       5.6347 *    -7.8886 *  0.0000     2          
   157  O     s      9.0156 *    -3.3808 *     1.1269 *  0.0000     4          
   158  O     s     -4.5078 *    -3.3808 *    -7.8886 *  0.0000     4          
   159  Cl    s      2.2539 *     7.8886 *    -5.6347 *  0.0000     4          
   160  O     s      0.0000      10.1425 *     1.1269 *  0.0000     2          
   161  O     s      9.0156 *    -3.3808 *    -3.3808    0.0000     2          
   162  Cl    s      6.7617 *    -5.6347 *    -5.6347    0.0000     2          
   163  Cl    s      2.2539 *    -1.1269 *   -10.1425 *  0.0000     4          
   164  Cl    s      6.7617 *    -1.1269 *     7.8886 *  0.0000     4          
   165  O     s      4.5078 *     5.6347 *    -7.8886 *  0.0000     4          
   166  O     s      9.0156 *     1.1269 *     5.6347 *  0.0000     4          
   167  O     s      0.0000      10.1425 *    -3.3808 *  0.0000     2          
   168  Cl    s      2.2539 *     3.3808 *   -10.1425 *  0.0000     4          
   169  Cl    s      6.7617 *     7.8886 *     3.3808 *  0.0000     4          
   170  O     s      9.0156 *    -3.3808 *     5.6347 *  0.0000     4          
   171  O     s     -4.5078 *    10.1425 *     1.1269 *  0.0000     4          
   172  O     s      0.0000      -7.8886 *    -7.8886    0.0000     1          
   173  Cl    s     11.2695 *    -1.1269 *    -1.1269    0.0000     2          
   174  Cl    s      2.2539 *     7.8886 *     7.8886    0.0000     2          
   175  O     s      0.0000       5.6347 *    10.1425 *  0.0000     2          
   176  O     s     -4.5078 *    10.1425 *    -3.3808 *  0.0000     4          
   177  Cl    s     11.2695 *    -1.1269 *     3.3808 *  0.0000     4          
   178  Cl    s      2.2539 *    -5.6347 *   -10.1425 *  0.0000     4          
   179  Cl    s      6.7617 *     7.8886 *    -5.6347 *  0.0000     4          
--------------------------------------------------------------------------------


  Constraints on symmetry reduced coordinates :

--------------------------------------------------------------------------------
  Constraint no.      Unconstrained     Constrained    Coefficient    
                         Variable         Variable
--------------------------------------------------------------------------------
           1                 1 y             1 z         1.00000
           2                 2 y             2 z         1.00000
           3                 3 y             3 z         1.00000
           4                 4 y             4 z         1.00000
           5                10 y            10 z         1.00000
           6                12 y            12 z         1.00000
           7                14 y            14 z         1.00000
           8                15 y            15 z         1.00000
           9                27 y            27 z         1.00000
          10                31 y            31 z         1.00000
          11                32 y            32 z         1.00000
          12                38 y            38 z         1.00000
          13                46 y            46 z         1.00000
          14                47 y            47 z         1.00000
          15                50 y            50 z         1.00000
          16                51 y            51 z         1.00000
          17                59 y            59 z         1.00000
          18                61 y            61 z         1.00000
          19                82 y            82 z         1.00000
          20                84 y            84 z         1.00000
          21                85 y            85 z         1.00000
          22               109 y           109 z         1.00000
          23               111 y           111 z         1.00000
          24               112 y           112 z         1.00000
          25               113 y           113 z         1.00000
          26               114 y           114 z         1.00000
          27               127 y           127 z         1.00000
          28               128 y           128 z         1.00000
          29               131 y           131 z         1.00000
          30               132 y           132 z         1.00000
          31               133 y           133 z         1.00000
          32               138 y           138 z         1.00000
          33               140 y           140 z         1.00000
          34               143 y           143 z         1.00000
          35               146 y           146 z         1.00000
          36               148 y           148 z         1.00000
          37               152 y           152 z         1.00000
          38               154 y           154 z         1.00000
          39               161 y           161 z         1.00000
          40               162 y           162 z         1.00000
          41               172 y           172 z         1.00000
          42               173 y           173 z         1.00000
          43               174 y           174 z         1.00000
--------------------------------------------------------------------------------


  Components of defect energy : 

--------------------------------------------------------------------------------
  Region 1 - region 1                   =     11.06000526 eV
  Region 1 - region 2a (unrelaxed)      =     -0.28889961 eV
  Region 1 - 2a (relaxed - correction)  =     -0.28749197 eV
  Region 1 (Total)                      =     10.48361368 eV
  Region 2a                             =      0.14367650 eV
  Region 2b                             =     -0.43168048 eV
--------------------------------------------------------------------------------
  Total defect energy                   =     10.19560970 eV
--------------------------------------------------------------------------------

  Largest displacement in region 2 =   0.0201 Angstroms


  Number of variables =      446

  Maximum number of calculations  =        1000
  Maximum Hessian update interval =          10
  Maximum step size               =   1.0000000
  Maximum parameter tolerance     =   0.0000100
  Maximum function  tolerance     =   0.0000100
  Maximum gradient  tolerance     =   0.0010000

  Symmetry adapted optimisation

  Symmetry to be used for second derivatives

  Newton-Raphson optimiser to be used

  BFGS hessian update to be used

  Lower half triangular hessian to be used

  Start of defect optimisation :

  Cycle:      0 Defect Energy:  10.195610  Gnorm:     0.079476  CPU:    1.791
  ** Hessian calculated **
  Cycle:      1 Defect Energy:   9.188426  Gnorm:     0.068615  CPU:    5.180
  ** Hessian calculated **
  Cycle:      2 Defect Energy:   7.728233  Gnorm:     0.049683  CPU:    8.978
  ** Hessian calculated **
  Cycle:      3 Defect Energy:   6.481899  Gnorm:     0.027565  CPU:   11.732
  Cycle:      4 Defect Energy:   5.767852  Gnorm:     0.015898  CPU:   13.393
  Cycle:      5 Defect Energy:   5.601862  Gnorm:     0.014157  CPU:   16.275
  Cycle:      6 Defect Energy:   5.474955  Gnorm:     0.008990  CPU:   20.220
  Cycle:      7 Defect Energy:   5.406777  Gnorm:     0.012994  CPU:   22.762
  Cycle:      8 Defect Energy:   5.320855  Gnorm:     0.009637  CPU:   25.084
  Cycle:      9 Defect Energy:   5.223183  Gnorm:     0.009206  CPU:   27.463
  Cycle:     10 Defect Energy:   5.112135  Gnorm:     0.008253  CPU:   29.697
  Cycle:     11 Defect Energy:   5.075210  Gnorm:     0.007048  CPU:   30.209
  Cycle:     12 Defect Energy:   5.033654  Gnorm:     0.006079  CPU:   30.705
  ** Hessian calculated **
  Cycle:     13 Defect Energy:   4.981553  Gnorm:     0.005246  CPU:   32.582
  Cycle:     14 Defect Energy:   4.915463  Gnorm:     0.003827  CPU:   33.078
  Cycle:     15 Defect Energy:   4.882757  Gnorm:     0.002638  CPU:   33.561
  Cycle:     16 Defect Energy:   4.870428  Gnorm:     0.001881  CPU:   34.053
  Cycle:     17 Defect Energy:   4.866905  Gnorm:     0.001394  CPU:   34.533
  ** Hessian calculated **
  Cycle:     18 Defect Energy:   4.866429  Gnorm:     0.000935  CPU:   36.364
  Cycle:     19 Defect Energy:   4.865826  Gnorm:     0.000805  CPU:   36.820
  Cycle:     20 Defect Energy:   4.865153  Gnorm:     0.000770  CPU:   37.290
  Cycle:     21 Defect Energy:   4.864541  Gnorm:     0.000754  CPU:   37.766
  Cycle:     22 Defect Energy:   4.864091  Gnorm:     0.000735  CPU:   38.244
  Cycle:     23 Defect Energy:   4.863609  Gnorm:     0.000721  CPU:   38.720
  Cycle:     24 Defect Energy:   4.863166  Gnorm:     0.000735  CPU:   39.192
  Cycle:     25 Defect Energy:   4.862615  Gnorm:     0.000705  CPU:   39.667
  Cycle:     26 Defect Energy:   4.862002  Gnorm:     0.000669  CPU:   40.219
  Cycle:     27 Defect Energy:   4.861155  Gnorm:     0.000698  CPU:   40.711
  ** Hessian calculated **
  Cycle:     28 Defect Energy:   4.860855  Gnorm:     0.000606  CPU:   42.285
  Cycle:     29 Defect Energy:   4.860473  Gnorm:     0.000597  CPU:   42.747
  Cycle:     30 Defect Energy:   4.860002  Gnorm:     0.000586  CPU:   43.216
  Cycle:     31 Defect Energy:   4.859372  Gnorm:     0.000573  CPU:   43.677
  Cycle:     32 Defect Energy:   4.858850  Gnorm:     0.000576  CPU:   44.131
  Cycle:     33 Defect Energy:   4.858397  Gnorm:     0.000595  CPU:   44.675
  Cycle:     34 Defect Energy:   4.857991  Gnorm:     0.000634  CPU:   45.571
  Cycle:     35 Defect Energy:   4.857428  Gnorm:     0.000654  CPU:   47.800
  Cycle:     36 Defect Energy:   4.856837  Gnorm:     0.000735  CPU:   48.908
  Cycle:     37 Defect Energy:   4.855832  Gnorm:     0.000805  CPU:   49.496
  ** Hessian calculated **
  Cycle:     38 Defect Energy:   4.855517  Gnorm:     0.000742  CPU:   51.558
  Cycle:     39 Defect Energy:   4.855046  Gnorm:     0.000729  CPU:   52.124
  Cycle:     40 Defect Energy:   4.854428  Gnorm:     0.000712  CPU:   52.677
  Cycle:     41 Defect Energy:   4.853661  Gnorm:     0.000684  CPU:   53.315
  Cycle:     42 Defect Energy:   4.852950  Gnorm:     0.000681  CPU:   53.867
  Cycle:     43 Defect Energy:   4.852331  Gnorm:     0.000696  CPU:   54.402
  Cycle:     44 Defect Energy:   4.851716  Gnorm:     0.000725  CPU:   54.920
  Cycle:     45 Defect Energy:   4.850789  Gnorm:     0.000771  CPU:   55.462
  Cycle:     46 Defect Energy:   4.849537  Gnorm:     0.000888  CPU:   55.992
  Cycle:     47 Defect Energy:   4.847415  Gnorm:     0.001042  CPU:   56.524
  ** Hessian calculated **
  Cycle:     48 Defect Energy:   4.846267  Gnorm:     0.000953  CPU:   58.490
  Cycle:     49 Defect Energy:   4.844761  Gnorm:     0.000964  CPU:   58.996
  Cycle:     50 Defect Energy:   4.842739  Gnorm:     0.000931  CPU:   59.502
  Cycle:     51 Defect Energy:   4.840137  Gnorm:     0.000918  CPU:   60.003
  Cycle:     52 Defect Energy:   4.837496  Gnorm:     0.000953  CPU:   60.509
  Cycle:     53 Defect Energy:   4.835372  Gnorm:     0.001007  CPU:   61.028
  Cycle:     54 Defect Energy:   4.833328  Gnorm:     0.001081  CPU:   61.562
  Cycle:     55 Defect Energy:   4.830839  Gnorm:     0.001194  CPU:   62.084
  Cycle:     56 Defect Energy:   4.827858  Gnorm:     0.001405  CPU:   62.621
  Cycle:     57 Defect Energy:   4.824151  Gnorm:     0.001526  CPU:   63.200
  ** Hessian calculated **
  Cycle:     58 Defect Energy:   4.822532  Gnorm:     0.001457  CPU:   64.903
  Cycle:     59 Defect Energy:   4.820233  Gnorm:     0.001437  CPU:   65.410
  Cycle:     60 Defect Energy:   4.817218  Gnorm:     0.001389  CPU:   65.926
  Cycle:     61 Defect Energy:   4.813487  Gnorm:     0.001347  CPU:   66.424
  Cycle:     62 Defect Energy:   4.810605  Gnorm:     0.001346  CPU:   66.932
  Cycle:     63 Defect Energy:   4.808331  Gnorm:     0.001361  CPU:   67.521
  Cycle:     64 Defect Energy:   4.806552  Gnorm:     0.001392  CPU:   68.010
  Cycle:     65 Defect Energy:   4.804771  Gnorm:     0.001409  CPU:   68.500
  Cycle:     66 Defect Energy:   4.803062  Gnorm:     0.001469  CPU:   68.986
  Cycle:     67 Defect Energy:   4.800921  Gnorm:     0.001521  CPU:   69.478
  ** Hessian calculated **
  Cycle:     68 Defect Energy:   4.790541  Gnorm:     0.001436  CPU:   71.446
  Cycle:     69 Defect Energy:   4.775777  Gnorm:     0.001288  CPU:   71.972
  Cycle:     70 Defect Energy:   4.755763  Gnorm:     0.000964  CPU:   72.498
  Cycle:     71 Defect Energy:   4.745854  Gnorm:     0.000651  CPU:   73.022
  Cycle:     72 Defect Energy:   4.741918  Gnorm:     0.000455  CPU:   73.531
  Cycle:     73 Defect Energy:   4.740136  Gnorm:     0.000312  CPU:   74.051
  Cycle:     74 Defect Energy:   4.739260  Gnorm:     0.000225  CPU:   74.543
  Cycle:     75 Defect Energy:   4.738885  Gnorm:     0.000139  CPU:   75.045
  Cycle:     76 Defect Energy:   4.738656  Gnorm:     0.000102  CPU:   75.631
  Cycle:     77 Defect Energy:   4.738589  Gnorm:     0.000064  CPU:   76.197
  ** Hessian calculated **
  Cycle:     78 Defect Energy:   4.738543  Gnorm:     0.000045  CPU:   80.279
  Cycle:     79 Defect Energy:   4.738519  Gnorm:     0.000032  CPU:   80.850
  Cycle:     80 Defect Energy:   4.738507  Gnorm:     0.000022  CPU:   81.435


  **** Optimisation achieved ****


  Final defect energy  =        4.73849997
  Final defect Gnorm   =        0.00001581

  Components of defect energy : 

--------------------------------------------------------------------------------
  Region 1 - region 1                   =      6.66854157 eV
  Region 1 - region 2a (unrelaxed)      =     -1.38569289 eV
  Region 1 - 2a (relaxed - correction)  =     -0.22509749 eV
  Region 1 (Total)                      =      5.05775119 eV
  Region 2a                             =      0.11253943 eV
  Region 2b                             =     -0.43179065 eV
--------------------------------------------------------------------------------
  Total defect energy                   =      4.73849997 eV
--------------------------------------------------------------------------------

  Largest displacement in region 2 =   0.0207 Angstroms

  Final coordinates of region 1 :

--------------------------------------------------------------------------------
   No.  Atomic        x           y           z          Radius      Charge
        Label       (Angs)      (Angs)      (Angs)       (Angs)       (e) 
--------------------------------------------------------------------------------
     1  Na    c     2.253894    0.723772    0.723772    0.000000    1.000000
     2  O     c     2.253894    2.275469    2.275469    0.000000    0.183000
     3  Cl    c     4.748829   -0.047662   -0.047662    0.000000    1.485000
     4  Cl    c    -0.241042   -0.047662   -0.047662    0.000000    1.485000
     5  Na    c     4.479791    2.162435    2.162435    0.000000    1.000000
     6  Na    c     0.027996    2.162435    2.162435    0.000000    1.000000
     7  O     c     2.253894    2.224647   -2.257838    0.000000    0.183000
     8  O     c     2.253894   -2.257838    2.224647    0.000000    0.183000
     9  Na    c     2.253894    1.925243    4.465001    0.000000    1.000000
    10  Na    c     2.253894    4.465001    1.925243    0.000000    1.000000
    11  Na    c     2.253894   -2.570951    0.025185    0.000000    1.000000
    12  Na    c     2.253894    0.025185   -2.570951    0.000000    1.000000
    13  Cl    c     4.645127   -0.003894    4.640862    0.000000    1.485000
    14  Cl    c     4.645127    4.640862   -0.003894    0.000000    1.485000
    15  Cl    c    -0.137339   -0.003894    4.640862    0.000000    1.485000
    16  Cl    c    -0.137339    4.640862   -0.003894    0.000000    1.485000
    17  Na    c     4.449029    2.217272   -1.824742    0.000000    1.000000
    18  Na    c     4.449029   -1.824742    2.217272    0.000000    1.000000
    19  Na    c     0.058758    2.217272   -1.824742    0.000000    1.000000
    20  Na    c     0.058758   -1.824742    2.217272    0.000000    1.000000
    21  O     c    -2.263473    2.267595    2.267595    0.000000    0.183000
    22  O     c     6.771260    2.267595    2.267595    0.000000    0.183000
    23  Na    c    -2.510968    2.223533    0.013897    0.000000    1.000000
    24  Na    c    -2.510968    0.013897    2.223533    0.000000    1.000000
    25  Na    c     7.018755    2.223533    0.013897    0.000000    1.000000
    26  Na    c     7.018755    0.013897    2.223533    0.000000    1.000000
    27  O     c     2.253894   -2.240725   -2.240725    0.000000    0.183000
    28  Na    c     2.253894   -1.710812    4.418775    0.000000    1.000000
    29  Na    c     2.253894    4.418775   -1.710812    0.000000    1.000000
    30  Cl    c     4.613270    4.585296    4.585296    0.000000    1.485000
    31  Cl    c    -0.105483    4.585296    4.585296    0.000000    1.485000
    32  Na    c     4.502435   -2.144474   -2.144474    0.000000    1.000000
    33  Na    c     0.005352   -2.144474   -2.144474    0.000000    1.000000
    34  O     c     2.253894    2.214421    6.771142    0.000000    0.183000
    35  O     c     2.253894    6.771142    2.214421    0.000000    0.183000
    36  Na    c     2.253894    2.606110   -4.469517    0.000000    1.000000
    37  Na    c     2.253894   -4.469517    2.606110    0.000000    1.000000
    38  Na    c     2.253894    7.130208   -0.011485    0.000000    1.000000
    39  Na    c     2.253894   -0.011485    7.130208    0.000000    1.000000
    40  O     c    -2.225438    2.262650   -2.238754    0.000000    0.183000
    41  O     c    -2.225438   -2.238754    2.262650    0.000000    0.183000
    42  O     c     6.733226    2.262650   -2.238754    0.000000    0.183000
    43  O     c     6.733226   -2.238754    2.262650    0.000000    0.183000
    44  Na    c    -2.063703    2.204901    4.515726    0.000000    1.000000
    45  Na    c    -2.063703    4.515726    2.204901    0.000000    1.000000
    46  Na    c     6.571490    2.204901    4.515726    0.000000    1.000000
    47  Na    c     6.571490    4.515726    2.204901    0.000000    1.000000
    48  Na    c    -2.314323   -2.247601    0.004464    0.000000    1.000000
    49  Na    c    -2.314323    0.004464   -2.247601    0.000000    1.000000
    50  Na    c     6.822110   -2.247601    0.004464    0.000000    1.000000
    51  Na    c     6.822110    0.004464   -2.247601    0.000000    1.000000
    52  Cl    c     4.523923   -0.108540   -4.572935    0.000000    1.485000
    53  Cl    c     4.523923   -4.572935   -0.108540    0.000000    1.485000
    54  Cl    c    -0.016135   -0.108540   -4.572935    0.000000    1.485000
    55  Cl    c    -0.016135   -4.572935   -0.108540    0.000000    1.485000
    56  Na    c     4.506909    2.177180    6.810277    0.000000    1.000000
    57  Na    c     4.506909    6.810277    2.177180    0.000000    1.000000
    58  Na    c     0.000879    2.177180    6.810277    0.000000    1.000000
    59  Na    c     0.000879    6.810277    2.177180    0.000000    1.000000
    60  O     c     2.253894    6.708496   -2.229097    0.000000    0.183000
    61  O     c     2.253894   -2.229097    6.708496    0.000000    0.183000
    62  Na    c     2.253894    6.554751    4.454866    0.000000    1.000000
    63  Na    c     2.253894    4.454866    6.554751    0.000000    1.000000
    64  Na    c     2.253894   -2.388429   -4.509259    0.000000    1.000000
    65  Na    c     2.253894   -4.509259   -2.388429    0.000000    1.000000
    66  O     c     6.756448   -2.262501   -2.262501    0.000000    0.183000
    67  O     c    -2.248661   -2.262501   -2.262501    0.000000    0.183000
    68  Na    c     6.694320   -2.159899    4.509009    0.000000    1.000000
    69  Na    c    -2.186532   -2.159899    4.509009    0.000000    1.000000
    70  Na    c     6.694320    4.509009   -2.159899    0.000000    1.000000
    71  Na    c    -2.186532    4.509009   -2.159899    0.000000    1.000000
    72  Cl    c     4.572132    4.576622   -4.607475    0.000000    1.485000
    73  Cl    c     4.572132   -4.607475    4.576622    0.000000    1.485000
    74  Cl    c    -0.064345    4.576622   -4.607475    0.000000    1.485000
    75  Cl    c    -0.064345   -4.607475    4.576622    0.000000    1.485000
    76  Na    c     4.504443    6.705150   -2.212824    0.000000    1.000000
    77  Na    c     4.504443   -2.212824    6.705150    0.000000    1.000000
    78  Na    c     0.003345    6.705150   -2.212824    0.000000    1.000000
    79  Na    c     0.003345   -2.212824    6.705150    0.000000    1.000000
    80  Cl    c     9.027036   -0.016854   -0.016854    0.000000    1.485000
    81  Cl    c    -4.519249   -0.016854   -0.016854    0.000000    1.485000
    82  Na    c     9.005178    2.525556    2.525556    0.000000    1.000000
    83  Na    c    -4.497391    2.525556    2.525556    0.000000    1.000000
    84  O     c    -2.260249    2.257007    6.767182    0.000000    0.183000
    85  O     c     6.768036    6.767182    2.257007    0.000000    0.183000
    86  O     c    -2.260249    6.767182    2.257007    0.000000    0.183000
    87  O     c     6.768036    2.257007    6.767182    0.000000    0.183000
    88  Na    c    -1.880924    2.289603   -4.473052    0.000000    1.000000
    89  Na    c     6.388712   -4.473052    2.289603    0.000000    1.000000
    90  Na    c    -1.880924   -4.473052    2.289603    0.000000    1.000000
    91  Na    c     6.388712    2.289603   -4.473052    0.000000    1.000000
    92  Na    c    -2.303722   -0.001997    6.816989    0.000000    1.000000
    93  Na    c     6.811509    6.816989   -0.001997    0.000000    1.000000
    94  Na    c    -2.303722    6.816989   -0.001997    0.000000    1.000000
    95  Na    c     6.811509   -0.001997    6.816989    0.000000    1.000000
    96  Cl    c     9.040420    0.014513    4.519054    0.000000    1.485000
    97  Cl    c    -4.532633    0.014513    4.519054    0.000000    1.485000
    98  Cl    c     9.040420    4.519054    0.014513    0.000000    1.485000
    99  Cl    c    -4.532633    4.519054    0.014513    0.000000    1.485000
   100  Na    c     8.979241    2.328580   -2.564344    0.000000    1.000000
   101  Na    c    -4.471454    2.328580   -2.564344    0.000000    1.000000
   102  Na    c     8.979241   -2.564344    2.328580    0.000000    1.000000
   103  Na    c    -4.471454   -2.564344    2.328580    0.000000    1.000000
   104  O     c     2.253894    6.720757    6.720757    0.000000    0.183000
   105  Na    c     2.253894    6.383956   -4.480612    0.000000    1.000000
   106  Na    c     2.253894   -4.480612    6.383956    0.000000    1.000000
   107  O     c    -2.261139   -2.264233    6.764277    0.000000    0.183000
   108  O     c     6.768926    6.764277   -2.264233    0.000000    0.183000
   109  O     c     6.768926   -2.264233    6.764277    0.000000    0.183000
   110  O     c    -2.261139    6.764277   -2.264233    0.000000    0.183000
   111  Na    c    -2.107334   -2.262272   -4.507540    0.000000    1.000000
   112  Na    c     6.615121   -2.262272   -4.507540    0.000000    1.000000
   113  Na    c     6.615121   -4.507540   -2.262272    0.000000    1.000000
   114  Na    c    -2.107334   -4.507540   -2.262272    0.000000    1.000000
   115  Na    c    -2.196761    4.508786    6.714782    0.000000    1.000000
   116  Na    c     6.704549    6.714782    4.508786    0.000000    1.000000
   117  Na    c    -2.196761    6.714782    4.508786    0.000000    1.000000
   118  Na    c     6.704549    4.508786    6.714782    0.000000    1.000000
   119  O     c     2.253894    2.266680   -6.758544    0.000000    0.183000
   120  O     c     2.253894   -6.758544    2.266680    0.000000    0.183000
   121  Na    c     2.253894    2.515931    9.018850    0.000000    1.000000
   122  Na    c     2.253894    9.018850    2.515931    0.000000    1.000000
   123  Na    c     2.253894   -6.496617    0.018722    0.000000    1.000000
   124  Na    c     2.253894    0.018722   -6.496617    0.000000    1.000000
   125  Cl    c     4.485795   -4.522452   -4.522452    0.000000    1.485000
   126  Cl    c     0.021993   -4.522452   -4.522452    0.000000    1.485000
   127  Na    c     4.506177    6.750395    6.750395    0.000000    1.000000
   128  Na    c     0.001610    6.750395    6.750395    0.000000    1.000000
   129  Cl    c     4.527611   -0.006337    9.039067    0.000000    1.485000
   130  Cl    c    -0.019823   -0.006337    9.039067    0.000000    1.485000
   131  Cl    c     4.527611    9.039067   -0.006337    0.000000    1.485000
   132  Cl    c    -0.019823    9.039067   -0.006337    0.000000    1.485000
   133  Na    c     4.494007    2.228116   -6.877845    0.000000    1.000000
   134  Na    c     0.013780    2.228116   -6.877845    0.000000    1.000000
   135  Na    c     4.494007   -6.877845    2.228116    0.000000    1.000000
   136  Na    c     0.013780   -6.877845    2.228116    0.000000    1.000000
   137  Cl    c     9.059875    4.553044    4.553044    0.000000    1.485000
   138  Cl    c    -4.552088    4.553044    4.553044    0.000000    1.485000
   139  Na    c     8.999418   -2.360950   -2.360950    0.000000    1.000000
   140  Na    c    -4.491631   -2.360950   -2.360950    0.000000    1.000000
   141  O     c     2.253894   -2.242347   -6.761292    0.000000    0.183000
   142  O     c     2.253894   -6.761292   -2.242347    0.000000    0.183000
   143  Na    c     2.253894   -2.545832    8.975900    0.000000    1.000000
   144  Na    c     2.253894    8.975900   -2.545832    0.000000    1.000000
   145  Na    c     2.253894   -7.028711    4.506116    0.000000    1.000000
   146  Na    c     2.253894    4.506116   -7.028711    0.000000    1.000000
   147  Cl    c     4.498737    4.507663    9.046952    0.000000    1.485000
   148  Cl    c     0.009050    4.507663    9.046952    0.000000    1.485000
   149  Cl    c     4.498737    9.046952    4.507663    0.000000    1.485000
   150  Cl    c     0.009050    9.046952    4.507663    0.000000    1.485000
   151  Cl    c     9.056542   -0.016081   -4.507335    0.000000    1.485000
   152  Cl    c    -4.548755   -0.016081   -4.507335    0.000000    1.485000
   153  Cl    c     9.056542   -4.507335   -0.016081    0.000000    1.485000
   154  Cl    c    -4.548755   -4.507335   -0.016081    0.000000    1.485000
   155  Na    c     4.504372   -2.179391   -6.798118    0.000000    1.000000
   156  Na    c     0.003415   -2.179391   -6.798118    0.000000    1.000000
   157  Na    c     4.504372   -6.798118   -2.179391    0.000000    1.000000
   158  Na    c     0.003415   -6.798118   -2.179391    0.000000    1.000000
   159  Na    c     9.019276    2.300135    6.631542    0.000000    1.000000
   160  Na    c    -4.511489    2.300135    6.631542    0.000000    1.000000
   161  Na    c     9.019276    6.631542    2.300135    0.000000    1.000000
   162  Na    c    -4.511489    6.631542    2.300135    0.000000    1.000000
   163  O     c     6.764448    6.766483    6.766483    0.000000    0.183000
   164  O     c    -2.256660    6.766483    6.766483    0.000000    0.183000
   165  O     c     6.741242   -6.730005    2.247612    0.000000    0.183000
   166  O     c    -2.233455    2.247612   -6.730005    0.000000    0.183000
   167  O     c    -2.233455   -6.730005    2.247612    0.000000    0.183000
   168  O     c     6.741242    2.247612   -6.730005    0.000000    0.183000
   169  O     c    11.238352    2.250281    2.250281    0.000000    0.183000
   170  O     c    -6.730565    2.250281    2.250281    0.000000    0.183000
   171  Na    c     6.727411    6.699331   -4.511983    0.000000    1.000000
   172  Na    c    -2.219624    6.699331   -4.511983    0.000000    1.000000
   173  Na    c     6.727411   -4.511983    6.699331    0.000000    1.000000
   174  Na    c    -2.219624   -4.511983    6.699331    0.000000    1.000000
   175  Na    c     6.845913   -6.681529    0.001705    0.000000    1.000000
   176  Na    c    -2.338126   -6.681529    0.001705    0.000000    1.000000
   177  Na    c    -2.338126    0.001705   -6.681529    0.000000    1.000000
   178  Na    c     6.845913    0.001705   -6.681529    0.000000    1.000000
   179  Na    c    10.977995    2.243319   -0.004816    0.000000    1.000000
   180  Na    c    -6.470208    2.243319   -0.004816    0.000000    1.000000
   181  Na    c    10.977995   -0.004816    2.243319    0.000000    1.000000
   182  Na    c    -6.470208   -0.004816    2.243319    0.000000    1.000000
   183  Na    c    -2.329466    2.310659    9.012315    0.000000    1.000000
   184  Na    c     6.837253    9.012315    2.310659    0.000000    1.000000
   185  Na    c    -2.329466    9.012315    2.310659    0.000000    1.000000
   186  Na    c     6.837253    2.310659    9.012315    0.000000    1.000000
   187  Cl    c     9.073319    4.542711   -4.517004    0.000000    1.485000
   188  Cl    c    -4.565532    4.542711   -4.517004    0.000000    1.485000
   189  Cl    c     9.073319   -4.517004    4.542711    0.000000    1.485000
   190  Cl    c    -4.565532   -4.517004    4.542711    0.000000    1.485000
   191  Na    c     9.016682   -2.314861    6.731763    0.000000    1.000000
   192  Na    c    -4.508895   -2.314861    6.731763    0.000000    1.000000
   193  Na    c     9.016682    6.731763   -2.314861    0.000000    1.000000
   194  Na    c    -4.508895    6.731763   -2.314861    0.000000    1.000000
   195  O     c     2.253894    6.743352   -6.748246    0.000000    0.183000
   196  O     c     2.253894   -6.748246    6.743352    0.000000    0.183000
   197  O     c    11.237007   -2.258226    2.252031    0.000000    0.183000
   198  O     c    -6.729219   -2.258226    2.252031    0.000000    0.183000
   199  O     c    11.237007    2.252031   -2.258226    0.000000    0.183000
   200  O     c    -6.729219    2.252031   -2.258226    0.000000    0.183000
   201  O     c    -2.253684   -2.253768   -6.761036    0.000000    0.183000
   202  O     c     6.761471   -2.253768   -6.761036    0.000000    0.183000
   203  O     c     6.761471   -6.761036   -2.253768    0.000000    0.183000
   204  O     c    -2.253684   -6.761036   -2.253768    0.000000    0.183000
   205  Na    c     2.253894    6.670003    8.987789    0.000000    1.000000
   206  Na    c     2.253894    8.987789    6.670003    0.000000    1.000000
   207  Na    c     2.253894   -6.815459   -4.502288    0.000000    1.000000
   208  Na    c     2.253894   -4.502288   -6.815459    0.000000    1.000000
   209  Na    c    11.159269   -2.258573   -0.003673    0.000000    1.000000
   210  Na    c    -6.651482   -2.258573   -0.003673    0.000000    1.000000
   211  Na    c    11.159269   -0.003673   -2.258573    0.000000    1.000000
   212  Na    c    -6.651482   -0.003673   -2.258573    0.000000    1.000000
   213  Na    c    -2.244813   -2.303682    9.012284    0.000000    1.000000
   214  Na    c     6.752600   -2.303682    9.012284    0.000000    1.000000
   215  Na    c     6.752600    9.012284   -2.303682    0.000000    1.000000
   216  Na    c    -2.244813    9.012284   -2.303682    0.000000    1.000000
   217  Na    c    11.432425    4.497686    2.205062    0.000000    1.000000
   218  Na    c    -6.924638    4.497686    2.205062    0.000000    1.000000
   219  Na    c    11.432425    2.205062    4.497686    0.000000    1.000000
   220  Na    c    -6.924638    2.205062    4.497686    0.000000    1.000000
   221  Na    c    -2.214264    4.504370   -6.765324    0.000000    1.000000
   222  Na    c     6.722051   -6.765324    4.504370    0.000000    1.000000
   223  Na    c    -2.214264   -6.765324    4.504370    0.000000    1.000000
   224  Na    c     6.722051    4.504370   -6.765324    0.000000    1.000000
   225  Cl    c     4.517397    9.063565   -4.513289    0.000000    1.485000
   226  Cl    c     4.517397   -4.513289    9.063565    0.000000    1.485000
   227  Cl    c    -0.009610    9.063565   -4.513289    0.000000    1.485000
   228  Cl    c    -0.009610   -4.513289    9.063565    0.000000    1.485000
   229  Na    c     4.504629    6.761213   -6.717224    0.000000    1.000000
   230  Na    c     4.504629   -6.717224    6.761213    0.000000    1.000000
   231  Na    c     0.003158    6.761213   -6.717224    0.000000    1.000000
   232  Na    c     0.003158   -6.717224    6.761213    0.000000    1.000000
   233  O     c     2.253894   11.260941    2.262751    0.000000    0.183000
   234  O     c     2.253894    2.262751   11.260941    0.000000    0.183000
   235  Na    c     2.253894   11.134559   -0.007008    0.000000    1.000000
   236  Na    c     2.253894   -0.007008   11.134559    0.000000    1.000000
   237  Na    c     2.253894   -9.021502    2.091362    0.000000    1.000000
   238  Na    c     2.253894    2.091362   -9.021502    0.000000    1.000000
   239  O     c    11.262527   -2.258257   -2.258257    0.000000    0.183000
   240  O     c    -6.754740   -2.258257   -2.258257    0.000000    0.183000
   241  Na    c    11.292846   -2.217274    4.506664    0.000000    1.000000
   242  Na    c    -6.785059   -2.217274    4.506664    0.000000    1.000000
   243  Na    c    11.292846    4.506664   -2.217274    0.000000    1.000000
   244  Na    c    -6.785059    4.506664   -2.217274    0.000000    1.000000
   245  Cl    c     9.056649   -4.519747   -4.519747    0.000000    1.485000
   246  Cl    c    -4.548862   -4.519747   -4.519747    0.000000    1.485000
   247  Na    c     9.013499    6.742295    6.742295    0.000000    1.000000
   248  Na    c    -4.505711    6.742295    6.742295    0.000000    1.000000
   249  Cl    c     4.484985    0.009754   -9.069028    0.000000    1.485000
   250  Cl    c     4.484985   -9.069028    0.009754    0.000000    1.485000
   251  Cl    c     0.022802    0.009754   -9.069028    0.000000    1.485000
   252  Cl    c     0.022802   -9.069028    0.009754    0.000000    1.485000
   253  Cl    c     9.038621   -0.007051    9.039527    0.000000    1.485000
   254  Cl    c     9.038621    9.039527   -0.007051    0.000000    1.485000
   255  Cl    c    -4.530834   -0.007051    9.039527    0.000000    1.485000
   256  Cl    c    -4.530834    9.039527   -0.007051    0.000000    1.485000
   257  Na    c     4.509940    2.204721   11.240918    0.000000    1.000000
   258  Na    c     4.509940   11.240918    2.204721    0.000000    1.000000
   259  Na    c    -0.002153    2.204721   11.240918    0.000000    1.000000
   260  Na    c    -0.002153   11.240918    2.204721    0.000000    1.000000
   261  Na    c     9.004669    2.287258   -6.598665    0.000000    1.000000
   262  Na    c     9.004669   -6.598665    2.287258    0.000000    1.000000
   263  Na    c    -4.496882    2.287258   -6.598665    0.000000    1.000000
   264  Na    c    -4.496882   -6.598665    2.287258    0.000000    1.000000
   265  O     c     6.764225    6.765082   -6.765659    0.000000    0.183000
   266  O     c     6.764225   -6.765659    6.765082    0.000000    0.183000
   267  O     c    -2.256438    6.765082   -6.765659    0.000000    0.183000
   268  O     c    -2.256438   -6.765659    6.765082    0.000000    0.183000
   269  O     c    11.278792    2.251761    6.751237    0.000000    0.183000
   270  O     c    11.278792    6.751237    2.251761    0.000000    0.183000
   271  O     c    -6.771005    2.251761    6.751237    0.000000    0.183000
   272  O     c    -6.771005    6.751237    2.251761    0.000000    0.183000
   273  Na    c     6.791382    6.755595    9.012681    0.000000    1.000000
   274  Na    c    -2.283595    6.755595    9.012681    0.000000    1.000000
   275  Na    c     6.791382    9.012681    6.755595    0.000000    1.000000
   276  Na    c    -2.283595    9.012681    6.755595    0.000000    1.000000
   277  Na    c     6.734787   -6.777801   -4.505878    0.000000    1.000000
   278  Na    c    -2.227000   -6.777801   -4.505878    0.000000    1.000000
   279  Na    c     6.734787   -4.505878   -6.777801    0.000000    1.000000
   280  Na    c    -2.227000   -4.505878   -6.777801    0.000000    1.000000
   281  Na    c    11.419618    2.258087   -4.502978    0.000000    1.000000
   282  Na    c    -6.911831    2.258087   -4.502978    0.000000    1.000000
   283  Na    c    11.419618   -4.502978    2.258087    0.000000    1.000000
   284  Na    c    -6.911831   -4.502978    2.258087    0.000000    1.000000
   285  Na    c    11.203069    6.802953   -0.000035    0.000000    1.000000
   286  Na    c    -6.695282    6.802953   -0.000035    0.000000    1.000000
   287  Na    c    11.203069   -0.000035    6.802953    0.000000    1.000000
   288  Na    c    -6.695282   -0.000035    6.802953    0.000000    1.000000
   289  O     c     2.253894   11.247348   -2.274090    0.000000    0.183000
   290  O     c     2.253894   -2.274090   11.247348    0.000000    0.183000
   291  Na    c     2.253894   11.359036    4.513386    0.000000    1.000000
   292  Na    c     2.253894    4.513386   11.359036    0.000000    1.000000
   293  Na    c     2.253894   -2.150569   -9.009783    0.000000    1.000000
   294  Na    c     2.253894   -9.009783   -2.150569    0.000000    1.000000
   295  Cl    c     4.518978    4.495859   -9.026687    0.000000    1.485000
   296  Cl    c     4.518978   -9.026687    4.495859    0.000000    1.485000
   297  Cl    c    -0.011191    4.495859   -9.026687    0.000000    1.485000
   298  Cl    c    -0.011191   -9.026687    4.495859    0.000000    1.485000
   299  Cl    c     9.031240    9.042230    4.518515    0.000000    1.485000
   300  Cl    c    -4.523452    9.042230    4.518515    0.000000    1.485000
   301  Cl    c     9.031240    4.518515    9.042230    0.000000    1.485000
   302  Cl    c    -4.523452    4.518515    9.042230    0.000000    1.485000
   303  Na    c     4.506735   11.242255   -2.221704    0.000000    1.000000
   304  Na    c     4.506735   -2.221704   11.242255    0.000000    1.000000
   305  Na    c     0.001053   11.242255   -2.221704    0.000000    1.000000
   306  Na    c     0.001053   -2.221704   11.242255    0.000000    1.000000
   307  Na    c     9.014237   -6.700006   -2.285201    0.000000    1.000000
   308  Na    c    -4.506449   -6.700006   -2.285201    0.000000    1.000000
   309  Na    c     9.014237   -2.285201   -6.700006    0.000000    1.000000
   310  Na    c    -4.506449   -2.285201   -6.700006    0.000000    1.000000
   311  O     c    11.272769   -2.253244    6.763738    0.000000    0.183000
   312  O     c    -6.764982   -2.253244    6.763738    0.000000    0.183000
   313  O     c    11.272769    6.763738   -2.253244    0.000000    0.183000
   314  O     c    -6.764982    6.763738   -2.253244    0.000000    0.183000
   315  O     c    -2.259857   11.268896    2.253604    0.000000    0.183000
   316  O     c     6.767645    2.253604   11.268896    0.000000    0.183000
   317  O     c     6.767645   11.268896    2.253604    0.000000    0.183000
   318  O     c    -2.259857    2.253604   11.268896    0.000000    0.183000
   319  Na    c    11.291021   -2.238798   -4.507834    0.000000    1.000000
   320  Na    c    -6.783233   -2.238798   -4.507834    0.000000    1.000000
   321  Na    c    11.291021   -4.507834   -2.238798    0.000000    1.000000
   322  Na    c    -6.783233   -4.507834   -2.238798    0.000000    1.000000
   323  Na    c    -2.270266   11.232279   -0.001483    0.000000    1.000000
   324  Na    c     6.778053   11.232279   -0.001483    0.000000    1.000000
   325  Na    c     6.778053   -0.001483   11.232279    0.000000    1.000000
   326  Na    c    -2.270266   -0.001483   11.232279    0.000000    1.000000
   327  Na    c    11.255464    4.506034    6.747193    0.000000    1.000000
   328  Na    c    -6.747677    4.506034    6.747193    0.000000    1.000000
   329  Na    c    11.255464    6.747193    4.506034    0.000000    1.000000
   330  Na    c    -6.747677    6.747193    4.506034    0.000000    1.000000
   331  Na    c    -2.330308   -8.996545    2.238864    0.000000    1.000000
   332  Na    c     6.838095    2.238864   -8.996545    0.000000    1.000000
   333  Na    c    -2.330308    2.238864   -8.996545    0.000000    1.000000
   334  Na    c     6.838095   -8.996545    2.238864    0.000000    1.000000
   335  O     c     2.253894   -6.764124   -6.764124    0.000000    0.183000
   336  Na    c     2.253894   -6.592886    9.000644    0.000000    1.000000
   337  Na    c     2.253894    9.000644   -6.592886    0.000000    1.000000
   338  Cl    c    13.627987    0.005957    0.005957    0.000000    1.485000
   339  Cl    c    -9.120200    0.005957    0.005957    0.000000    1.485000
   340  Na    c    13.502159    2.121563    2.121563    0.000000    1.000000
   341  Na    c    -8.994372    2.121563    2.121563    0.000000    1.000000
   342  Cl    c     4.529289    9.032019    9.032019    0.000000    1.485000
   343  Cl    c    -0.021502    9.032019    9.032019    0.000000    1.485000
   344  Na    c     4.505175   -6.753671   -6.753671    0.000000    1.000000
   345  Na    c     0.002612   -6.753671   -6.753671    0.000000    1.000000
   346  O     c     2.253894    6.761546   11.264851    0.000000    0.183000
   347  O     c     2.253894   11.264851    6.761546    0.000000    0.183000
   348  O     c    -2.258052   11.270638   -2.256724    0.000000    0.183000
   349  O     c     6.765839   11.270638   -2.256724    0.000000    0.183000
   350  O     c     6.765839   -2.256724   11.270638    0.000000    0.183000
   351  O     c    -2.258052   -2.256724   11.270638    0.000000    0.183000
   352  Na    c     2.253894    6.891126   -9.003545    0.000000    1.000000
   353  Na    c     2.253894   -9.003545    6.891126    0.000000    1.000000
   354  Na    c     2.253894   11.356116   -4.512468    0.000000    1.000000
   355  Na    c     2.253894   -4.512468   11.356116    0.000000    1.000000
   356  Na    c    -2.216882   11.277498    4.507421    0.000000    1.000000
   357  Na    c     6.724669   11.277498    4.507421    0.000000    1.000000
   358  Na    c     6.724669    4.507421   11.277498    0.000000    1.000000
   359  Na    c    -2.216882    4.507421   11.277498    0.000000    1.000000
   360  Na    c    -2.285990   -9.009927   -2.235215    0.000000    1.000000
   361  Na    c     6.793777   -2.235215   -9.009927    0.000000    1.000000
   362  Na    c    -2.285990   -2.235215   -9.009927    0.000000    1.000000
   363  Na    c     6.793777   -9.009927   -2.235215    0.000000    1.000000
   364  Cl    c    13.560326    0.002240    4.506530    0.000000    1.485000
   365  Cl    c    13.560326    4.506530    0.002240    0.000000    1.485000
   366  Cl    c    -9.052539    0.002240    4.506530    0.000000    1.485000
   367  Cl    c    -9.052539    4.506530    0.002240    0.000000    1.485000
   368  Na    c    13.502648    2.209094   -2.115771    0.000000    1.000000
   369  Na    c    13.502648   -2.115771    2.209094    0.000000    1.000000
   370  Na    c    -8.994860    2.209094   -2.115771    0.000000    1.000000
   371  Na    c    -8.994860   -2.115771    2.209094    0.000000    1.000000
   372  Cl    c     4.522195   -4.533219   -9.031462    0.000000    1.485000
   373  Cl    c     4.522195   -9.031462   -4.533219    0.000000    1.485000
   374  Cl    c    -0.014408   -4.533219   -9.031462    0.000000    1.485000
   375  Cl    c    -0.014408   -9.031462   -4.533219    0.000000    1.485000
   376  Cl    c     9.043030    9.038930   -4.519164    0.000000    1.485000
   377  Cl    c    -4.535243    9.038930   -4.519164    0.000000    1.485000
   378  Cl    c     9.043030   -4.519164    9.038930    0.000000    1.485000
[...]
     99 y          4.507787      4.495859    -0.011928    Cartesian   -0.26
     99 z         -9.015574     -9.026687    -0.011113    Cartesian    0.12
    100 x          9.015574      9.031240     0.015665    Cartesian    0.17
    100 y          9.015574      9.042230     0.026656    Cartesian    0.30
    100 z          4.507787      4.518515     0.010727    Cartesian    0.24
    101 x          4.507787      4.506735    -0.001053    Cartesian   -0.02
    101 y         11.269468     11.242255    -0.027213    Cartesian   -0.24
    101 z         -2.253894     -2.221704     0.032189    Cartesian   -1.43
    102 x          9.015574      9.014237    -0.001338    Cartesian   -0.01
    102 y         -6.761681     -6.700006     0.061674    Cartesian   -0.91
    102 z         -2.253894     -2.285201    -0.031308    Cartesian    1.39
    103 x         11.269468     11.272769     0.003301    Cartesian    0.03
    103 y         -2.253894     -2.253244     0.000649    Cartesian   -0.03
    103 z          6.761681      6.763738     0.002058    Cartesian    0.03
    104 x         -2.253894     -2.259857    -0.005964    Cartesian    0.26
    104 y         11.269468     11.268896    -0.000572    Cartesian   -0.01
    104 z          2.253894      2.253604    -0.000289    Cartesian   -0.01
    105 x         11.269468     11.291021     0.021553    Cartesian    0.19
    105 y         -2.253894     -2.238798     0.015095    Cartesian   -0.67
    105 z         -4.507787     -4.507834    -0.000047    Cartesian    0.00
    106 x         -2.253894     -2.270266    -0.016372    Cartesian    0.73
    106 y         11.269468     11.232279    -0.037189    Cartesian   -0.33
    106 z          0.000000     -0.001483    -0.001483    Cartesian *******
    107 x         11.269468     11.255464    -0.014004    Cartesian   -0.12
    107 y          4.507787      4.506034    -0.001753    Cartesian   -0.04
    107 z          6.761681      6.747193    -0.014487    Cartesian   -0.21
    108 x         -2.253894     -2.330308    -0.076415    Cartesian    3.39
    108 y         -9.015574     -8.996545     0.019030    Cartesian   -0.21
    108 z          2.253894      2.238864    -0.015030    Cartesian   -0.67
    109 x          2.253894      2.253894     0.000000    Cartesian    0.00
    109 y         -6.761681     -6.764124    -0.002443    Cartesian    0.04
    109 z         -6.761681     -6.764124    -0.002443    Cartesian    0.04
    110 x          2.253894      2.253894     0.000000    Cartesian    0.00
    110 y         -6.761681     -6.592886     0.168795    Cartesian   -2.50
    110 z          9.015574      9.000644    -0.014931    Cartesian   -0.17
    111 x         13.523362     13.627987     0.104626    Cartesian    0.77
    111 y          0.000000      0.005957     0.005957    Cartesian    0.00
    111 z          0.000000      0.005957     0.005957    Cartesian    0.00
    112 x         13.523362     13.502159    -0.021203    Cartesian   -0.16
    112 y          2.253894      2.121563    -0.132331    Cartesian   -5.87
    112 z          2.253894      2.121563    -0.132331    Cartesian   -5.87
    113 x          4.507787      4.529289     0.021502    Cartesian    0.48
    113 y          9.015574      9.032019     0.016445    Cartesian    0.18
    113 z          9.015574      9.032019     0.016445    Cartesian    0.18
    114 x          4.507787      4.505175    -0.002612    Cartesian   -0.06
    114 y         -6.761681     -6.753671     0.008010    Cartesian   -0.12
    114 z         -6.761681     -6.753671     0.008010    Cartesian   -0.12
    115 x          2.253894      2.253894     0.000000    Cartesian    0.00
    115 y          6.761681      6.761546    -0.000135    Cartesian   -0.00
    115 z         11.269468     11.264851    -0.004617    Cartesian   -0.04
    116 x         -2.253894     -2.258052    -0.004159    Cartesian    0.18
    116 y         11.269468     11.270638     0.001169    Cartesian    0.01
    116 z         -2.253894     -2.256724    -0.002831    Cartesian    0.13
    117 x          2.253894      2.253894     0.000000    Cartesian    0.00
    117 y          6.761681      6.891126     0.129445    Cartesian    1.91
    117 z         -9.015574     -9.003545     0.012029    Cartesian   -0.13
    118 x          2.253894      2.253894     0.000000    Cartesian    0.00
    118 y         11.269468     11.356116     0.086648    Cartesian    0.77
    118 z         -4.507787     -4.512468    -0.004681    Cartesian    0.10
    119 x         -2.253894     -2.216882     0.037012    Cartesian   -1.64
    119 y         11.269468     11.277498     0.008030    Cartesian    0.07
    119 z          4.507787      4.507421    -0.000366    Cartesian   -0.01
    120 x         -2.253894     -2.285990    -0.032097    Cartesian    1.42
    120 y         -9.015574     -9.009927     0.005647    Cartesian   -0.06
    120 z         -2.253894     -2.235215     0.018679    Cartesian   -0.83
    121 x         13.523362     13.560326     0.036965    Cartesian    0.27
    121 y          0.000000      0.002240     0.002240    Cartesian    0.00
    121 z          4.507787      4.506530    -0.001257    Cartesian   -0.03
    122 x         13.523362     13.502648    -0.020714    Cartesian   -0.15
    122 y          2.253894      2.209094    -0.044799    Cartesian   -1.99
    122 z         -2.253894     -2.115771     0.138123    Cartesian   -6.13
    123 x          4.507787      4.522195     0.014408    Cartesian    0.32
    123 y         -4.507787     -4.533219    -0.025432    Cartesian    0.56
    123 z         -9.015574     -9.031462    -0.015887    Cartesian    0.18
    124 x          9.015574      9.043030     0.027456    Cartesian    0.30
    124 y          9.015574      9.038930     0.023356    Cartesian    0.26
    124 z         -4.507787     -4.519164    -0.011377    Cartesian    0.25
    125 x          4.507787      4.506575    -0.001212    Cartesian   -0.03
    125 y          6.761681      6.776162     0.014481    Cartesian    0.21
    125 z         11.269468     11.217531    -0.051937    Cartesian   -0.46
    126 x          9.015574      9.013101    -0.002474    Cartesian   -0.03
    126 y         -6.761681     -6.744289     0.017392    Cartesian   -0.26
    126 z          6.761681      6.747588    -0.014093    Cartesian   -0.21
    127 x          2.253894      2.253894     0.000000    Cartesian    0.00
    127 y          2.253894      2.275454     0.021561    Cartesian    0.96
    127 z          2.253894      2.275454     0.021561    Cartesian    0.96
    128 x          4.507787      4.732709     0.224922    Cartesian    4.99
    128 y          0.000000     -0.044073    -0.044073    Cartesian    0.00
    128 z          0.000000     -0.044073    -0.044073    Cartesian    0.00
    129 x          2.253894      2.253894     0.000000    Cartesian    0.00
    129 y          2.253894      2.224648    -0.029246    Cartesian   -1.30
    129 z         -2.253894     -2.258038    -0.004144    Cartesian    0.18
    130 x          4.507787      4.651612     0.143825    Cartesian    3.19
    130 y          0.000000     -0.010591    -0.010591    Cartesian    0.00
    130 z          4.507787      4.647830     0.140042    Cartesian    3.11
    131 x         -2.253894     -2.263521    -0.009627    Cartesian    0.43
    131 y          2.253894      2.267618     0.013724    Cartesian    0.61
    131 z          2.253894      2.267618     0.013724    Cartesian    0.61
    132 x          2.253894      2.253894     0.000000    Cartesian    0.00
    132 y         -2.253894     -2.240788     0.013105    Cartesian   -0.58
    132 z         -2.253894     -2.240788     0.013105    Cartesian   -0.58
    133 x          4.507787      4.627827     0.120040    Cartesian    2.66
    133 y          4.507787      4.597850     0.090063    Cartesian    2.00
    133 z          4.507787      4.597850     0.090063    Cartesian    2.00
    134 x          2.253894      2.253894     0.000000    Cartesian    0.00
    134 y          2.253894      2.214428    -0.039466    Cartesian   -1.75
    134 z          6.761681      6.771245     0.009564    Cartesian    0.14
    135 x         -2.253894     -2.225494     0.028400    Cartesian   -1.26
    135 y          2.253894      2.262668     0.008774    Cartesian    0.39
    135 z         -2.253894     -2.238751     0.015143    Cartesian   -0.67
    136 x          4.507787      4.524215     0.016428    Cartesian    0.36
    136 y          0.000000     -0.119016    -0.119016    Cartesian    0.00
    136 z         -4.507787     -4.580946    -0.073159    Cartesian    1.62
    137 x          2.253894      2.253894     0.000000    Cartesian    0.00
    137 y          6.761681      6.708580    -0.053101    Cartesian   -0.79
    137 z         -2.253894     -2.229057     0.024836    Cartesian   -1.10
    138 x          6.761681      6.756437    -0.005244    Cartesian   -0.08
    138 y         -2.253894     -2.262519    -0.008625    Cartesian    0.38
    138 z         -2.253894     -2.262519    -0.008625    Cartesian    0.38
    139 x          4.507787      4.578338     0.070550    Cartesian    1.57
    139 y          4.507787      4.582249     0.074461    Cartesian    1.65
    139 z         -4.507787     -4.617422    -0.109635    Cartesian    2.43
    140 x          9.015574      9.029574     0.014000    Cartesian    0.16
    140 y          0.000000     -0.010995    -0.010995    Cartesian    0.00
    140 z          0.000000     -0.010995    -0.010995    Cartesian    0.00
    141 x         -2.253894     -2.260233    -0.006339    Cartesian    0.28
    141 y          2.253894      2.257010     0.003116    Cartesian    0.14
    141 z          6.761681      6.767184     0.005503    Cartesian    0.08
    142 x          9.015574      9.044082     0.028507    Cartesian    0.32
    142 y          0.000000      0.016090     0.016090    Cartesian    0.00
    142 z          4.507787      4.514863     0.007076    Cartesian    0.16
    143 x          2.253894      2.253894     0.000000    Cartesian    0.00
    143 y          6.761681      6.720738    -0.040943    Cartesian   -0.61
    143 z          6.761681      6.720738    -0.040943    Cartesian   -0.61
    144 x         -2.253894     -2.261145    -0.007252    Cartesian    0.32
    144 y         -2.253894     -2.264240    -0.010347    Cartesian    0.46
    144 z          6.761681      6.764272     0.002592    Cartesian    0.04
    145 x          2.253894      2.253894     0.000000    Cartesian    0.00
    145 y          2.253894      2.266694     0.012800    Cartesian    0.57
    145 z         -6.761681     -6.758644     0.003037    Cartesian   -0.04
    146 x          4.507787      4.484957    -0.022830    Cartesian   -0.51
    146 y         -4.507787     -4.521100    -0.013313    Cartesian    0.30
    146 z         -4.507787     -4.521100    -0.013313    Cartesian    0.30
    147 x          4.507787      4.523437     0.015650    Cartesian    0.35
    147 y          0.000000     -0.005503    -0.005503    Cartesian    0.00
    147 z          9.015574      9.038024     0.022449    Cartesian    0.25
    148 x          9.015574      9.063895     0.048321    Cartesian    0.54
    148 y          4.507787      4.549906     0.042119    Cartesian    0.93
    148 z          4.507787      4.549906     0.042119    Cartesian    0.93
    149 x          2.253894      2.253894     0.000000    Cartesian    0.00
    149 y         -2.253894     -2.242355     0.011538    Cartesian   -0.51
    149 z         -6.761681     -6.761281     0.000400    Cartesian   -0.01
    150 x          4.507787      4.494687    -0.013100    Cartesian   -0.29
    150 y          4.507787      4.505896    -0.001891    Cartesian   -0.04
    150 z          9.015574      9.050991     0.035417    Cartesian    0.39
    151 x          9.015574      9.061018     0.045444    Cartesian    0.50
    151 y          0.000000     -0.014921    -0.014921    Cartesian    0.00
    151 z         -4.507787     -4.506210     0.001577    Cartesian   -0.03
    152 x          6.761681      6.764448     0.002768    Cartesian    0.04
    152 y          6.761681      6.766482     0.004801    Cartesian    0.07
    152 z          6.761681      6.766482     0.004801    Cartesian    0.07
    153 x          6.761681      6.741198    -0.020483    Cartesian   -0.30
    153 y         -6.761681     -6.730030     0.031651    Cartesian   -0.47
    153 z          2.253894      2.247610    -0.006284    Cartesian   -0.28
    154 x         11.269468     11.238332    -0.031136    Cartesian   -0.28
    154 y          2.253894      2.250316    -0.003578    Cartesian   -0.16
    154 z          2.253894      2.250316    -0.003578    Cartesian   -0.16
    155 x          9.015574      9.079137     0.063563    Cartesian    0.71
    155 y          4.507787      4.541250     0.033463    Cartesian    0.74
    155 z         -4.507787     -4.514988    -0.007201    Cartesian    0.16
    156 x          2.253894      2.253894     0.000000    Cartesian    0.00
    156 y          6.761681      6.743322    -0.018359    Cartesian   -0.27
    156 z         -6.761681     -6.748304     0.013377    Cartesian   -0.20
    157 x         11.269468     11.237005    -0.032463    Cartesian   -0.29
    157 y         -2.253894     -2.258266    -0.004372    Cartesian    0.19
    157 z          2.253894      2.252038    -0.001856    Cartesian   -0.08
    158 x         -2.253894     -2.253680     0.000213    Cartesian   -0.01
    158 y         -2.253894     -2.253767     0.000126    Cartesian   -0.01
    158 z         -6.761681     -6.761034     0.000647    Cartesian   -0.01
    159 x          4.507787      4.514301     0.006514    Cartesian    0.14
    159 y          9.015574      9.069332     0.053758    Cartesian    0.60
    159 z         -4.507787     -4.512461    -0.004674    Cartesian    0.10
    160 x          2.253894      2.253894     0.000000    Cartesian    0.00
    160 y         11.269468     11.260925    -0.008543    Cartesian   -0.08
    160 z          2.253894      2.262799     0.008905    Cartesian    0.40
    161 x         11.269468     11.262511    -0.006957    Cartesian   -0.06
    161 y         -2.253894     -2.258279    -0.004386    Cartesian    0.19
    161 z         -2.253894     -2.258279    -0.004386    Cartesian    0.19
    162 x          9.015574      9.062436     0.046861    Cartesian    0.52
    162 y         -4.507787     -4.518738    -0.010951    Cartesian    0.24
    162 z         -4.507787     -4.518738    -0.010951    Cartesian    0.24
    163 x          4.507787      4.478682    -0.029105    Cartesian   -0.65
    163 y          0.000000      0.011755     0.011755    Cartesian    0.00
    163 z         -9.015574     -9.073798    -0.058224    Cartesian    0.65
    164 x          9.015574      9.040599     0.025024    Cartesian    0.28
    164 y          0.000000     -0.007454    -0.007454    Cartesian    0.00
    164 z          9.015574      9.041913     0.026338    Cartesian    0.29
    165 x          6.761681      6.764225     0.002544    Cartesian    0.04
    165 y          6.761681      6.765080     0.003399    Cartesian    0.05
    165 z         -6.761681     -6.765653    -0.003972    Cartesian    0.06
    166 x         11.269468     11.278825     0.009357    Cartesian    0.08
    166 y          2.253894      2.251761    -0.002133    Cartesian   -0.09
    166 z          6.761681      6.751220    -0.010460    Cartesian   -0.15
    167 x          2.253894      2.253894     0.000000    Cartesian    0.00
    167 y         11.269468     11.247364    -0.022104    Cartesian   -0.20
    167 z         -2.253894     -2.274148    -0.020254    Cartesian    0.90
    168 x          4.507787      4.517781     0.009994    Cartesian    0.22
    168 y          4.507787      4.494402    -0.013385    Cartesian   -0.30
    168 z         -9.015574     -9.022597    -0.007023    Cartesian    0.08
    169 x          9.015574      9.031826     0.016252    Cartesian    0.18
    169 y          9.015574      9.045594     0.030020    Cartesian    0.33
    169 z          4.507787      4.519045     0.011258    Cartesian    0.25
    170 x         11.269468     11.272768     0.003300    Cartesian    0.03
    170 y         -2.253894     -2.253249     0.000644    Cartesian   -0.03
    170 z          6.761681      6.763746     0.002066    Cartesian    0.03
    171 x         -2.253894     -2.259877    -0.005983    Cartesian    0.27
    171 y         11.269468     11.268892    -0.000576    Cartesian   -0.01
    171 z          2.253894      2.253608    -0.000286    Cartesian   -0.01
    172 x          2.253894      2.253894     0.000000    Cartesian    0.00
    172 y         -6.761681     -6.764142    -0.002462    Cartesian    0.04
    172 z         -6.761681     -6.764142    -0.002462    Cartesian    0.04
    173 x         13.523362     13.642119     0.118758    Cartesian    0.88
    173 y          0.000000      0.010423     0.010423    Cartesian    0.00
    173 z          0.000000      0.010423     0.010423    Cartesian    0.00
    174 x          4.507787      4.532287     0.024500    Cartesian    0.54
    174 y          9.015574      9.034810     0.019235    Cartesian    0.21
    174 z          9.015574      9.034810     0.019235    Cartesian    0.21
    175 x          2.253894      2.253894     0.000000    Cartesian    0.00
    175 y          6.761681      6.761532    -0.000149    Cartesian   -0.00
    175 z         11.269468     11.264878    -0.004590    Cartesian   -0.04
    176 x         -2.253894     -2.258063    -0.004170    Cartesian    0.19
    176 y         11.269468     11.270633     0.001165    Cartesian    0.01
    176 z         -2.253894     -2.256731    -0.002838    Cartesian    0.13
    177 x         13.523362     13.563000     0.039638    Cartesian    0.29
    177 y          0.000000      0.003705     0.003705    Cartesian    0.00
    177 z          4.507787      4.506196    -0.001591    Cartesian   -0.04
    178 x          4.507787      4.523781     0.015994    Cartesian    0.35
    178 y         -4.507787     -4.537209    -0.029422    Cartesian    0.65
    178 z         -9.015574     -9.032091    -0.016517    Cartesian    0.18
    179 x          9.015574      9.045752     0.030177    Cartesian    0.33
    179 y          9.015574      9.041261     0.025687    Cartesian    0.28
    179 z         -4.507787     -4.519447    -0.011660    Cartesian    0.26
--------------------------------------------------------------------------------


  Time to end of optimisation  =       82.0141 seconds


  Peak dynamic memory used =      69.68 MB 


  Timing analysis for GULP :

--------------------------------------------------------------------------------
  Task / Subroutine                                          Time (Seconds)
--------------------------------------------------------------------------------
  Calculation of reciprocal space energy and derivatives          0.0008
  Calculation of reciprocal space energy using symmetry           0.0011
  Calculation of real space energy and derivatives                0.0043
  Calculation of real space energy using symmetry                 0.0103
  Calculation for region 1 energy and derivatives (2-b)          46.1046
  Calculation for region 2a energy                               27.7888
  Calculation for region 2b energy                                0.0231
  Calculation and manipulation of Hessian matrix                  7.2363
  Calculation of matrix inversion                                 0.6117
  Symmetry generation of equivalent positions                     0.0054
--------------------------------------------------------------------------------
  Total CPU time                                                 82.0142
--------------------------------------------------------------------------------


  Dump file written as Na3OCl.grs


  Job Finished at 16:32.47 26th November   2020                               

