********************************************************************************
*                       GENERAL UTILITY LATTICE PROGRAM                        *
*                                 Julian Gale                                  *
*                       Curtin Institute for Computation                       *
*                    School of Molecular and Life Sciences                     *
*                    Curtin University, Western Australia                      *
********************************************************************************
* Version = 5.2.0 * Last modified =  10th September 2020                       *
********************************************************************************
*  optimise     - perform optimisation run                                     *
*  conp         - constant pressure calculation                                *
*  property     - calculate properties for final geometry                      *
*  defect       - perform defect calculation after bulk run                    *
*  compare      - compare initial and final structures                         *
********************************************************************************

  Job Started  at 16:34.14 26th November   2020                               

  Number of CPUs =     1


  Total number of configurations input =      1

********************************************************************************
*  Input for Configuration =   1                                               *
********************************************************************************

  Formula = ClONa3                                                      

  Number of irreducible atoms/shells =       5


  Total number atoms/shells =       7

  Dimensionality = 3               :  Bulk   


  Symmetry :

  Crystal family                   :  Cubic       
  Crystal class  (Groth - 1921)    :  Cubic Hexakisoctahedral              

  Space group (centrosymmetric)    :  P M 3 M         

  Patterson group                  :  P m -3 m 

  Cartesian lattice vectors (Angstroms) :

        4.504000    0.000000    0.000000
        0.000000    4.504000    0.000000
        0.000000    0.000000    4.504000

  Cell parameters (Angstroms/Degrees):

  a =       4.5040    alpha =  90.0000
  b =       4.5040    beta  =  90.0000
  c =       4.5040    gamma =  90.0000

  Initial cell volume =          91.368216 Angs**3

  Temperature of configuration =   0.00     K 

  Pressure of configuration =         0.000 GPa 

  Fractional coordinates of asymmetric unit :

--------------------------------------------------------------------------------
   No.  Atomic       x           y          z         Charge      Occupancy
        Label      (Frac)      (Frac)     (Frac)        (e)         (Frac)  
--------------------------------------------------------------------------------
      1 Cl    c    0.000000    0.000000    0.000000     1.48500    1.000000    
      2 O     c    0.500000    0.500000    0.500000     0.18300    1.000000    
      3 Na    c    0.500000    0.500000    0.000000     1.00000    1.000000    
      4 Cl    s    0.000000    0.000000    0.000000    -2.48500    1.000000    
      5 O     s    0.500000    0.500000    0.500000    -2.18300    1.000000    
--------------------------------------------------------------------------------


  Constraints : 

--------------------------------------------------------------------------------
  Constraint no.      Unconstrained     Constrained    Coefficient    Offset
                         Variable         Variable
--------------------------------------------------------------------------------
           1              Strain 1        Strain 2       1.00000      0.0000
           2              Strain 1        Strain 3       1.00000      0.0000
--------------------------------------------------------------------------------


********************************************************************************
*  General input information                                                   *
********************************************************************************

  Species output for all configurations : 

--------------------------------------------------------------------------------
  Species    Type    Atomic    Atomic    Charge       Radii (Angs)     Library
                     Number     Mass       (e)     Cova   Ionic  VDW   Symbol
--------------------------------------------------------------------------------
    Na       Core       11      22.99   1.000000   0.970  0.000  2.300          
    O        Core        8      16.00   0.183000   0.730  0.000  1.360          
    O        Shell       8       0.00  -2.183000   0.730  0.000  1.360          
    Cl       Core       17      35.45   1.485000   0.990  0.000  1.650          
    Cl       Shell      17       0.00  -2.485000   0.990  0.000  1.650          
--------------------------------------------------------------------------------


  Lattice summation method               =    Ewald          (3-D)
                                         =    Parry          (2-D)
                                         =    Saunders et al (1-D)
  Accuracy factor for lattice sums       =   12.000


  Analytic derivatives to be used

  Time limit = Infinity

  Maximum range for interatomic potentials =    100000.000000 Angstroms

  General interatomic potentials :

--------------------------------------------------------------------------------
Atom  Types   Potential      Parameter       Value         Units   Cutoffs(Ang)
  1     2                                                            Min /  Max 
--------------------------------------------------------------------------------
O    c O    s Spring (c-s)  Spring k 2       593.72000    eV*Ang^-2 0.000  0.800
                            Spring k 4       0.0000000    eV*Ang^-4 
--------------------------------------------------------------------------------
Cl   c Cl   s Spring (c-s)  Spring k 2       29.380000    eV*Ang^-2 0.000  0.800
                            Spring k 4       0.0000000    eV*Ang^-4 
--------------------------------------------------------------------------------
Na   c Na   c Buckingham    Buckingham A     1788.1900    eV        0.000 12.000
                            Buckingham rho  0.15900000    Ang       
                            Buckingham C     0.0000000    eV*Ang^6  
--------------------------------------------------------------------------------
Na   c O    s Buckingham    Buckingham A     1226.8400    eV        0.000 12.000
                            Buckingham rho  0.30700000    Ang       
                            Buckingham C     0.0000000    eV*Ang^6  
--------------------------------------------------------------------------------
Na   c Cl   s Buckingham    Buckingham A     2314.7000    eV        0.000 12.000
                            Buckingham rho  0.29000000    Ang       
                            Buckingham C     0.0000000    eV*Ang^6  
--------------------------------------------------------------------------------
O    s O    s Buckingham    Buckingham A     22764.300    eV        0.000 12.000
                            Buckingham rho  0.14900000    Ang       
                            Buckingham C     13.190000    eV*Ang^6  
--------------------------------------------------------------------------------
O    s Cl   s Buckingham    Buckingham A     8286.9100    eV        0.000 12.000
                            Buckingham rho  0.25900000    Ang       
                            Buckingham C     62.200000    eV*Ang^6  
--------------------------------------------------------------------------------
Cl   s Cl   s Buckingham    Buckingham A     1227.2000    eV        0.000 12.000
                            Buckingham rho  0.32100000    Ang       
                            Buckingham C     14.530000    eV*Ang^6  
--------------------------------------------------------------------------------

********************************************************************************
*  Output for configuration   1                                                *
********************************************************************************


  Components of energy : 

--------------------------------------------------------------------------------
  Interatomic potentials     =           5.13022605 eV    
  Monopole - monopole (real) =         -10.03624526 eV    
  Monopole - monopole (recip)=         -29.53581274 eV    
  Monopole - monopole (total)=         -39.57205800 eV    
--------------------------------------------------------------------------------
  Total lattice energy       =         -34.44183194 eV    
--------------------------------------------------------------------------------
  Total lattice energy       =           -3323.1103 kJ/(mole unit cells)
--------------------------------------------------------------------------------


  Number of variables =        1

  Maximum number of calculations  =          1000
  Maximum Hessian update interval =            10
  Maximum step size               =   1.000000000
  Maximum parameter tolerance     =   0.000010000
  Maximum function  tolerance     =   0.000010000
  Maximum gradient  tolerance     =   0.001000000
  Maximum gradient  component     =   0.010000000

  Symmetry constrained optimisation

  Symmetry used for second derivatives

  Cell parameters to be optimised using strains

  Newton-Raphson optimiser to be used

  BFGS hessian update to be used

  Lower half triangular hessian to be used

  Start of bulk optimisation :

  Cycle:      0 Energy:       -34.441832  Gnorm:      0.196570  CPU:    0.016
  ** Hessian calculated **
  Cycle:      1 Energy:       -34.441914  Gnorm:      0.000103  CPU:    0.020


  **** Optimisation achieved ****


  Final energy =     -34.44191447 eV
  Final Gnorm  =       0.00000000

  Components of energy : 

--------------------------------------------------------------------------------
  Interatomic potentials     =           5.09689708 eV    
  Monopole - monopole (real) =         -10.02781331 eV    
  Monopole - monopole (recip)=         -29.51099824 eV    
  Monopole - monopole (total)=         -39.53881155 eV    
--------------------------------------------------------------------------------
  Total lattice energy       =         -34.44191447 eV    
--------------------------------------------------------------------------------
  Total lattice energy       =           -3323.1183 kJ/(mole unit cells)
--------------------------------------------------------------------------------

  Final asymmetric unit coordinates :

--------------------------------------------------------------------------------
   No.  Atomic        x           y           z         Radius
        Label       (Frac)      (Frac)      (Frac)       (Angs) 
--------------------------------------------------------------------------------
     1  Cl    c     0.000000    0.000000    0.000000    0.000000
     2  O     c     0.500000    0.500000    0.500000    0.000000
     3  Na    c     0.500000    0.500000    0.000000    0.000000
     4  Cl    s     0.000000    0.000000    0.000000    0.000000
     5  O     s     0.500000    0.500000    0.500000    0.000000
--------------------------------------------------------------------------------

  Final Cartesian lattice vectors (Angstroms) :

        4.507787    0.000000    0.000000
        0.000000    4.507787    0.000000
        0.000000    0.000000    4.507787


  Final cell parameters and derivatives :

--------------------------------------------------------------------------------
       a            4.507787 Angstrom     dE/de1(xx)     0.000000 eV/strain
       b            4.507787 Angstrom     dE/de2(yy)     0.000000 eV/strain
       c            4.507787 Angstrom     dE/de3(zz)     0.000000 eV/strain
       alpha       90.000000 Degrees      dE/de4(yz)     0.000000 eV/strain
       beta        90.000000 Degrees      dE/de5(xz)     0.000000 eV/strain
       gamma       90.000000 Degrees      dE/de6(xy)     0.000000 eV/strain
--------------------------------------------------------------------------------

  Primitive cell volume =            91.598892 Angs**3

  Density of cell =      2.183054 g/cm**3

  Non-primitive cell volume =            91.598892 Angs**3


  Final internal derivatives :

--------------------------------------------------------------------------------
   No.  Atomic          a             b             c           Radius
        Label          (eV)          (eV)          (eV)        (eV/Angs)
--------------------------------------------------------------------------------
      1 Cl    c       0.000000      0.000000      0.000000      0.000000
      2 O     c       0.000000      0.000000      0.000000      0.000000
      3 Na    c       0.000000      0.000000      0.000000      0.000000
      4 Cl    s       0.000000      0.000000      0.000000      0.000000
      5 O     s       0.000000      0.000000      0.000000      0.000000
--------------------------------------------------------------------------------
  Maximum abs         0.000000      0.000000      0.000000      0.000000
--------------------------------------------------------------------------------

  Comparison of initial and final structures : 

--------------------------------------------------------------------------------
  Parameter   Initial value   Final value   Difference    Units      Percent
--------------------------------------------------------------------------------
    Volume        91.368216     91.598892     0.230676    Angs**3      0.25
    a              4.504000      4.507787     0.003787    Angstroms    0.08
    b              4.504000      4.507787     0.003787    Angstroms    0.08
    c              4.504000      4.507787     0.003787    Angstroms    0.08
    alpha         90.000000     90.000000     0.000000    Degrees      0.00
    beta          90.000000     90.000000     0.000000    Degrees      0.00
    gamma         90.000000     90.000000     0.000000    Degrees      0.00
      1 x          0.000000      0.000000     0.000000    Fractional   0.00
      1 y          0.000000      0.000000     0.000000    Fractional   0.00
      1 z          0.000000      0.000000     0.000000    Fractional   0.00
      2 x          0.500000      0.500000     0.000000    Fractional   0.00
      2 y          0.500000      0.500000     0.000000    Fractional   0.00
      2 z          0.500000      0.500000     0.000000    Fractional   0.00
      3 x          0.500000      0.500000     0.000000    Fractional   0.00
      3 y          0.500000      0.500000     0.000000    Fractional   0.00
      3 z          0.000000      0.000000     0.000000    Fractional   0.00
      4 x          0.000000      0.000000     0.000000    Fractional   0.00
      4 y          0.000000      0.000000     0.000000    Fractional   0.00
      4 z          0.000000      0.000000     0.000000    Fractional   0.00
      5 x          0.500000      0.500000     0.000000    Fractional   0.00
      5 y          0.500000      0.500000     0.000000    Fractional   0.00
      5 z          0.500000      0.500000     0.000000    Fractional   0.00
--------------------------------------------------------------------------------


  Born effective charge tensors : 

-------------------------------------------------------------------------------
  Atom             x           y             z
-------------------------------------------------------------------------------
    1 Cl    x      -1.0181     -0.0000      0.0000
            y      -0.0000     -1.0181      0.0000
            z       0.0000      0.0000     -1.0181
-------------------------------------------------------------------------------
    2 O     x      -2.2647      0.0000     -0.0000
            y       0.0000     -2.2647     -0.0000
            z      -0.0000     -0.0000     -2.2647
-------------------------------------------------------------------------------
    3 Na    x       1.2258     -0.0000      0.0000
            y      -0.0000      1.2258     -0.0000
            z       0.0000     -0.0000      0.8313
-------------------------------------------------------------------------------




  Elastic Constant Matrix: (Units=GPa)

-------------------------------------------------------------------------------
  Indices      1         2         3         4         5         6    
-------------------------------------------------------------------------------
       1     95.8177   20.0737   20.0737   -0.0000   -0.0000    0.0000
       2     20.0737   95.8177   20.0737   -0.0000   -0.0000    0.0000
       3     20.0737   20.0737   95.8177   -0.0000   -0.0000    0.0000
       4     -0.0000   -0.0000   -0.0000   20.0737   -0.0000    0.0000
       5     -0.0000   -0.0000   -0.0000   -0.0000   20.0737    0.0000
       6      0.0000    0.0000    0.0000    0.0000    0.0000   20.0737
-------------------------------------------------------------------------------


  Elastic Compliance Matrix: (Units=1/GPa)

-------------------------------------------------------------------------------
  Indices      1         2         3         4         5         6    
-------------------------------------------------------------------------------
       1    0.011253 -0.001949 -0.001949  0.000000  0.000000 -0.000000
       2   -0.001949  0.011253 -0.001949  0.000000  0.000000  0.000000
       3   -0.001949 -0.001949  0.011253  0.000000  0.000000 -0.000000
       4    0.000000  0.000000  0.000000  0.049816  0.000000 -0.000000
       5    0.000000  0.000000  0.000000  0.000000  0.049816 -0.000000
       6   -0.000000  0.000000 -0.000000 -0.000000 -0.000000  0.049816
-------------------------------------------------------------------------------

  Mechanical properties :

-------------------------------------------------------------------------------
  Convention :                    Reuss         Voigt         Hill
-------------------------------------------------------------------------------
  Bulk  Modulus (GPa)     =      45.32174      45.32174      45.32174
  Shear Modulus (GPa)     =      24.72085      27.19304      25.95695
-------------------------------------------------------------------------------
  Velocity S-wave (km/s)  =       3.36511       3.52937       3.44822
  Velocity P-wave (km/s)  =       5.98827       6.11304       6.05098
-------------------------------------------------------------------------------
  Compressibility (1/GPa) =    0.02206447
-------------------------------------------------------------------------------
  Stress axis :                     x             y             z
-------------------------------------------------------------------------------
  Youngs Moduli (GPa)     =      88.86373      88.86373      88.86373
-------------------------------------------------------------------------------
  Poissons Ratio (x)      =                     0.17321       0.17321
  Poissons Ratio (y)      =       0.17321                     0.17321
  Poissons Ratio (z)      =       0.17321       0.17321
-------------------------------------------------------------------------------


  Piezoelectric Strain Matrix: (Units=C/m**2)

-------------------------------------------------------------------------------
  Indices      1         2         3         4         5         6    
-------------------------------------------------------------------------------
       x    -0.00000  -0.00000  -0.00000   0.00000  -0.00000  -0.00000
       y    -0.00000  -0.00000   0.00000  -0.00000   0.00000   0.00000
       z    -0.00000  -0.00000  -0.00000  -0.00000   0.00000   0.00000
-------------------------------------------------------------------------------


  Piezoelectric Stress Matrix: (Units=10**-11 C/N)

-------------------------------------------------------------------------------
  Indices      1         2         3         4         5         6    
-------------------------------------------------------------------------------
       x    -0.00000   0.00000   0.00000   0.00000  -0.00000  -0.00000
       y    -0.00000  -0.00000   0.00000  -0.00000   0.00000   0.00000
       z     0.00000   0.00000  -0.00000  -0.00000   0.00000   0.00000
-------------------------------------------------------------------------------


  Static dielectric constant tensor : 

-------------------------------------------------------------------------------
              x         y         z
-------------------------------------------------------------------------------
       x    22.84729   0.00000   0.00000
       y     0.00000  22.84729  -0.00000
       z     0.00000  -0.00000  22.84729
--------------------------------------------------------------------------------

  High frequency dielectric constant tensor : 

-------------------------------------------------------------------------------
              x         y         z
-------------------------------------------------------------------------------
       x     1.47557   0.00000  -0.00000
       y     0.00000   1.47557  -0.00000
       z    -0.00000  -0.00000   1.47557
-------------------------------------------------------------------------------

  Static refractive indices : 

-------------------------------------------------------------------------------
    1 =    4.77988      2 =    4.77988      3 =    4.77988
-------------------------------------------------------------------------------

  High frequency refractive indices : 

-------------------------------------------------------------------------------
    1 =    1.21473      2 =    1.21473      3 =    1.21473
-------------------------------------------------------------------------------


  Time to end of optimisation =       0.0295 seconds

********************************************************************************
*  Defect calculation for configuration   1 :                                  *
********************************************************************************

  Total number of defects =      3

  Total charge on defect  =  -1.00

  Defect centre is at   0.5000   0.3200   0.1800  Frac

  Region 1 radius =  12.0000      Number of ions =    547

  Number of symmetry inequivalent region 1 ions  =    316

  Region 2 radius =  16.0000      Number of ions =    774

  Number of symmetry inequivalent region 2a ions =    423

  Region 2a mode = 4 : screened electrostatics due to region 1 
                       neglect correction to region 1 forces from 2a
                       region 2a displacements based on defects only

  Region 2a ions will only interact with defects in region 1

  Vacancies:

--------------------------------------------------------------------------------
    Specification type     Symbol/Number         x          y          z
--------------------------------------------------------------------------------
    Fractional                               0.500000   0.500000   0.000000
    Fractional                               0.500000   0.000000   0.500000
--------------------------------------------------------------------------------

  Interstitials:

--------------------------------------------------------------------------------
    Specification type     Symbol/Number         x          y          z
--------------------------------------------------------------------------------
    Atom/Fractional         Na               0.500000   0.320000   0.180000
--------------------------------------------------------------------------------


  Symmetry reduced region 1 (Relative to defect centre) :

--------------------------------------------------------------------------------
   No.   Atomic       x            y             z       Radius  Multiplicity   
         Label      (Angs)       (Angs)        (Angs)    (Angs)     
--------------------------------------------------------------------------------
     1  Na    c      0.0000       0.0000 *     0.0000 *  0.0000     1    Defect
     2  O     c      0.0000       0.8114 *     1.4425 *  0.0000     1          
     3  Na    c      2.2539 *     0.8114 *     1.4425 *  0.0000     2          
     4  Cl    c      2.2539 *    -1.4425 *    -0.8114 *  0.0000     2          
     5  O     c      0.0000       0.8114 *    -3.0653 *  0.0000     1          
     6  Na    c      0.0000       3.0653 *     1.4425 *  0.0000     1          
     7  Na    c      0.0000      -1.4425 *    -3.0653 *  0.0000     1          
     8  Na    c      0.0000       0.8114 *     3.6964 *  0.0000     1          
     9  Na    c      0.0000      -3.6964 *    -0.8114 *  0.0000     1          
    10  Cl    c      2.2539 *     3.0653 *    -0.8114 *  0.0000     2          
    11  Na    c      2.2539 *     0.8114 *    -3.0653 *  0.0000     2          
    12  O     c      0.0000      -3.6964 *     1.4425 *  0.0000     1          
    13  Na    c      0.0000       3.0653 *    -3.0653 *  0.0000     1          
    14  Cl    c      2.2539 *    -1.4425 *     3.6964 *  0.0000     2          
    15  Na    c      2.2539 *    -3.6964 *     1.4425 *  0.0000     2          
    16  Na    c     -4.5078 *     0.8114 *    -0.8114 *  0.0000     2          
    17  O     c      0.0000      -3.6964 *    -3.0653 *  0.0000     1          
    18  O     c     -4.5078 *     0.8114 *     1.4425 *  0.0000     2          
    19  Na    c     -4.5078 *    -1.4425 *     1.4425 *  0.0000     2          
    20  Na    c      0.0000      -3.6964 *     3.6964 *  0.0000     1          
    21  Cl    c      2.2539 *     3.0653 *     3.6964 *  0.0000     2          
    22  Na    c      2.2539 *    -3.6964 *    -3.0653 *  0.0000     2          
    23  Na    c      0.0000       0.8114 *    -5.3192 *  0.0000     1          
    24  Na    c      0.0000       5.3192 *    -0.8114 *  0.0000     1          
    25  O     c      0.0000       5.3192 *     1.4425 *  0.0000     1          
    26  O     c     -4.5078 *     0.8114 *    -3.0653 *  0.0000     2          
    27  Na    c     -4.5078 *     3.0653 *     1.4425 *  0.0000     2          
    28  Na    c     -4.5078 *    -1.4425 *    -3.0653 *  0.0000     2          
    29  Na    c     -4.5078 *     0.8114 *     3.6964 *  0.0000     2          
    30  Na    c     -4.5078 *    -3.6964 *    -0.8114 *  0.0000     2          
    31  Cl    c      2.2539 *    -1.4425 *    -5.3192 *  0.0000     2          
    32  Na    c      2.2539 *     5.3192 *     1.4425 *  0.0000     2          
    33  O     c     -4.5078 *    -3.6964 *     1.4425 *  0.0000     2          
    34  O     c      0.0000       0.8114 *     5.9503 *  0.0000     1          
    35  Na    c      0.0000      -1.4425 *     5.9503 *  0.0000     1          
    36  Na    c      0.0000      -5.9503 *     1.4425 *  0.0000     1          
    37  O     c      0.0000       5.3192 *    -3.0653 *  0.0000     1          
    38  Na    c     -4.5078 *     3.0653 *    -3.0653 *  0.0000     2          
    39  Cl    c      2.2539 *    -5.9503 *    -0.8114 *  0.0000     2          
    40  Na    c      2.2539 *     0.8114 *     5.9503 *  0.0000     2          
    41  Na    c      0.0000       5.3192 *     3.6964 *  0.0000     1          
    42  Na    c      0.0000      -3.6964 *    -5.3192 *  0.0000     1          
    43  Cl    c      2.2539 *     3.0653 *    -5.3192 *  0.0000     2          
    44  Na    c      2.2539 *     5.3192 *    -3.0653 *  0.0000     2          
    45  O     c     -4.5078 *    -3.6964 *    -3.0653 *  0.0000     2          
    46  Na    c      0.0000       3.0653 *     5.9503 *  0.0000     1          
    47  Na    c      0.0000      -5.9503 *    -3.0653 *  0.0000     1          
    48  Na    c      4.5078 *    -3.6964 *     3.6964 *  0.0000     2          
    49  Cl    c      6.7617 *    -1.4425 *    -0.8114 *  0.0000     2          
    50  Na    c      6.7617 *     0.8114 *     1.4425 *  0.0000     2          
    51  O     c      0.0000      -3.6964 *     5.9503 *  0.0000     1          
    52  Na    c     -4.5078 *     0.8114 *    -5.3192 *  0.0000     2          
    53  Na    c     -4.5078 *     5.3192 *    -0.8114 *  0.0000     2          
    54  O     c     -4.5078 *     5.3192 *     1.4425 *  0.0000     2          
    55  Cl    c      2.2539 *    -5.9503 *     3.6964 *  0.0000     2          
    56  Na    c      2.2539 *    -3.6964 *     5.9503 *  0.0000     2          
    57  Cl    c      6.7617 *     3.0653 *    -0.8114 *  0.0000     2          
    58  Na    c      6.7617 *     0.8114 *    -3.0653 *  0.0000     2          
    59  O     c     -4.5078 *     0.8114 *     5.9503 *  0.0000     2          
    60  Na    c      0.0000       5.3192 *    -5.3192 *  0.0000     1          
    61  Na    c      4.5078 *    -5.9503 *     1.4425 *  0.0000     2          
    62  Na    c     -4.5078 *    -1.4425 *     5.9503 *  0.0000     2          
    63  O     c     -4.5078 *     5.3192 *    -3.0653 *  0.0000     2          
    64  O     c      0.0000       0.8114 *    -7.5731 *  0.0000     1          
    65  Na    c      0.0000       7.5731 *     1.4425 *  0.0000     1          
    66  Na    c      0.0000      -1.4425 *    -7.5731 *  0.0000     1          
    67  Cl    c      6.7617 *    -1.4425 *     3.6964 *  0.0000     2          
    68  Na    c      6.7617 *    -3.6964 *     1.4425 *  0.0000     2          
    69  Na    c      4.5078 *     5.3192 *     3.6964 *  0.0000     2          
    70  Na    c      4.5078 *    -3.6964 *    -5.3192 *  0.0000     2          
    71  Cl    c      2.2539 *     7.5731 *    -0.8114 *  0.0000     2          
    72  Na    c      2.2539 *     0.8114 *    -7.5731 *  0.0000     2          
    73  O     c      0.0000       5.3192 *     5.9503 *  0.0000     1          
    74  Na    c      4.5078 *     3.0653 *     5.9503 *  0.0000     2          
    75  Na    c      4.5078 *    -5.9503 *    -3.0653 *  0.0000     2          
    76  Na    c      0.0000       7.5731 *    -3.0653 *  0.0000     1          
    77  Na    c      0.0000       3.0653 *    -7.5731 *  0.0000     1          
    78  Na    c      0.0000       0.8114 *     8.2042 *  0.0000     1          
    79  Na    c      0.0000      -8.2042 *    -0.8114 *  0.0000     1          
    80  Cl    c      2.2539 *    -5.9503 *    -5.3192 *  0.0000     2          
    81  Cl    c      6.7617 *     3.0653 *     3.6964 *  0.0000     2          
    82  Na    c      2.2539 *     5.3192 *     5.9503 *  0.0000     2          
    83  Na    c      6.7617 *    -3.6964 *    -3.0653 *  0.0000     2          
    84  O     c      0.0000      -8.2042 *     1.4425 *  0.0000     1          
    85  O     c      4.5078 *    -3.6964 *     5.9503 *  0.0000     2          
    86  Na    c      0.0000      -5.9503 *     5.9503 *  0.0000     1          
    87  O     c      0.0000      -3.6964 *    -7.5731 *  0.0000     1          
    88  Cl    c      2.2539 *    -1.4425 *     8.2042 *  0.0000     2          
    89  Na    c      2.2539 *    -8.2042 *     1.4425 *  0.0000     2          
    90  Cl    c      2.2539 *     7.5731 *     3.6964 *  0.0000     2          
    91  Cl    c      6.7617 *    -1.4425 *    -5.3192 *  0.0000     2          
    92  Na    c      2.2539 *    -3.6964 *    -7.5731 *  0.0000     2          
    93  Na    c      6.7617 *     5.3192 *     1.4425 *  0.0000     2          
    94  O     c      0.0000      -8.2042 *    -3.0653 *  0.0000     1          
    95  Na    c      4.5078 *     5.3192 *    -5.3192 *  0.0000     2          
    96  O     c     -4.5078 *     0.8114 *    -7.5731 *  0.0000     2          
    97  Na    c      4.5078 *     7.5731 *     1.4425 *  0.0000     2          
    98  Na    c     -4.5078 *    -1.4425 *    -7.5731 *  0.0000     2          
    99  Na    c      0.0000      -3.6964 *     8.2042 *  0.0000     1          
   100  Na    c      0.0000      -8.2042 *     3.6964 *  0.0000     1          
   101  Cl    c      2.2539 *     3.0653 *     8.2042 *  0.0000     2          
   102  Na    c      2.2539 *    -8.2042 *    -3.0653 *  0.0000     2          
   103  Na    c      6.7617 *     0.8114 *     5.9503 *  0.0000     2          
   104  Cl    c      6.7617 *    -5.9503 *    -0.8114 *  0.0000     2          
   105  Na    c      9.0156 *     0.8114 *    -0.8114 *  0.0000     2          
   106  Cl    c      6.7617 *     3.0653 *    -5.3192 *  0.0000     2          
   107  Na    c      6.7617 *     5.3192 *    -3.0653 *  0.0000     2          
   108  O     c      4.5078 *     5.3192 *     5.9503 *  0.0000     2          
   109  O     c      9.0156 *     0.8114 *     1.4425 *  0.0000     2          
   110  Na    c      9.0156 *    -1.4425 *     1.4425 *  0.0000     2          
   111  O     c      0.0000       5.3192 *    -7.5731 *  0.0000     1          
   112  Na    c      4.5078 *     3.0653 *    -7.5731 *  0.0000     2          
   113  Na    c      4.5078 *     7.5731 *    -3.0653 *  0.0000     2          
   114  Na    c      4.5078 *     0.8114 *     8.2042 *  0.0000     2          
   115  Na    c     -4.5078 *    -8.2042 *    -0.8114 *  0.0000     2          
   116  O     c     -4.5078 *    -8.2042 *     1.4425 *  0.0000     2          
   117  Cl    c      2.2539 *     7.5731 *    -5.3192 *  0.0000     2          
   118  Na    c      2.2539 *     5.3192 *    -7.5731 *  0.0000     2          
   119  Na    c      4.5078 *    -5.9503 *     5.9503 *  0.0000     2          
   120  O     c      4.5078 *    -3.6964 *    -7.5731 *  0.0000     2          
   121  O     c      9.0156 *     0.8114 *    -3.0653 *  0.0000     2          
   122  Na    c      0.0000       7.5731 *     5.9503 *  0.0000     1          
   123  Na    c      9.0156 *     3.0653 *     1.4425 *  0.0000     2          
   124  Na    c      0.0000      -5.9503 *    -7.5731 *  0.0000     1          
   125  Na    c      9.0156 *    -1.4425 *    -3.0653 *  0.0000     2          
   126  Na    c      6.7617 *    -3.6964 *     5.9503 *  0.0000     2          
   127  Cl    c      6.7617 *    -5.9503 *     3.6964 *  0.0000     2          
   128  Na    c      0.0000       5.3192 *     8.2042 *  0.0000     1          
   129  Na    c      0.0000      -8.2042 *    -5.3192 *  0.0000     1          
   130  Na    c      9.0156 *     0.8114 *     3.6964 *  0.0000     2          
   131  Na    c      9.0156 *    -3.6964 *    -0.8114 *  0.0000     2          
   132  O     c     -4.5078 *    -8.2042 *    -3.0653 *  0.0000     2          
   133  O     c      9.0156 *    -3.6964 *     1.4425 *  0.0000     2          
   134  Na    c      0.0000       0.8114 *    -9.8270 *  0.0000     1          
   135  Na    c      0.0000       9.8270 *    -0.8114 *  0.0000     1          
   136  O     c      0.0000       9.8270 *     1.4425 *  0.0000     1          
   137  Na    c      9.0156 *     3.0653 *    -3.0653 *  0.0000     2          
   138  Na    c      4.5078 *    -3.6964 *     8.2042 *  0.0000     2          
   139  Na    c     -4.5078 *    -8.2042 *     3.6964 *  0.0000     2          
   140  O     c      0.0000      -8.2042 *     5.9503 *  0.0000     1          
   141  Cl    c      2.2539 *    -1.4425 *    -9.8270 *  0.0000     2          
   142  Cl    c      6.7617 *     7.5731 *    -0.8114 *  0.0000     2          
   143  Na    c      2.2539 *     9.8270 *     1.4425 *  0.0000     2          
   144  Na    c      6.7617 *     0.8114 *    -7.5731 *  0.0000     2          
   145  O     c      9.0156 *    -3.6964 *    -3.0653 *  0.0000     2          
   146  O     c      0.0000       9.8270 *    -3.0653 *  0.0000     1          
   147  O     c      4.5078 *     5.3192 *    -7.5731 *  0.0000     2          
   148  Cl    c      2.2539 *    -5.9503 *     8.2042 *  0.0000     2          
   149  Na    c      2.2539 *    -8.2042 *     5.9503 *  0.0000     2          
   150  Na    c      9.0156 *    -3.6964 *     3.6964 *  0.0000     2          
   151  Na    c      6.7617 *     5.3192 *     5.9503 *  0.0000     2          
   152  Cl    c      6.7617 *    -5.9503 *    -5.3192 *  0.0000     2          
   153  O     c      0.0000       0.8114 *    10.4581 *  0.0000     1          
   154  Na    c      0.0000       9.8270 *     3.6964 *  0.0000     1          
   155  Na    c      0.0000      -3.6964 *    -9.8270 *  0.0000     1          
   156  Na    c      9.0156 *     0.8114 *    -5.3192 *  0.0000     2          
   157  Na    c      9.0156 *     5.3192 *    -0.8114 *  0.0000     2          
   158  Cl    c      2.2539 *     3.0653 *    -9.8270 *  0.0000     2          
   159  Na    c      2.2539 *     9.8270 *    -3.0653 *  0.0000     2          
   160  Na    c      0.0000      -1.4425 *    10.4581 *  0.0000     1          
   161  Na    c      0.0000     -10.4581 *     1.4425 *  0.0000     1          
   162  O     c      9.0156 *     5.3192 *     1.4425 *  0.0000     2          
   163  Na    c      4.5078 *     7.5731 *     5.9503 *  0.0000     2          
   164  Na    c      4.5078 *    -5.9503 *    -7.5731 *  0.0000     2          
   165  Na    c      0.0000       7.5731 *    -7.5731 *  0.0000     1          
   166  Cl    c      6.7617 *    -1.4425 *     8.2042 *  0.0000     2          
   167  Na    c      6.7617 *    -8.2042 *     1.4425 *  0.0000     2          
   168  Cl    c      2.2539 *   -10.4581 *    -0.8114 *  0.0000     2          
   169  Na    c      2.2539 *     0.8114 *    10.4581 *  0.0000     2          
   170  Na    c      4.5078 *     5.3192 *     8.2042 *  0.0000     2          
   171  Na    c     -4.5078 *    -8.2042 *    -5.3192 *  0.0000     2          
   172  Cl    c      6.7617 *     7.5731 *     3.6964 *  0.0000     2          
   173  Na    c      6.7617 *    -3.6964 *    -7.5731 *  0.0000     2          
   174  O     c      9.0156 *     0.8114 *     5.9503 *  0.0000     2          
   175  Na    c      4.5078 *     0.8114 *    -9.8270 *  0.0000     2          
   176  Na    c     -4.5078 *     9.8270 *    -0.8114 *  0.0000     2          
   177  Na    c      0.0000       3.0653 *    10.4581 *  0.0000     1          
   178  Na    c      9.0156 *    -1.4425 *     5.9503 *  0.0000     2          
   179  Na    c      9.0156 *    -5.9503 *     1.4425 *  0.0000     2          
   180  Na    c      0.0000     -10.4581 *    -3.0653 *  0.0000     1          
   181  O     c     -4.5078 *     9.8270 *     1.4425 *  0.0000     2          
   182  O     c      9.0156 *     5.3192 *    -3.0653 *  0.0000     2          
   183  Cl    c      6.7617 *     3.0653 *     8.2042 *  0.0000     2          
   184  Na    c      6.7617 *    -8.2042 *    -3.0653 *  0.0000     2          
   185  O     c      4.5078 *    -8.2042 *     5.9503 *  0.0000     2          
   186  O     c      0.0000      -3.6964 *    10.4581 *  0.0000     1          
   187  Na    c      9.0156 *     5.3192 *     3.6964 *  0.0000     2          
   188  Na    c      9.0156 *    -3.6964 *    -5.3192 *  0.0000     2          
   189  O     c      0.0000      -8.2042 *    -7.5731 *  0.0000     1          
   190  Na    c      0.0000       5.3192 *    -9.8270 *  0.0000     1          
   191  Na    c      0.0000       9.8270 *    -5.3192 *  0.0000     1          
   192  Na    c      9.0156 *     3.0653 *     5.9503 *  0.0000     2          
   193  Na    c      9.0156 *    -5.9503 *    -3.0653 *  0.0000     2          
   194  O     c     -4.5078 *     9.8270 *    -3.0653 *  0.0000     2          
   195  Cl    c      2.2539 *   -10.4581 *     3.6964 *  0.0000     2          
   196  Na    c      2.2539 *    -3.6964 *    10.4581 *  0.0000     2          
   197  Cl    c      2.2539 *     7.5731 *     8.2042 *  0.0000     2          
   198  Cl    c     11.2695 *    -1.4425 *    -0.8114 *  0.0000     2          
   199  Na    c     11.2695 *     0.8114 *     1.4425 *  0.0000     2          
   200  Na    c      2.2539 *    -8.2042 *    -7.5731 *  0.0000     2          
   201  O     c      9.0156 *    -3.6964 *     5.9503 *  0.0000     2          
   202  O     c      4.5078 *     0.8114 *    10.4581 *  0.0000     2          
   203  Na    c      4.5078 *     9.8270 *     3.6964 *  0.0000     2          
   204  Na    c      4.5078 *    -3.6964 *    -9.8270 *  0.0000     2          
   205  Cl    c      6.7617 *     7.5731 *    -5.3192 *  0.0000     2          
   206  Na    c      6.7617 *     5.3192 *    -7.5731 *  0.0000     2          
   207  Na    c      4.5078 *    -1.4425 *    10.4581 *  0.0000     2          
   208  Na    c      4.5078 *   -10.4581 *     1.4425 *  0.0000     2          
   209  O     c      0.0000       9.8270 *     5.9503 *  0.0000     1          
   210  Na    c      0.0000      -8.2042 *     8.2042 *  0.0000     1          
   211  Na    c      4.5078 *     7.5731 *    -7.5731 *  0.0000     2          
   212  Cl    c     11.2695 *     3.0653 *    -0.8114 *  0.0000     2          
   213  Na    c     11.2695 *     0.8114 *    -3.0653 *  0.0000     2          
   214  Cl    c      2.2539 *    -5.9503 *    -9.8270 *  0.0000     2          
   215  Na    c      2.2539 *     9.8270 *     5.9503 *  0.0000     2          
   216  O     c      0.0000       5.3192 *    10.4581 *  0.0000     1          
   217  Na    c      9.0156 *     5.3192 *    -5.3192 *  0.0000     2          
   218  Na    c      4.5078 *     3.0653 *    10.4581 *  0.0000     2          
   219  Na    c      4.5078 *   -10.4581 *    -3.0653 *  0.0000     2          
   220  O     c      9.0156 *     0.8114 *    -7.5731 *  0.0000     2          
   221  Na    c      9.0156 *     7.5731 *     1.4425 *  0.0000     2          
   222  Na    c      9.0156 *    -1.4425 *    -7.5731 *  0.0000     2          
   223  Cl    c     11.2695 *    -1.4425 *     3.6964 *  0.0000     2          
   224  Na    c     11.2695 *    -3.6964 *     1.4425 *  0.0000     2          
   225  Cl    c      2.2539 *   -10.4581 *    -5.3192 *  0.0000     2          
   226  Na    c      2.2539 *     5.3192 *    10.4581 *  0.0000     2          
   227  O     c      4.5078 *    -3.6964 *    10.4581 *  0.0000     2          
   228  O     s      0.0000       0.8114 *     1.4425 *  0.0000     1          
   229  Cl    s      2.2539 *    -1.4425 *    -0.8114 *  0.0000     2          
   230  O     s      0.0000       0.8114 *    -3.0653 *  0.0000     1          
   231  Cl    s      2.2539 *     3.0653 *    -0.8114 *  0.0000     2          
   232  O     s      0.0000      -3.6964 *     1.4425 *  0.0000     1          
   233  Cl    s      2.2539 *    -1.4425 *     3.6964 *  0.0000     2          
   234  O     s      0.0000      -3.6964 *    -3.0653 *  0.0000     1          
   235  O     s     -4.5078 *     0.8114 *     1.4425 *  0.0000     2          
   236  Cl    s      2.2539 *     3.0653 *     3.6964 *  0.0000     2          
   237  O     s      0.0000       5.3192 *     1.4425 *  0.0000     1          
   238  O     s     -4.5078 *     0.8114 *    -3.0653 *  0.0000     2          
   239  Cl    s      2.2539 *    -1.4425 *    -5.3192 *  0.0000     2          
   240  O     s     -4.5078 *    -3.6964 *     1.4425 *  0.0000     2          
   241  O     s      0.0000       0.8114 *     5.9503 *  0.0000     1          
   242  O     s      0.0000       5.3192 *    -3.0653 *  0.0000     1          
   243  Cl    s      2.2539 *    -5.9503 *    -0.8114 *  0.0000     2          
   244  Cl    s      2.2539 *     3.0653 *    -5.3192 *  0.0000     2          
   245  O     s     -4.5078 *    -3.6964 *    -3.0653 *  0.0000     2          
   246  Cl    s      6.7617 *    -1.4425 *    -0.8114 *  0.0000     2          
   247  O     s      0.0000      -3.6964 *     5.9503 *  0.0000     1          
   248  O     s     -4.5078 *     5.3192 *     1.4425 *  0.0000     2          
   249  Cl    s      2.2539 *    -5.9503 *     3.6964 *  0.0000     2          
   250  Cl    s      6.7617 *     3.0653 *    -0.8114 *  0.0000     2          
   251  O     s     -4.5078 *     0.8114 *     5.9503 *  0.0000     2          
   252  O     s     -4.5078 *     5.3192 *    -3.0653 *  0.0000     2          
   253  O     s      0.0000       0.8114 *    -7.5731 *  0.0000     1          
   254  Cl    s      6.7617 *    -1.4425 *     3.6964 *  0.0000     2          
   255  Cl    s      2.2539 *     7.5731 *    -0.8114 *  0.0000     2          
   256  O     s      0.0000       5.3192 *     5.9503 *  0.0000     1          
   257  Cl    s      2.2539 *    -5.9503 *    -5.3192 *  0.0000     2          
   258  Cl    s      6.7617 *     3.0653 *     3.6964 *  0.0000     2          
   259  O     s      0.0000      -8.2042 *     1.4425 *  0.0000     1          
   260  O     s      4.5078 *    -3.6964 *     5.9503 *  0.0000     2          
   261  O     s      0.0000      -3.6964 *    -7.5731 *  0.0000     1          
   262  Cl    s      2.2539 *    -1.4425 *     8.2042 *  0.0000     2          
   263  Cl    s      2.2539 *     7.5731 *     3.6964 *  0.0000     2          
   264  Cl    s      6.7617 *    -1.4425 *    -5.3192 *  0.0000     2          
   265  O     s      0.0000      -8.2042 *    -3.0653 *  0.0000     1          
   266  O     s     -4.5078 *     0.8114 *    -7.5731 *  0.0000     2          
   267  Cl    s      2.2539 *     3.0653 *     8.2042 *  0.0000     2          
   268  Cl    s      6.7617 *    -5.9503 *    -0.8114 *  0.0000     2          
   269  Cl    s      6.7617 *     3.0653 *    -5.3192 *  0.0000     2          
   270  O     s      4.5078 *     5.3192 *     5.9503 *  0.0000     2          
   271  O     s      9.0156 *     0.8114 *     1.4425 *  0.0000     2          
   272  O     s      0.0000       5.3192 *    -7.5731 *  0.0000     1          
   273  O     s     -4.5078 *    -8.2042 *     1.4425 *  0.0000     2          
   274  Cl    s      2.2539 *     7.5731 *    -5.3192 *  0.0000     2          
   275  O     s      4.5078 *    -3.6964 *    -7.5731 *  0.0000     2          
   276  O     s      9.0156 *     0.8114 *    -3.0653 *  0.0000     2          
   277  Cl    s      6.7617 *    -5.9503 *     3.6964 *  0.0000     2          
   278  O     s     -4.5078 *    -8.2042 *    -3.0653 *  0.0000     2          
   279  O     s      9.0156 *    -3.6964 *     1.4425 *  0.0000     2          
   280  O     s      0.0000       9.8270 *     1.4425 *  0.0000     1          
   281  O     s      0.0000      -8.2042 *     5.9503 *  0.0000     1          
   282  Cl    s      2.2539 *    -1.4425 *    -9.8270 *  0.0000     2          
   283  Cl    s      6.7617 *     7.5731 *    -0.8114 *  0.0000     2          
   284  O     s      9.0156 *    -3.6964 *    -3.0653 *  0.0000     2          
   285  O     s      0.0000       9.8270 *    -3.0653 *  0.0000     1          
   286  O     s      4.5078 *     5.3192 *    -7.5731 *  0.0000     2          
   287  Cl    s      2.2539 *    -5.9503 *     8.2042 *  0.0000     2          
   288  Cl    s      6.7617 *    -5.9503 *    -5.3192 *  0.0000     2          
   289  O     s      0.0000       0.8114 *    10.4581 *  0.0000     1          
   290  Cl    s      2.2539 *     3.0653 *    -9.8270 *  0.0000     2          
   291  O     s      9.0156 *     5.3192 *     1.4425 *  0.0000     2          
   292  Cl    s      6.7617 *    -1.4425 *     8.2042 *  0.0000     2          
   293  Cl    s      2.2539 *   -10.4581 *    -0.8114 *  0.0000     2          
   294  Cl    s      6.7617 *     7.5731 *     3.6964 *  0.0000     2          
   295  O     s      9.0156 *     0.8114 *     5.9503 *  0.0000     2          
   296  O     s     -4.5078 *     9.8270 *     1.4425 *  0.0000     2          
   297  O     s      9.0156 *     5.3192 *    -3.0653 *  0.0000     2          
   298  Cl    s      6.7617 *     3.0653 *     8.2042 *  0.0000     2          
   299  O     s      4.5078 *    -8.2042 *     5.9503 *  0.0000     2          
   300  O     s      0.0000      -3.6964 *    10.4581 *  0.0000     1          
   301  O     s      0.0000      -8.2042 *    -7.5731 *  0.0000     1          
   302  O     s     -4.5078 *     9.8270 *    -3.0653 *  0.0000     2          
   303  Cl    s      2.2539 *   -10.4581 *     3.6964 *  0.0000     2          
   304  Cl    s      2.2539 *     7.5731 *     8.2042 *  0.0000     2          
   305  Cl    s     11.2695 *    -1.4425 *    -0.8114 *  0.0000     2          
   306  O     s      9.0156 *    -3.6964 *     5.9503 *  0.0000     2          
   307  O     s      4.5078 *     0.8114 *    10.4581 *  0.0000     2          
   308  Cl    s      6.7617 *     7.5731 *    -5.3192 *  0.0000     2          
   309  O     s      0.0000       9.8270 *     5.9503 *  0.0000     1          
   310  Cl    s     11.2695 *     3.0653 *    -0.8114 *  0.0000     2          
   311  Cl    s      2.2539 *    -5.9503 *    -9.8270 *  0.0000     2          
   312  O     s      0.0000       5.3192 *    10.4581 *  0.0000     1          
   313  O     s      9.0156 *     0.8114 *    -7.5731 *  0.0000     2          
   314  Cl    s     11.2695 *    -1.4425 *     3.6964 *  0.0000     2          
   315  Cl    s      2.2539 *   -10.4581 *    -5.3192 *  0.0000     2          
   316  O     s      4.5078 *    -3.6964 *    10.4581 *  0.0000     2          
--------------------------------------------------------------------------------

  Components of defect energy : 

--------------------------------------------------------------------------------
  Region 1 - region 1                   =      8.25206380 eV
  Region 1 - region 2a (unrelaxed)      =      1.78417109 eV
  Region 1 - 2a (relaxed - correction)  =     -0.29404276 eV
  Region 1 (Total)                      =      9.74219213 eV
  Region 2a                             =      0.14694244 eV
  Region 2b                             =     -0.43095283 eV
--------------------------------------------------------------------------------
  Total defect energy                   =      9.45818174 eV
--------------------------------------------------------------------------------

  Largest displacement in region 2 =   0.0242 Angstroms


  Number of variables =      863

  Maximum number of calculations  =        1000
  Maximum Hessian update interval =          10
  Maximum step size               =   1.0000000
  Maximum parameter tolerance     =   0.0000100
  Maximum function  tolerance     =   0.0000100
  Maximum gradient  tolerance     =   0.0010000

  Symmetry adapted optimisation

  Symmetry to be used for second derivatives

  Newton-Raphson optimiser to be used

  BFGS hessian update to be used

  Lower half triangular hessian to be used

  Start of defect optimisation :

  Cycle:      0 Defect Energy:   9.458182  Gnorm:     0.025348  CPU:    2.800
  ** Hessian calculated **
  Cycle:      1 Defect Energy:   8.423219  Gnorm:     0.021378  CPU:    8.479
  ** Hessian calculated **
  Cycle:      2 Defect Energy:   6.150115  Gnorm:     0.007897  CPU:   14.563
  Cycle:      3 Defect Energy:   5.705968  Gnorm:     0.004641  CPU:   20.515
  Cycle:      4 Defect Energy:   5.536877  Gnorm:     0.005249  CPU:   24.859
  Cycle:      5 Defect Energy:   5.405271  Gnorm:     0.003534  CPU:   29.292
  Cycle:      6 Defect Energy:   5.354192  Gnorm:     0.002925  CPU:   30.339
  Cycle:      7 Defect Energy:   5.281083  Gnorm:     0.002519  CPU:   31.463
  Cycle:      8 Defect Energy:   5.178512  Gnorm:     0.002144  CPU:   32.432
  Cycle:      9 Defect Energy:   5.045535  Gnorm:     0.002197  CPU:   33.405
  Cycle:     10 Defect Energy:   4.928421  Gnorm:     0.002013  CPU:   34.341
  Cycle:     11 Defect Energy:   4.862033  Gnorm:     0.002053  CPU:   35.311
  ** Hessian calculated **
  Cycle:     12 Defect Energy:   4.840095  Gnorm:     0.001568  CPU:   37.885
  Cycle:     13 Defect Energy:   4.810753  Gnorm:     0.001462  CPU:   38.812
  Cycle:     14 Defect Energy:   4.772434  Gnorm:     0.001408  CPU:   39.741
  Cycle:     15 Defect Energy:   4.723038  Gnorm:     0.001364  CPU:   40.775
  Cycle:     16 Defect Energy:   4.670704  Gnorm:     0.001419  CPU:   41.662
  Cycle:     17 Defect Energy:   4.642947  Gnorm:     0.001266  CPU:   42.553
  Cycle:     18 Defect Energy:   4.623617  Gnorm:     0.001325  CPU:   43.434
  Cycle:     19 Defect Energy:   4.605912  Gnorm:     0.001246  CPU:   44.271
  Cycle:     20 Defect Energy:   4.588964  Gnorm:     0.001219  CPU:   45.257
  Cycle:     21 Defect Energy:   4.573711  Gnorm:     0.001211  CPU:   49.284
  ** Hessian calculated **
  Cycle:     22 Defect Energy:   4.551774  Gnorm:     0.001151  CPU:   51.953
  Cycle:     23 Defect Energy:   4.492522  Gnorm:     0.000921  CPU:   52.942
  Cycle:     24 Defect Energy:   4.443616  Gnorm:     0.000601  CPU:   53.916
  Cycle:     25 Defect Energy:   4.421935  Gnorm:     0.000458  CPU:   55.100
  Cycle:     26 Defect Energy:   4.422300  Gnorm:     0.000458  CPU:   56.115
  ** Hessian calculated **
  Cycle:     27 Defect Energy:   4.414981  Gnorm:     0.000329  CPU:   58.675
  Cycle:     28 Defect Energy:   4.410670  Gnorm:     0.000247  CPU:   59.666
  Cycle:     29 Defect Energy:   4.407757  Gnorm:     0.000169  CPU:   60.589
  Cycle:     30 Defect Energy:   4.406112  Gnorm:     0.000155  CPU:   61.486
  Cycle:     31 Defect Energy:   4.405106  Gnorm:     0.000068  CPU:   62.375
  ** Hessian calculated **
  Cycle:     32 Defect Energy:   4.403439  Gnorm:     0.000084  CPU:   64.830
  Cycle:     33 Defect Energy:   4.402377  Gnorm:     0.000119  CPU:   65.721
  Cycle:     34 Defect Energy:   4.401525  Gnorm:     0.000104  CPU:   66.603
  Cycle:     35 Defect Energy:   4.400569  Gnorm:     0.000098  CPU:   67.492
  Cycle:     36 Defect Energy:   4.398912  Gnorm:     0.000099  CPU:   68.379
  Cycle:     37 Defect Energy:   4.396864  Gnorm:     0.000184  CPU:   69.363
  Cycle:     38 Defect Energy:   4.396308  Gnorm:     0.000201  CPU:   70.223
  ** Hessian calculated **
  Cycle:     39 Defect Energy:   4.396038  Gnorm:     0.000111  CPU:   72.458
  Cycle:     40 Defect Energy:   4.395823  Gnorm:     0.000083  CPU:   73.338
  Cycle:     41 Defect Energy:   4.395581  Gnorm:     0.000079  CPU:   74.252
  Cycle:     42 Defect Energy:   4.395295  Gnorm:     0.000085  CPU:   75.073
  Cycle:     43 Defect Energy:   4.395043  Gnorm:     0.000090  CPU:   75.896
  Cycle:     44 Defect Energy:   4.394754  Gnorm:     0.000105  CPU:   76.695
  Cycle:     45 Defect Energy:   4.394439  Gnorm:     0.000117  CPU:   77.522
  Cycle:     46 Defect Energy:   4.394039  Gnorm:     0.000128  CPU:   78.294
  Cycle:     47 Defect Energy:   4.393557  Gnorm:     0.000145  CPU:   79.154
  Cycle:     48 Defect Energy:   4.392939  Gnorm:     0.000161  CPU:   80.016
  ** Hessian calculated **
  Cycle:     49 Defect Energy:   4.392789  Gnorm:     0.000149  CPU:   86.023
  Cycle:     50 Defect Energy:   4.392592  Gnorm:     0.000144  CPU:   87.093
  Cycle:     51 Defect Energy:   4.392350  Gnorm:     0.000138  CPU:   88.132
  Cycle:     52 Defect Energy:   4.392003  Gnorm:     0.000133  CPU:   89.177
  Cycle:     53 Defect Energy:   4.391588  Gnorm:     0.000131  CPU:   90.288
  Cycle:     54 Defect Energy:   4.391069  Gnorm:     0.000134  CPU:   91.265
  Cycle:     55 Defect Energy:   4.390562  Gnorm:     0.000152  CPU:   92.285
  Cycle:     56 Defect Energy:   4.389807  Gnorm:     0.000161  CPU:   93.347
  Cycle:     57 Defect Energy:   4.388796  Gnorm:     0.000204  CPU:   94.413
  Cycle:     58 Defect Energy:   4.387145  Gnorm:     0.000261  CPU:   95.405
  ** Hessian calculated **
  Cycle:     59 Defect Energy:   4.386365  Gnorm:     0.000240  CPU:   98.257
  Cycle:     60 Defect Energy:   4.385292  Gnorm:     0.000230  CPU:   99.251
  Cycle:     61 Defect Energy:   4.383876  Gnorm:     0.000228  CPU:  100.255
  Cycle:     62 Defect Energy:   4.382027  Gnorm:     0.000228  CPU:  101.276
  Cycle:     63 Defect Energy:   4.379744  Gnorm:     0.000247  CPU:  102.288
  Cycle:     64 Defect Energy:   4.377565  Gnorm:     0.000275  CPU:  103.256
  Cycle:     65 Defect Energy:   4.375110  Gnorm:     0.000325  CPU:  104.166
  Cycle:     66 Defect Energy:   4.371887  Gnorm:     0.000387  CPU:  105.100
  Cycle:     67 Defect Energy:   4.367516  Gnorm:     0.000479  CPU:  106.060
  Cycle:     68 Defect Energy:   4.362767  Gnorm:     0.000570  CPU:  106.926
  ** Hessian calculated **
  Cycle:     69 Defect Energy:   4.360070  Gnorm:     0.000543  CPU:  109.066
  Cycle:     70 Defect Energy:   4.356631  Gnorm:     0.000530  CPU:  109.886
  Cycle:     71 Defect Energy:   4.351844  Gnorm:     0.000510  CPU:  110.752
  Cycle:     72 Defect Energy:   4.345985  Gnorm:     0.000495  CPU:  112.942
  Cycle:     73 Defect Energy:   4.339422  Gnorm:     0.000493  CPU:  115.438
  Cycle:     74 Defect Energy:   4.334934  Gnorm:     0.000502  CPU:  116.233
  Cycle:     75 Defect Energy:   4.330669  Gnorm:     0.000536  CPU:  117.257
  Cycle:     76 Defect Energy:   4.326613  Gnorm:     0.000555  CPU:  118.252
  Cycle:     77 Defect Energy:   4.322161  Gnorm:     0.000593  CPU:  119.269
  Cycle:     78 Defect Energy:   4.316369  Gnorm:     0.000647  CPU:  120.368
  ** Hessian calculated **
  Cycle:     79 Defect Energy:   4.314124  Gnorm:     0.000631  CPU:  122.893
  Cycle:     80 Defect Energy:   4.310975  Gnorm:     0.000627  CPU:  123.840
  Cycle:     81 Defect Energy:   4.306711  Gnorm:     0.000618  CPU:  124.865
  Cycle:     82 Defect Energy:   4.301121  Gnorm:     0.000617  CPU:  125.833
  Cycle:     83 Defect Energy:   4.294210  Gnorm:     0.000627  CPU:  126.742
  Cycle:     84 Defect Energy:   4.288162  Gnorm:     0.000651  CPU:  127.681
  Cycle:     85 Defect Energy:   4.282385  Gnorm:     0.000682  CPU:  128.598
  Cycle:     86 Defect Energy:   4.276507  Gnorm:     0.000729  CPU:  129.619
  Cycle:     87 Defect Energy:   4.270146  Gnorm:     0.000766  CPU:  130.526
  Cycle:     88 Defect Energy:   4.263774  Gnorm:     0.000815  CPU:  131.367
  ** Hessian calculated **
  Cycle:     89 Defect Energy:   4.250066  Gnorm:     0.000798  CPU:  133.639
  Cycle:     90 Defect Energy:   4.225365  Gnorm:     0.000722  CPU:  134.580
  Cycle:     91 Defect Energy:   4.191192  Gnorm:     0.000483  CPU:  135.401
  Cycle:     92 Defect Energy:   4.190636  Gnorm:     0.000618  CPU:  136.220
  ** Hessian calculated **
  Cycle:     93 Defect Energy:   4.180026  Gnorm:     0.000446  CPU:  138.467
  Cycle:     94 Defect Energy:   4.174678  Gnorm:     0.000319  CPU:  139.435
  Cycle:     95 Defect Energy:   4.172039  Gnorm:     0.000214  CPU:  140.260
  Cycle:     96 Defect Energy:   4.170706  Gnorm:     0.000166  CPU:  141.065
  Cycle:     97 Defect Energy:   4.169879  Gnorm:     0.000065  CPU:  141.867
  Cycle:     98 Defect Energy:   4.169642  Gnorm:     0.000043  CPU:  142.676
  Cycle:     99 Defect Energy:   4.169558  Gnorm:     0.000030  CPU:  143.499
  Cycle:    100 Defect Energy:   4.169517  Gnorm:     0.000021  CPU:  144.374
  Cycle:    101 Defect Energy:   4.169497  Gnorm:     0.000015  CPU:  144.860
  Cycle:    102 Defect Energy:   4.169486  Gnorm:     0.000010  CPU:  148.294
  ** Hessian calculated **


  **** Optimisation achieved ****


  Final defect energy  =        4.16948118
  Final defect Gnorm   =        0.00000723

  Components of defect energy : 

--------------------------------------------------------------------------------
  Region 1 - region 1                   =      3.74786276 eV
  Region 1 - region 2a (unrelaxed)      =      0.96564585 eV
  Region 1 - 2a (relaxed - correction)  =     -0.22625967 eV
  Region 1 (Total)                      =      4.48724895 eV
  Region 2a                             =      0.11304192 eV
  Region 2b                             =     -0.43080969 eV
--------------------------------------------------------------------------------
  Total defect energy                   =      4.16948118 eV
--------------------------------------------------------------------------------

  Largest displacement in region 2 =   0.0264 Angstroms

  Final coordinates of region 1 :

--------------------------------------------------------------------------------
   No.  Atomic        x           y           z          Radius      Charge
        Label       (Angs)      (Angs)      (Angs)       (Angs)       (e) 
--------------------------------------------------------------------------------
     1  Na    c     2.253894    1.789776    0.053750    0.000000    1.000000
     2  O     c     2.253894    2.420224    2.191443    0.000000    0.183000
     3  Na    c     4.401809    1.839401    2.310765    0.000000    1.000000
     4  Na    c     0.105978    1.839401    2.310765    0.000000    1.000000
     5  Cl    c     4.620227    0.006337   -0.086784    0.000000    1.485000
     6  Cl    c    -0.112440    0.006337   -0.086784    0.000000    1.485000
     7  O     c     2.253894    2.237736   -2.234529    0.000000    0.183000
     8  Na    c     2.253894    4.573647    1.822606    0.000000    1.000000
     9  Na    c     2.253894    0.005855   -2.670704    0.000000    1.000000
    10  Na    c     2.253894    2.510667    4.413037    0.000000    1.000000
    11  Na    c     2.253894   -1.803773    0.047743    0.000000    1.000000
    12  Cl    c     4.578558    4.649498   -0.080815    0.000000    1.485000
    13  Cl    c    -0.070771    4.649498   -0.080815    0.000000    1.485000
    14  Na    c     4.506700    2.169552   -2.272259    0.000000    1.000000
    15  Na    c     0.001087    2.169552   -2.272259    0.000000    1.000000
    16  O     c     2.253894   -2.399246    2.193704    0.000000    0.183000
    17  Na    c     2.253894    4.495299   -1.815538    0.000000    1.000000
    18  Cl    c     4.658502    0.003625    4.650916    0.000000    1.485000
    19  Cl    c    -0.150715    0.003625    4.650916    0.000000    1.485000
    20  Na    c     4.401282   -1.816011    2.318736    0.000000    1.000000
    21  Na    c     0.106506   -1.816011    2.318736    0.000000    1.000000
    22  Na    c    -2.075370    2.604722    0.009901    0.000000    1.000000
    23  Na    c     6.583157    2.604722    0.009901    0.000000    1.000000
    24  O     c     2.253894   -2.226565   -2.241647    0.000000    0.183000
    25  O     c    -2.203473    2.237928    2.245440    0.000000    0.183000
    26  O     c     6.711260    2.237928    2.245440    0.000000    0.183000
    27  Na    c    -2.479267    0.007637    1.896092    0.000000    1.000000
    28  Na    c     6.987054    0.007637    1.896092    0.000000    1.000000
    29  Na    c     2.253894   -2.494275    4.406947    0.000000    1.000000
    30  Cl    c     4.523552    4.577812    4.652468    0.000000    1.485000
    31  Cl    c    -0.015765    4.577812    4.652468    0.000000    1.485000
    32  Na    c     4.508792   -2.161349   -2.297330    0.000000    1.000000
    33  Na    c    -0.001005   -2.161349   -2.297330    0.000000    1.000000
    34  Na    c     2.253894    2.667601   -4.474883    0.000000    1.000000
    35  Na    c     2.253894    7.226116   -0.020438    0.000000    1.000000
    36  O     c     2.253894    6.824947    2.214430    0.000000    0.183000
    37  O     c    -2.258763    2.265718   -2.242943    0.000000    0.183000
    38  O     c     6.766550    2.265718   -2.242943    0.000000    0.183000
    39  Na    c    -1.904935    4.471282    2.570282    0.000000    1.000000
    40  Na    c     6.412723    4.471282    2.570282    0.000000    1.000000
    41  Na    c    -2.338648    0.010079   -1.901195    0.000000    1.000000
    42  Na    c     6.846435    0.010079   -1.901195    0.000000    1.000000
    43  Na    c    -2.295874    1.908175    4.498638    0.000000    1.000000
    44  Na    c     6.803661    1.908175    4.498638    0.000000    1.000000
    45  Na    c    -2.033274   -2.578097    0.007907    0.000000    1.000000
    46  Na    c     6.541061   -2.578097    0.007907    0.000000    1.000000
    47  Cl    c     4.531053    0.004089   -4.514676    0.000000    1.485000
    48  Cl    c    -0.023265    0.004089   -4.514676    0.000000    1.485000
    49  Na    c     4.503215    6.881337    2.124311    0.000000    1.000000
    50  Na    c     0.004572    6.881337    2.124311    0.000000    1.000000
    51  O     c    -2.198795   -2.221341    2.239005    0.000000    0.183000
    52  O     c     6.706582   -2.221341    2.239005    0.000000    0.183000
    53  O     c     2.253894    2.252628    6.708897    0.000000    0.183000
    54  Na    c     2.253894    0.000382    6.357755    0.000000    1.000000
    55  Na    c     2.253894   -4.558274    1.864485    0.000000    1.000000
    56  O     c     2.253894    6.763575   -2.239535    0.000000    0.183000
    57  Na    c    -2.161155    4.502778   -2.605561    0.000000    1.000000
    58  Na    c     6.668942    4.502778   -2.605561    0.000000    1.000000
    59  Cl    c     4.567722   -4.639812   -0.082731    0.000000    1.485000
    60  Cl    c    -0.059935   -4.639812   -0.082731    0.000000    1.485000
    61  Na    c     4.513384    2.320323    6.653992    0.000000    1.000000
    62  Na    c    -0.005597    2.320323    6.653992    0.000000    1.000000
    63  Na    c     2.253894    6.416421    4.477654    0.000000    1.000000
    64  Na    c     2.253894   -2.662914   -4.470244    0.000000    1.000000
    65  Cl    c     4.514000    4.512006   -4.554835    0.000000    1.485000
    66  Cl    c    -0.006213    4.512006   -4.554835    0.000000    1.485000
    67  Na    c     4.515909    6.738617   -2.158750    0.000000    1.000000
    68  Na    c    -0.008121    6.738617   -2.158750    0.000000    1.000000
    69  O     c    -2.259271   -2.245970   -2.239071    0.000000    0.183000
    70  O     c     6.767058   -2.245970   -2.239071    0.000000    0.183000
    71  Na    c     2.253894    4.487630    7.010253    0.000000    1.000000
    72  Na    c     2.253894   -4.483738   -1.835757    0.000000    1.000000
    73  Na    c     6.825385   -1.933668    4.501601    0.000000    1.000000
    74  Na    c    -2.317597   -1.933668    4.501601    0.000000    1.000000
    75  Cl    c     9.094549   -0.017063   -0.027830    0.000000    1.485000
    76  Cl    c    -4.586761   -0.017063   -0.027830    0.000000    1.485000
    77  Na    c     8.975247    2.525644    2.195140    0.000000    1.000000
    78  Na    c    -4.467459    2.525644    2.195140    0.000000    1.000000
    79  O     c     2.253894   -2.252603    6.694032    0.000000    0.183000
    80  Na    c    -2.344666    1.928994   -4.492601    0.000000    1.000000
    81  Na    c     6.852453    1.928994   -4.492601    0.000000    1.000000
    82  Na    c    -2.339149    6.436111   -0.009803    0.000000    1.000000
    83  Na    c     6.846936    6.436111   -0.009803    0.000000    1.000000
    84  O     c    -2.241503    6.722809    2.254005    0.000000    0.183000
    85  O     c     6.749290    6.722809    2.254005    0.000000    0.183000
    86  Cl    c     4.530988   -4.599313    4.651788    0.000000    1.485000
    87  Cl    c    -0.023201   -4.599313    4.651788    0.000000    1.485000
    88  Na    c     4.509690   -2.299858    6.646812    0.000000    1.000000
    89  Na    c    -0.001903   -2.299858    6.646812    0.000000    1.000000
    90  Cl    c     9.072658    4.514682   -0.005169    0.000000    1.485000
    91  Cl    c    -4.564871    4.514682   -0.005169    0.000000    1.485000
    92  Na    c     9.013577    2.375048   -2.106731    0.000000    1.000000
    93  Na    c    -4.505790    2.375048   -2.106731    0.000000    1.000000
    94  O     c    -2.265886    2.255476    6.758036    0.000000    0.183000
    95  O     c     6.773673    2.255476    6.758036    0.000000    0.183000
    96  Na    c     2.253894    6.423633   -4.492527    0.000000    1.000000
    97  Na    c     6.441982   -4.458734    2.545497    0.000000    1.000000
    98  Na    c    -1.934195   -4.458734    2.545497    0.000000    1.000000
    99  Na    c    -2.102808    0.006508    7.035973    0.000000    1.000000
   100  Na    c     6.610595    0.006508    7.035973    0.000000    1.000000
   101  O     c    -2.270900    6.749604   -2.273878    0.000000    0.183000
   102  O     c     6.778688    6.749604   -2.273878    0.000000    0.183000
   103  O     c     2.253894    2.269718   -6.724464    0.000000    0.183000
   104  Na    c     2.253894    9.034194    2.630022    0.000000    1.000000
   105  Na    c     2.253894    0.004386   -6.461769    0.000000    1.000000
   106  Cl    c     9.046143   -0.001192    4.564977    0.000000    1.485000
   107  Cl    c    -4.538356   -0.001192    4.564977    0.000000    1.485000
   108  Na    c     8.967458   -2.500403    2.143815    0.000000    1.000000
   109  Na    c    -4.459670   -2.500403    2.143815    0.000000    1.000000
   110  Na    c     6.678570    7.037313    4.492086    0.000000    1.000000
   111  Na    c    -2.170782    7.037313    4.492086    0.000000    1.000000
   112  Na    c     6.875806   -1.943680   -4.492935    0.000000    1.000000
   113  Na    c    -2.368019   -1.943680   -4.492935    0.000000    1.000000
   114  Cl    c     4.556043    9.056455   -0.013887    0.000000    1.485000
   115  Cl    c    -0.048256    9.056455   -0.013887    0.000000    1.485000
   116  Na    c     4.510594    2.281628   -6.643567    0.000000    1.000000
   117  Na    c    -0.002807    2.281628   -6.643567    0.000000    1.000000
   118  O     c     2.253894    6.740581    6.753385    0.000000    0.183000
   119  Na    c     6.844885    4.507815    6.464130    0.000000    1.000000
   120  Na    c    -2.337098    4.507815    6.464130    0.000000    1.000000
   121  Na    c     6.725868   -4.489178   -2.558293    0.000000    1.000000
   122  Na    c    -2.218081   -4.489178   -2.558293    0.000000    1.000000
   123  Na    c     2.253894    8.996213   -2.605247    0.000000    1.000000
   124  Na    c     2.253894    4.493286   -7.093440    0.000000    1.000000
   125  Na    c     2.253894    1.957965    8.967379    0.000000    1.000000
   126  Na    c     2.253894   -7.148745   -0.015803    0.000000    1.000000
   127  Cl    c     4.517432   -4.518222   -4.556748    0.000000    1.485000
   128  Cl    c    -0.009645   -4.518222   -4.556748    0.000000    1.485000
   129  Cl    c     9.054953    4.511396    4.510082    0.000000    1.485000
   130  Cl    c    -4.547165    4.511396    4.510082    0.000000    1.485000
   131  Na    c     4.511478    6.652108    6.744842    0.000000    1.000000
   132  Na    c    -0.003691    6.652108    6.744842    0.000000    1.000000
   133  Na    c     9.012424   -2.316397   -2.064216    0.000000    1.000000
   134  Na    c    -4.504637   -2.316397   -2.064216    0.000000    1.000000
   135  O     c     2.253894   -6.812153    2.218116    0.000000    0.183000
   136  O     c     6.766118   -2.240924    6.765081    0.000000    0.183000
   137  O     c    -2.258331   -2.240924    6.765081    0.000000    0.183000
   138  Na    c     2.253894   -4.494490    6.920936    0.000000    1.000000
   139  O     c     2.253894   -2.262367   -6.711983    0.000000    0.183000
   140  Cl    c     4.509612   -0.010017    9.096834    0.000000    1.485000
   141  Cl    c    -0.001825   -0.010017    9.096834    0.000000    1.485000
   142  Na    c     4.498542   -6.850409    2.166218    0.000000    1.000000
   143  Na    c     0.009246   -6.850409    2.166218    0.000000    1.000000
   144  Cl    c     4.511003    9.074628    4.508841    0.000000    1.485000
   145  Cl    c    -0.003215    9.074628    4.508841    0.000000    1.485000
   146  Cl    c     9.059426    0.004786   -4.560630    0.000000    1.485000
   147  Cl    c    -4.551639    0.004786   -4.560630    0.000000    1.485000
   148  Na    c     4.510504   -2.255353   -6.635876    0.000000    1.000000
   149  Na    c    -0.002717   -2.255353   -6.635876    0.000000    1.000000
   150  Na    c     9.001437    6.510219    2.360735    0.000000    1.000000
   151  Na    c    -4.493650    6.510219    2.360735    0.000000    1.000000
   152  O     c     2.253894   -6.755715   -2.238123    0.000000    0.183000
   153  Na    c     6.725384    7.048628   -4.502751    0.000000    1.000000
   154  Na    c    -2.217596    7.048628   -4.502751    0.000000    1.000000
   155  O     c    -2.256113    2.240047   -6.750545    0.000000    0.183000
   156  O     c     6.763900    2.240047   -6.750545    0.000000    0.183000
   157  Na    c     6.894050    8.982948    2.016815    0.000000    1.000000
   158  Na    c    -2.386263    8.982948    2.016815    0.000000    1.000000
   159  Na    c    -2.205663    0.006585   -7.055808    0.000000    1.000000
   160  Na    c     6.713451    0.006585   -7.055808    0.000000    1.000000
   161  Na    c     2.253894   -2.063377    8.972928    0.000000    1.000000
   162  Na    c     2.253894   -6.525077    4.493688    0.000000    1.000000
   163  Cl    c     4.529287    4.550268    9.048603    0.000000    1.485000
   164  Cl    c    -0.021500    4.550268    9.048603    0.000000    1.485000
   165  Na    c     4.511100   -6.690545   -2.181363    0.000000    1.000000
   166  Na    c    -0.003313   -6.690545   -2.181363    0.000000    1.000000
   167  Na    c     9.015281    2.101995    6.780494    0.000000    1.000000
   168  Na    c    -4.507494    2.101995    6.780494    0.000000    1.000000
   169  Cl    c     9.081262   -4.514948   -0.020139    0.000000    1.485000
   170  Cl    c    -4.573475   -4.514948   -0.020139    0.000000    1.485000
   171  Na    c    11.300837    1.906545    0.008891    0.000000    1.000000
   172  Na    c    -6.793050    1.906545    0.008891    0.000000    1.000000
   173  Cl    c     9.046807    4.532056   -4.528983    0.000000    1.485000
   174  Cl    c    -4.539020    4.532056   -4.528983    0.000000    1.485000
   175  Na    c     9.024229    6.655154   -2.334394    0.000000    1.000000
   176  Na    c    -4.516442    6.655154   -2.334394    0.000000    1.000000
   177  O     c     6.772376    6.775206    6.738565    0.000000    0.183000
   178  O     c    -2.264589    6.775206    6.738565    0.000000    0.183000
   179  O     c    11.243656    2.247827    2.245787    0.000000    0.183000
   180  O     c    -6.735869    2.247827    2.245787    0.000000    0.183000
   181  Na    c    11.019228    0.004122    2.511631    0.000000    1.000000
   182  Na    c    -6.511441    0.004122    2.511631    0.000000    1.000000
   183  O     c     2.253894    6.723482   -6.763301    0.000000    0.183000
   184  Na    c     6.804739    4.509250   -6.554254    0.000000    1.000000
   185  Na    c    -2.296952    4.509250   -6.554254    0.000000    1.000000
   186  Na    c     6.824323    9.003586   -2.041302    0.000000    1.000000
   187  Na    c    -2.316536    9.003586   -2.041302    0.000000    1.000000
   188  Na    c     6.754404    2.505501    9.000647    0.000000    1.000000
   189  Na    c    -2.246616    2.505501    9.000647    0.000000    1.000000
   190  Na    c    -2.307126   -6.500816   -0.004476    0.000000    1.000000
   191  Na    c     6.814913   -6.500816   -0.004476    0.000000    1.000000
   192  O     c    -2.232890   -6.714988    2.261390    0.000000    0.183000
   193  O     c     6.740677   -6.714988    2.261390    0.000000    0.183000
   194  Cl    c     4.501636    9.061853   -4.545120    0.000000    1.485000
   195  Cl    c     0.006151    9.061853   -4.545120    0.000000    1.485000
   196  Na    c     4.506200    6.706111   -6.741957    0.000000    1.000000
   197  Na    c     0.001587    6.706111   -6.741957    0.000000    1.000000
   198  Na    c     6.805710   -4.501939    6.575085    0.000000    1.000000
   199  Na    c    -2.297922   -4.501939    6.575085    0.000000    1.000000
   200  O     c     6.762090   -2.227801   -6.756417    0.000000    0.183000
   201  O     c    -2.254303   -2.227801   -6.756417    0.000000    0.183000
   202  O     c    11.268328    2.246335   -2.233500    0.000000    0.183000
   203  O     c    -6.760541    2.246335   -2.233500    0.000000    0.183000
   204  Na    c     2.253894    8.997985    6.571246    0.000000    1.000000
   205  Na    c    11.420824    4.486037    1.968310    0.000000    1.000000
   206  Na    c    -6.913037    4.486037    1.968310    0.000000    1.000000
   207  Na    c     2.253894   -4.493010   -7.001748    0.000000    1.000000
   208  Na    c    11.180492    0.000364   -2.530274    0.000000    1.000000
   209  Na    c    -6.672705    0.000364   -2.530274    0.000000    1.000000
   210  Na    c     9.011195   -2.153761    6.829801    0.000000    1.000000
   211  Na    c    -4.503408   -2.153761    6.829801    0.000000    1.000000
   212  Cl    c     9.058151   -4.510266    4.489988    0.000000    1.485000
   213  Cl    c    -4.550364   -4.510266    4.489988    0.000000    1.485000
   214  Na    c     2.253894    6.936401    8.994787    0.000000    1.000000
   215  Na    c     2.253894   -6.529138   -4.497047    0.000000    1.000000
   216  Na    c    11.221048    2.491346    4.499756    0.000000    1.000000
   217  Na    c    -6.713260    2.491346    4.499756    0.000000    1.000000
   218  Na    c    11.336723   -2.017783    0.011429    0.000000    1.000000
   219  Na    c    -6.828936   -2.017783    0.011429    0.000000    1.000000
   220  O     c    -2.261282   -6.740562   -2.277110    0.000000    0.183000
   221  O     c     6.769069   -6.740562   -2.277110    0.000000    0.183000
   222  O     c    11.235537   -2.241843    2.262149    0.000000    0.183000
   223  O     c    -6.727750   -2.241843    2.262149    0.000000    0.183000
   224  Na    c     2.253894    2.057573   -8.991449    0.000000    1.000000
   225  Na    c     2.253894   11.145735   -0.000646    0.000000    1.000000
   226  O     c     2.253894   11.262646    2.276483    0.000000    0.183000
   227  Na    c    11.357987    4.501233   -1.997561    0.000000    1.000000
   228  Na    c    -6.850199    4.501233   -1.997561    0.000000    1.000000
   229  Na    c     6.720067   -2.448345    9.004289    0.000000    1.000000
   230  Na    c    -2.212280   -2.448345    9.004289    0.000000    1.000000
   231  Na    c    -2.206581   -6.900739    4.502399    0.000000    1.000000
   232  Na    c     6.714368   -6.900739    4.502399    0.000000    1.000000
   233  O     c     2.253894   -6.751499    6.771687    0.000000    0.183000
   234  Cl    c     4.483602   -0.003322   -9.059289    0.000000    1.485000
   235  Cl    c     0.024185   -0.003322   -9.059289    0.000000    1.485000
   236  Cl    c     9.045424    9.070858   -0.024602    0.000000    1.485000
   237  Cl    c    -4.537637    9.070858   -0.024602    0.000000    1.485000
   238  Na    c     4.516229   11.201134    2.248493    0.000000    1.000000
   239  Na    c    -0.008442   11.201134    2.248493    0.000000    1.000000
   240  Na    c     9.017832    2.204673   -6.798282    0.000000    1.000000
   241  Na    c    -4.510045    2.204673   -6.798282    0.000000    1.000000
   242  O     c    11.266767   -2.242581   -2.248673    0.000000    0.183000
   243  O     c    -6.758980   -2.242581   -2.248673    0.000000    0.183000
   244  O     c     2.253894   11.247605   -2.282528    0.000000    0.183000
   245  O     c     6.758782    6.779380   -6.746353    0.000000    0.183000
   246  O     c    -2.250995    6.779380   -6.746353    0.000000    0.183000
   247  Cl    c     4.517956   -4.527300    9.046388    0.000000    1.485000
   248  Cl    c    -0.010168   -4.527300    9.046388    0.000000    1.485000
   249  Na    c     4.511247   -6.696405    6.757806    0.000000    1.000000
   250  Na    c    -0.003460   -6.696405    6.757806    0.000000    1.000000
   251  Na    c    11.153251   -2.403179    4.509546    0.000000    1.000000
   252  Na    c    -6.645464   -2.403179    4.509546    0.000000    1.000000
   253  Na    c     9.015684    6.833634    6.702131    0.000000    1.000000
   254  Na    c    -4.507896    6.833634    6.702131    0.000000    1.000000
   255  Cl    c     9.041774   -4.519579   -4.532495    0.000000    1.485000
[...]
    236 y          4.507787      4.586034     0.078247    Cartesian    1.74
    236 z          4.507787      4.661351     0.153564    Cartesian    3.41
    237 x          2.253894      2.253894     0.000000    Cartesian    0.00
    237 y          6.761681      6.825017     0.063336    Cartesian    0.94
    237 z          2.253894      2.214377    -0.039516    Cartesian   -1.75
    238 x         -2.253894     -2.258755    -0.004861    Cartesian    0.22
    238 y          2.253894      2.265736     0.011842    Cartesian    0.53
    238 z         -2.253894     -2.242942     0.010952    Cartesian   -0.49
    239 x          4.507787      4.526674     0.018887    Cartesian    0.42
    239 y         -0.000000      0.004136     0.004136    Cartesian *******
    239 z         -4.507787     -4.512987    -0.005200    Cartesian    0.12
    240 x         -2.253894     -2.198857     0.055037    Cartesian   -2.44
    240 y         -2.253894     -2.221349     0.032545    Cartesian   -1.44
    240 z          2.253894      2.238973    -0.014920    Cartesian   -0.66
    241 x          2.253894      2.253894     0.000000    Cartesian    0.00
    241 y          2.253894      2.252672    -0.001222    Cartesian   -0.05
    241 z          6.761681      6.708910    -0.052771    Cartesian   -0.78
    242 x          2.253894      2.253894     0.000000    Cartesian    0.00
    242 y          6.761681      6.763643     0.001963    Cartesian    0.03
    242 z         -2.253894     -2.239497     0.014396    Cartesian   -0.64
    243 x          4.507787      4.576476     0.068689    Cartesian    1.52
    243 y         -4.507787     -4.648863    -0.141075    Cartesian    3.13
    243 z          0.000000     -0.093236    -0.093236    Cartesian    0.00
    244 x          4.507787      4.511538     0.003751    Cartesian    0.08
    244 y          4.507787      4.509948     0.002161    Cartesian    0.05
    244 z         -4.507787     -4.556993    -0.049206    Cartesian    1.09
    245 x         -2.253894     -2.259267    -0.005373    Cartesian    0.24
    245 y         -2.253894     -2.245992     0.007902    Cartesian   -0.35
    245 z         -2.253894     -2.239060     0.014834    Cartesian   -0.66
    246 x          9.015574      9.092300     0.076725    Cartesian    0.85
    246 y         -0.000000     -0.017150    -0.017150    Cartesian *******
    246 z          0.000000     -0.028452    -0.028452    Cartesian    0.00
    247 x          2.253894      2.253894     0.000000    Cartesian    0.00
    247 y         -2.253894     -2.252659     0.001235    Cartesian   -0.05
    247 z          6.761681      6.694017    -0.067664    Cartesian   -1.00
    248 x         -2.253894     -2.241467     0.012427    Cartesian   -0.55
    248 y          6.761681      6.722839    -0.038842    Cartesian   -0.57
    248 z          2.253894      2.254037     0.000143    Cartesian    0.01
    249 x          4.507787      4.541117     0.033330    Cartesian    0.74
    249 y         -4.507787     -4.607912    -0.100124    Cartesian    2.22
    249 z          4.507787      4.660591     0.152804    Cartesian    3.39
    250 x          9.015574      9.073339     0.057765    Cartesian    0.64
    250 y          4.507787      4.514185     0.006398    Cartesian    0.14
    250 z          0.000000     -0.003268    -0.003268    Cartesian    0.00
    251 x         -2.253894     -2.265893    -0.012000    Cartesian    0.53
    251 y          2.253894      2.255448     0.001555    Cartesian    0.07
    251 z          6.761681      6.758058    -0.003623    Cartesian   -0.05
    252 x         -2.253894     -2.270914    -0.017020    Cartesian    0.76
    252 y          6.761681      6.749601    -0.012080    Cartesian   -0.18
    252 z         -2.253894     -2.273931    -0.020038    Cartesian    0.89
    253 x          2.253894      2.253894     0.000000    Cartesian    0.00
    253 y          2.253894      2.269781     0.015888    Cartesian    0.70
    253 z         -6.761681     -6.724472     0.037209    Cartesian   -0.55
    254 x          9.015574      9.047544     0.031970    Cartesian    0.35
    254 y         -0.000000     -0.001183    -0.001183    Cartesian *******
    254 z          4.507787      4.563875     0.056087    Cartesian    1.24
    255 x          4.507787      4.554864     0.047077    Cartesian    1.04
    255 y          9.015574      9.054036     0.038462    Cartesian    0.43
    255 z          0.000000     -0.013305    -0.013305    Cartesian    0.00
    256 x          2.253894      2.253894     0.000000    Cartesian    0.00
    256 y          6.761681      6.740541    -0.021140    Cartesian   -0.31
    256 z          6.761681      6.753457    -0.008224    Cartesian   -0.12
    257 x          4.507787      4.514759     0.006972    Cartesian    0.15
    257 y         -4.507787     -4.515909    -0.008121    Cartesian    0.18
    257 z         -4.507787     -4.560466    -0.052679    Cartesian    1.17
    258 x          9.015574      9.060210     0.044635    Cartesian    0.50
    258 y          4.507787      4.513578     0.005790    Cartesian    0.13
    258 z          4.507787      4.507810     0.000023    Cartesian    0.00
    259 x          2.253894      2.253894     0.000000    Cartesian    0.00
    259 y         -6.761681     -6.812233    -0.050552    Cartesian    0.75
    259 z          2.253894      2.218051    -0.035843    Cartesian   -1.59
    260 x          6.761681      6.766116     0.004436    Cartesian    0.07
    260 y         -2.253894     -2.240908     0.012985    Cartesian   -0.58
    260 z          6.761681      6.765132     0.003452    Cartesian    0.05
    261 x          2.253894      2.253894     0.000000    Cartesian    0.00
    261 y         -2.253894     -2.262441    -0.008547    Cartesian    0.38
    261 z         -6.761681     -6.711970     0.049711    Cartesian   -0.74
    262 x          4.507787      4.511269     0.003482    Cartesian    0.08
    262 y         -0.000000     -0.009406    -0.009406    Cartesian *******
    262 z          9.015574      9.103578     0.088004    Cartesian    0.98
    263 x          4.507787      4.508730     0.000942    Cartesian    0.02
    263 y          9.015574      9.078402     0.062828    Cartesian    0.70
    263 z          4.507787      4.505493    -0.002294    Cartesian   -0.05
    264 x          9.015574      9.057448     0.041874    Cartesian    0.46
    264 y         -0.000000      0.004240     0.004240    Cartesian *******
    264 z         -4.507787     -4.562672    -0.054885    Cartesian    1.22
    265 x          2.253894      2.253894     0.000000    Cartesian    0.00
    265 y         -6.761681     -6.755780     0.005901    Cartesian   -0.09
    265 z         -2.253894     -2.238070     0.015824    Cartesian   -0.70
    266 x         -2.253894     -2.256119    -0.002226    Cartesian    0.10
    266 y          2.253894      2.240002    -0.013892    Cartesian   -0.62
    266 z         -6.761681     -6.750581     0.011100    Cartesian   -0.16
    267 x          4.507787      4.532496     0.024709    Cartesian    0.55
    267 y          4.507787      4.554593     0.046805    Cartesian    1.04
    267 z          9.015574      9.051503     0.035929    Cartesian    0.40
    268 x          9.015574      9.084443     0.068868    Cartesian    0.76
    268 y         -4.507787     -4.512968    -0.005180    Cartesian    0.11
    268 z          0.000000     -0.020065    -0.020065    Cartesian    0.00
    269 x          9.015574      9.048335     0.032761    Cartesian    0.36
    269 y          4.507787      4.534845     0.027057    Cartesian    0.60
    269 z         -4.507787     -4.531235    -0.023448    Cartesian    0.52
    270 x          6.761681      6.772389     0.010708    Cartesian    0.16
    270 y          6.761681      6.775258     0.013577    Cartesian    0.20
    270 z          6.761681      6.738548    -0.023133    Cartesian   -0.34
    271 x         11.269468     11.243679    -0.025789    Cartesian   -0.23
    271 y          2.253894      2.247845    -0.006049    Cartesian   -0.27
    271 z          2.253894      2.245783    -0.008111    Cartesian   -0.36
    272 x          2.253894      2.253894     0.000000    Cartesian    0.00
    272 y          6.761681      6.723440    -0.038241    Cartesian   -0.57
    272 z         -6.761681     -6.763368    -0.001687    Cartesian    0.02
    273 x         -2.253894     -2.232845     0.021048    Cartesian   -0.93
    273 y         -6.761681     -6.715018     0.046662    Cartesian   -0.69
    273 z          2.253894      2.261440     0.007546    Cartesian    0.33
    274 x          4.507787      4.498257    -0.009530    Cartesian   -0.21
    274 y          9.015574      9.064125     0.048551    Cartesian    0.54
    274 z         -4.507787     -4.546517    -0.038730    Cartesian    0.86
    275 x          6.761681      6.762098     0.000417    Cartesian    0.01
    275 y         -2.253894     -2.227763     0.026131    Cartesian   -1.16
    275 z         -6.761681     -6.756460     0.005220    Cartesian   -0.08
    276 x         11.269468     11.268339    -0.001129    Cartesian   -0.01
    276 y          2.253894      2.246326    -0.007568    Cartesian   -0.34
    276 z         -2.253894     -2.233504     0.020389    Cartesian   -0.90
    277 x          9.015574      9.065388     0.049813    Cartesian    0.55
    277 y         -4.507787     -4.508812    -0.001024    Cartesian    0.02
    277 z          4.507787      4.487850    -0.019937    Cartesian   -0.44
    278 x         -2.253894     -2.261290    -0.007397    Cartesian    0.33
    278 y         -6.761681     -6.740565     0.021116    Cartesian   -0.31
    278 z         -2.253894     -2.277167    -0.023273    Cartesian    1.03
    279 x         11.269468     11.235549    -0.033919    Cartesian   -0.30
    279 y         -2.253894     -2.241874     0.012020    Cartesian   -0.53
    279 z          2.253894      2.262175     0.008282    Cartesian    0.37
    280 x          2.253894      2.253894     0.000000    Cartesian    0.00
    280 y         11.269468     11.262637    -0.006831    Cartesian   -0.06
    280 z          2.253894      2.276577     0.022684    Cartesian    1.01
    281 x          2.253894      2.253894     0.000000    Cartesian    0.00
    281 y         -6.761681     -6.751450     0.010230    Cartesian   -0.15
    281 z          6.761681      6.771760     0.010079    Cartesian    0.15
    282 x          4.507787      4.481258    -0.026529    Cartesian   -0.59
    282 y         -0.000000     -0.003332    -0.003332    Cartesian *******
    282 z         -9.015574     -9.062679    -0.047105    Cartesian    0.52
    283 x          9.015574      9.044115     0.028540    Cartesian    0.32
    283 y          9.015574      9.074728     0.059154    Cartesian    0.66
    283 z          0.000000     -0.025886    -0.025886    Cartesian    0.00
    284 x         11.269468     11.266762    -0.002706    Cartesian   -0.02
    284 y         -2.253894     -2.242593     0.011300    Cartesian   -0.50
    284 z         -2.253894     -2.248690     0.005204    Cartesian   -0.23
    285 x          2.253894      2.253894     0.000000    Cartesian    0.00
    285 y         11.269468     11.247599    -0.021869    Cartesian   -0.19
    285 z         -2.253894     -2.282618    -0.028724    Cartesian    1.27
    286 x          6.761681      6.758781    -0.002900    Cartesian   -0.04
    286 y          6.761681      6.779447     0.017766    Cartesian    0.26
    286 z         -6.761681     -6.746324     0.015357    Cartesian   -0.23
    287 x          4.507787      4.520765     0.012978    Cartesian    0.29
    287 y         -4.507787     -4.527875    -0.020088    Cartesian    0.45
    287 z          9.015574      9.048777     0.033203    Cartesian    0.37
    288 x          9.015574      9.042215     0.026640    Cartesian    0.30
    288 y         -4.507787     -4.519656    -0.011869    Cartesian    0.26
    288 z         -4.507787     -4.535311    -0.027524    Cartesian    0.61
    289 x          2.253894      2.253894     0.000000    Cartesian    0.00
    289 y          2.253894      2.228328    -0.025566    Cartesian   -1.13
    289 z         11.269468     11.245473    -0.023995    Cartesian   -0.21
    290 x          4.507787      4.522227     0.014440    Cartesian    0.32
    290 y          4.507787      4.517871     0.010084    Cartesian    0.22
    290 z         -9.015574     -9.051797    -0.036223    Cartesian    0.40
    291 x         11.269468     11.264631    -0.004837    Cartesian   -0.04
    291 y          6.761681      6.731355    -0.030326    Cartesian   -0.45
    291 z          2.253894      2.248137    -0.005756    Cartesian   -0.26
    292 x          9.015574      9.047146     0.031572    Cartesian    0.35
    292 y         -0.000000      0.001918     0.001918    Cartesian *******
    292 z          9.015574      9.017266     0.001692    Cartesian    0.02
    293 x          4.507787      4.544782     0.036994    Cartesian    0.82
    293 y         -9.015574     -9.045246    -0.029672    Cartesian    0.33
    293 z          0.000000     -0.015821    -0.015821    Cartesian    0.00
    294 x          9.015574      9.027727     0.012153    Cartesian    0.13
    294 y          9.015574      9.043006     0.027431    Cartesian    0.30
    294 z          4.507787      4.495910    -0.011877    Cartesian   -0.26
    295 x         11.269468     11.271512     0.002044    Cartesian    0.02
    295 y          2.253894      2.262758     0.008865    Cartesian    0.39
    295 z          6.761681      6.756347    -0.005333    Cartesian   -0.08
    296 x         -2.253894     -2.265558    -0.011664    Cartesian    0.52
    296 y         11.269468     11.254534    -0.014934    Cartesian   -0.13
    296 z          2.253894      2.227032    -0.026861    Cartesian   -1.19
    297 x         11.269468     11.273647     0.004179    Cartesian    0.04
    297 y          6.761681      6.759910    -0.001771    Cartesian   -0.03
    297 z         -2.253894     -2.232972     0.020922    Cartesian   -0.93
    298 x          9.015574      9.071686     0.056112    Cartesian    0.62
    298 y          4.507787      4.526206     0.018419    Cartesian    0.41
    298 z          9.015574      9.056953     0.041379    Cartesian    0.46
    299 x          6.761681      6.774133     0.012452    Cartesian    0.18
    299 y         -6.761681     -6.774238    -0.012557    Cartesian    0.19
    299 z          6.761681      6.751337    -0.010344    Cartesian   -0.15
    300 x          2.253894      2.253894     0.000000    Cartesian    0.00
    300 y         -2.253894     -2.245399     0.008494    Cartesian   -0.38
    300 z         11.269468     11.264265    -0.005203    Cartesian   -0.05
    301 x          2.253894      2.253894     0.000000    Cartesian    0.00
    301 y         -6.761681     -6.736024     0.025657    Cartesian   -0.38
    301 z         -6.761681     -6.769802    -0.008121    Cartesian    0.12
    302 x         -2.253894     -2.258439    -0.004545    Cartesian    0.20
    302 y         11.269468     11.273209     0.003741    Cartesian    0.03
    302 z         -2.253894     -2.245325     0.008569    Cartesian   -0.38
    303 x          4.507787      4.521644     0.013857    Cartesian    0.31
    303 y         -9.015574     -9.084214    -0.068640    Cartesian    0.76
    303 z          4.507787      4.484150    -0.023637    Cartesian   -0.52
    304 x          4.507787      4.521092     0.013305    Cartesian    0.30
    304 y          9.015574      9.061052     0.045477    Cartesian    0.50
    304 z          9.015574      9.034627     0.019052    Cartesian    0.21
    305 x         13.523362     13.591571     0.068209    Cartesian    0.50
    305 y         -0.000000     -0.002087    -0.002087    Cartesian *******
    305 z          0.000000      0.014555     0.014555    Cartesian    0.00
    306 x         11.269468     11.274436     0.004968    Cartesian    0.04
    306 y         -2.253894     -2.255998    -0.002104    Cartesian    0.09
    306 z          6.761681      6.757791    -0.003890    Cartesian   -0.06
    307 x          6.761681      6.764316     0.002635    Cartesian    0.04
    307 y          2.253894      2.280165     0.026271    Cartesian    1.17
    307 z         11.269468     11.260734    -0.008734    Cartesian   -0.08
    308 x          9.015574      9.021283     0.005709    Cartesian    0.06
    308 y          9.015574      9.028012     0.012438    Cartesian    0.14
    308 z         -4.507787     -4.538078    -0.030291    Cartesian    0.67
    309 x          2.253894      2.253894     0.000000    Cartesian    0.00
    309 y         11.269468     11.277561     0.008093    Cartesian    0.07
    309 z          6.761681      6.747093    -0.014588    Cartesian   -0.22
    310 x         13.523362     13.569674     0.046312    Cartesian    0.34
    310 y          4.507787      4.531431     0.023644    Cartesian    0.52
    310 z          0.000000     -0.009745    -0.009745    Cartesian    0.00
    311 x          4.507787      4.491400    -0.016387    Cartesian   -0.36
    311 y         -4.507787     -4.521741    -0.013954    Cartesian    0.31
    311 z         -9.015574     -9.057815    -0.042241    Cartesian    0.47
    312 x          2.253894      2.253894     0.000000    Cartesian    0.00
    312 y          6.761681      6.774946     0.013265    Cartesian    0.20
    312 z         11.269468     11.249041    -0.020427    Cartesian   -0.18
    313 x         11.269468     11.273963     0.004495    Cartesian    0.04
    313 y          2.253894      2.268577     0.014683    Cartesian    0.65
    313 z         -6.761681     -6.752000     0.009681    Cartesian   -0.14
    314 x         13.523362     13.605370     0.082008    Cartesian    0.61
    314 y         -0.000000      0.001866     0.001866    Cartesian *******
    314 z          4.507787      4.498889    -0.008898    Cartesian   -0.20
    315 x          4.507787      4.525414     0.017627    Cartesian    0.39
    315 y         -9.015574     -9.067364    -0.051790    Cartesian    0.57
    315 z         -4.507787     -4.536791    -0.029004    Cartesian    0.64
    316 x          6.761681      6.767155     0.005474    Cartesian    0.08
    316 y         -2.253894     -2.266659    -0.012765    Cartesian    0.57
    316 z         11.269468     11.258941    -0.010527    Cartesian   -0.09
--------------------------------------------------------------------------------


  Time to end of optimisation  =      151.6642 seconds


  Peak dynamic memory used =      92.34 MB 


  Timing analysis for GULP :

--------------------------------------------------------------------------------
  Task / Subroutine                                          Time (Seconds)
--------------------------------------------------------------------------------
  Calculation of reciprocal space energy and derivatives          0.0007
  Calculation of reciprocal space energy using symmetry           0.0010
  Calculation of real space energy and derivatives                0.0039
  Calculation of real space energy using symmetry                 0.0094
  Calculation for region 1 energy and derivatives (2-b)          88.8139
  Calculation for region 2a energy                               56.1109
  Calculation for region 2b energy                                0.0273
  Calculation and manipulation of Hessian matrix                  0.2225
  Calculation of matrix inversion                                 5.8981
  Symmetry generation of equivalent positions                     0.0049
--------------------------------------------------------------------------------
  Total CPU time                                                151.6644
--------------------------------------------------------------------------------


  Dump file written as Na3OCl.grs


  Job Finished at 16:37.03 26th November   2020                               

