********************************************************************************
*                       GENERAL UTILITY LATTICE PROGRAM                        *
*                                 Julian Gale                                  *
*                       Curtin Institute for Computation                       *
*                    School of Molecular and Life Sciences                     *
*                    Curtin University, Western Australia                      *
********************************************************************************
* Version = 5.2.0 * Last modified =  10th September 2020                       *
********************************************************************************
*  optimise     - perform optimisation run                                     *
*  conp         - constant pressure calculation                                *
*  property     - calculate properties for final geometry                      *
*  defect       - perform defect calculation after bulk run                    *
*  compare      - compare initial and final structures                         *
********************************************************************************

  Job Started  at 16:35.40 26th November   2020                               

  Number of CPUs =     1


  Total number of configurations input =      1

********************************************************************************
*  Input for Configuration =   1                                               *
********************************************************************************

  Formula = ClONa3                                                      

  Number of irreducible atoms/shells =       5


  Total number atoms/shells =       7

  Dimensionality = 3               :  Bulk   


  Symmetry :

  Crystal family                   :  Cubic       
  Crystal class  (Groth - 1921)    :  Cubic Hexakisoctahedral              

  Space group (centrosymmetric)    :  P M 3 M         

  Patterson group                  :  P m -3 m 

  Cartesian lattice vectors (Angstroms) :

        4.504000    0.000000    0.000000
        0.000000    4.504000    0.000000
        0.000000    0.000000    4.504000

  Cell parameters (Angstroms/Degrees):

  a =       4.5040    alpha =  90.0000
  b =       4.5040    beta  =  90.0000
  c =       4.5040    gamma =  90.0000

  Initial cell volume =          91.368216 Angs**3

  Temperature of configuration =   0.00     K 

  Pressure of configuration =         0.000 GPa 

  Fractional coordinates of asymmetric unit :

--------------------------------------------------------------------------------
   No.  Atomic       x           y          z         Charge      Occupancy
        Label      (Frac)      (Frac)     (Frac)        (e)         (Frac)  
--------------------------------------------------------------------------------
      1 Cl    c    0.000000    0.000000    0.000000     1.48500    1.000000    
      2 O     c    0.500000    0.500000    0.500000     0.18300    1.000000    
      3 Na    c    0.500000    0.500000    0.000000     1.00000    1.000000    
      4 Cl    s    0.000000    0.000000    0.000000    -2.48500    1.000000    
      5 O     s    0.500000    0.500000    0.500000    -2.18300    1.000000    
--------------------------------------------------------------------------------


  Constraints : 

--------------------------------------------------------------------------------
  Constraint no.      Unconstrained     Constrained    Coefficient    Offset
                         Variable         Variable
--------------------------------------------------------------------------------
           1              Strain 1        Strain 2       1.00000      0.0000
           2              Strain 1        Strain 3       1.00000      0.0000
--------------------------------------------------------------------------------


********************************************************************************
*  General input information                                                   *
********************************************************************************

  Species output for all configurations : 

--------------------------------------------------------------------------------
  Species    Type    Atomic    Atomic    Charge       Radii (Angs)     Library
                     Number     Mass       (e)     Cova   Ionic  VDW   Symbol
--------------------------------------------------------------------------------
    Na       Core       11      22.99   1.000000   0.970  0.000  2.300          
    O        Core        8      16.00   0.183000   0.730  0.000  1.360          
    O        Shell       8       0.00  -2.183000   0.730  0.000  1.360          
    Cl       Core       17      35.45   1.485000   0.990  0.000  1.650          
    Cl       Shell      17       0.00  -2.485000   0.990  0.000  1.650          
--------------------------------------------------------------------------------


  Lattice summation method               =    Ewald          (3-D)
                                         =    Parry          (2-D)
                                         =    Saunders et al (1-D)
  Accuracy factor for lattice sums       =   12.000


  Analytic derivatives to be used

  Time limit = Infinity

  Maximum range for interatomic potentials =    100000.000000 Angstroms

  General interatomic potentials :

--------------------------------------------------------------------------------
Atom  Types   Potential      Parameter       Value         Units   Cutoffs(Ang)
  1     2                                                            Min /  Max 
--------------------------------------------------------------------------------
O    c O    s Spring (c-s)  Spring k 2       593.72000    eV*Ang^-2 0.000  0.800
                            Spring k 4       0.0000000    eV*Ang^-4 
--------------------------------------------------------------------------------
Cl   c Cl   s Spring (c-s)  Spring k 2       29.380000    eV*Ang^-2 0.000  0.800
                            Spring k 4       0.0000000    eV*Ang^-4 
--------------------------------------------------------------------------------
Na   c Na   c Buckingham    Buckingham A     1788.1900    eV        0.000 12.000
                            Buckingham rho  0.15900000    Ang       
                            Buckingham C     0.0000000    eV*Ang^6  
--------------------------------------------------------------------------------
Na   c O    s Buckingham    Buckingham A     1226.8400    eV        0.000 12.000
                            Buckingham rho  0.30700000    Ang       
                            Buckingham C     0.0000000    eV*Ang^6  
--------------------------------------------------------------------------------
Na   c Cl   s Buckingham    Buckingham A     2314.7000    eV        0.000 12.000
                            Buckingham rho  0.29000000    Ang       
                            Buckingham C     0.0000000    eV*Ang^6  
--------------------------------------------------------------------------------
O    s O    s Buckingham    Buckingham A     22764.300    eV        0.000 12.000
                            Buckingham rho  0.14900000    Ang       
                            Buckingham C     13.190000    eV*Ang^6  
--------------------------------------------------------------------------------
O    s Cl   s Buckingham    Buckingham A     8286.9100    eV        0.000 12.000
                            Buckingham rho  0.25900000    Ang       
                            Buckingham C     62.200000    eV*Ang^6  
--------------------------------------------------------------------------------
Cl   s Cl   s Buckingham    Buckingham A     1227.2000    eV        0.000 12.000
                            Buckingham rho  0.32100000    Ang       
                            Buckingham C     14.530000    eV*Ang^6  
--------------------------------------------------------------------------------

********************************************************************************
*  Output for configuration   1                                                *
********************************************************************************


  Components of energy : 

--------------------------------------------------------------------------------
  Interatomic potentials     =           5.13022605 eV    
  Monopole - monopole (real) =         -10.03624526 eV    
  Monopole - monopole (recip)=         -29.53581274 eV    
  Monopole - monopole (total)=         -39.57205800 eV    
--------------------------------------------------------------------------------
  Total lattice energy       =         -34.44183194 eV    
--------------------------------------------------------------------------------
  Total lattice energy       =           -3323.1103 kJ/(mole unit cells)
--------------------------------------------------------------------------------


  Number of variables =        1

  Maximum number of calculations  =          1000
  Maximum Hessian update interval =            10
  Maximum step size               =   1.000000000
  Maximum parameter tolerance     =   0.000010000
  Maximum function  tolerance     =   0.000010000
  Maximum gradient  tolerance     =   0.001000000
  Maximum gradient  component     =   0.010000000

  Symmetry constrained optimisation

  Symmetry used for second derivatives

  Cell parameters to be optimised using strains

  Newton-Raphson optimiser to be used

  BFGS hessian update to be used

  Lower half triangular hessian to be used

  Start of bulk optimisation :

  Cycle:      0 Energy:       -34.441832  Gnorm:      0.196570  CPU:    0.014
  ** Hessian calculated **
  Cycle:      1 Energy:       -34.441914  Gnorm:      0.000103  CPU:    0.018


  **** Optimisation achieved ****


  Final energy =     -34.44191447 eV
  Final Gnorm  =       0.00000000

  Components of energy : 

--------------------------------------------------------------------------------
  Interatomic potentials     =           5.09689708 eV    
  Monopole - monopole (real) =         -10.02781331 eV    
  Monopole - monopole (recip)=         -29.51099824 eV    
  Monopole - monopole (total)=         -39.53881155 eV    
--------------------------------------------------------------------------------
  Total lattice energy       =         -34.44191447 eV    
--------------------------------------------------------------------------------
  Total lattice energy       =           -3323.1183 kJ/(mole unit cells)
--------------------------------------------------------------------------------

  Final asymmetric unit coordinates :

--------------------------------------------------------------------------------
   No.  Atomic        x           y           z         Radius
        Label       (Frac)      (Frac)      (Frac)       (Angs) 
--------------------------------------------------------------------------------
     1  Cl    c     0.000000    0.000000    0.000000    0.000000
     2  O     c     0.500000    0.500000    0.500000    0.000000
     3  Na    c     0.500000    0.500000    0.000000    0.000000
     4  Cl    s     0.000000    0.000000    0.000000    0.000000
     5  O     s     0.500000    0.500000    0.500000    0.000000
--------------------------------------------------------------------------------

  Final Cartesian lattice vectors (Angstroms) :

        4.507787    0.000000    0.000000
        0.000000    4.507787    0.000000
        0.000000    0.000000    4.507787


  Final cell parameters and derivatives :

--------------------------------------------------------------------------------
       a            4.507787 Angstrom     dE/de1(xx)     0.000000 eV/strain
       b            4.507787 Angstrom     dE/de2(yy)     0.000000 eV/strain
       c            4.507787 Angstrom     dE/de3(zz)     0.000000 eV/strain
       alpha       90.000000 Degrees      dE/de4(yz)     0.000000 eV/strain
       beta        90.000000 Degrees      dE/de5(xz)     0.000000 eV/strain
       gamma       90.000000 Degrees      dE/de6(xy)     0.000000 eV/strain
--------------------------------------------------------------------------------

  Primitive cell volume =            91.598892 Angs**3

  Density of cell =      2.183054 g/cm**3

  Non-primitive cell volume =            91.598892 Angs**3


  Final internal derivatives :

--------------------------------------------------------------------------------
   No.  Atomic          a             b             c           Radius
        Label          (eV)          (eV)          (eV)        (eV/Angs)
--------------------------------------------------------------------------------
      1 Cl    c       0.000000      0.000000      0.000000      0.000000
      2 O     c       0.000000      0.000000      0.000000      0.000000
      3 Na    c       0.000000      0.000000      0.000000      0.000000
      4 Cl    s       0.000000      0.000000      0.000000      0.000000
      5 O     s       0.000000      0.000000      0.000000      0.000000
--------------------------------------------------------------------------------
  Maximum abs         0.000000      0.000000      0.000000      0.000000
--------------------------------------------------------------------------------

  Comparison of initial and final structures : 

--------------------------------------------------------------------------------
  Parameter   Initial value   Final value   Difference    Units      Percent
--------------------------------------------------------------------------------
    Volume        91.368216     91.598892     0.230676    Angs**3      0.25
    a              4.504000      4.507787     0.003787    Angstroms    0.08
    b              4.504000      4.507787     0.003787    Angstroms    0.08
    c              4.504000      4.507787     0.003787    Angstroms    0.08
    alpha         90.000000     90.000000     0.000000    Degrees      0.00
    beta          90.000000     90.000000     0.000000    Degrees      0.00
    gamma         90.000000     90.000000     0.000000    Degrees      0.00
      1 x          0.000000      0.000000     0.000000    Fractional   0.00
      1 y          0.000000      0.000000     0.000000    Fractional   0.00
      1 z          0.000000      0.000000     0.000000    Fractional   0.00
      2 x          0.500000      0.500000     0.000000    Fractional   0.00
      2 y          0.500000      0.500000     0.000000    Fractional   0.00
      2 z          0.500000      0.500000     0.000000    Fractional   0.00
      3 x          0.500000      0.500000     0.000000    Fractional   0.00
      3 y          0.500000      0.500000     0.000000    Fractional   0.00
      3 z          0.000000      0.000000     0.000000    Fractional   0.00
      4 x          0.000000      0.000000     0.000000    Fractional   0.00
      4 y          0.000000      0.000000     0.000000    Fractional   0.00
      4 z          0.000000      0.000000     0.000000    Fractional   0.00
      5 x          0.500000      0.500000     0.000000    Fractional   0.00
      5 y          0.500000      0.500000     0.000000    Fractional   0.00
      5 z          0.500000      0.500000     0.000000    Fractional   0.00
--------------------------------------------------------------------------------


  Born effective charge tensors : 

-------------------------------------------------------------------------------
  Atom             x           y             z
-------------------------------------------------------------------------------
    1 Cl    x      -1.0181     -0.0000      0.0000
            y      -0.0000     -1.0181      0.0000
            z       0.0000      0.0000     -1.0181
-------------------------------------------------------------------------------
    2 O     x      -2.2647      0.0000     -0.0000
            y       0.0000     -2.2647     -0.0000
            z      -0.0000     -0.0000     -2.2647
-------------------------------------------------------------------------------
    3 Na    x       1.2258     -0.0000      0.0000
            y      -0.0000      1.2258     -0.0000
            z       0.0000     -0.0000      0.8313
-------------------------------------------------------------------------------




  Elastic Constant Matrix: (Units=GPa)

-------------------------------------------------------------------------------
  Indices      1         2         3         4         5         6    
-------------------------------------------------------------------------------
       1     95.8177   20.0737   20.0737   -0.0000   -0.0000    0.0000
       2     20.0737   95.8177   20.0737   -0.0000   -0.0000    0.0000
       3     20.0737   20.0737   95.8177   -0.0000   -0.0000    0.0000
       4     -0.0000   -0.0000   -0.0000   20.0737   -0.0000    0.0000
       5     -0.0000   -0.0000   -0.0000   -0.0000   20.0737    0.0000
       6      0.0000    0.0000    0.0000    0.0000    0.0000   20.0737
-------------------------------------------------------------------------------


  Elastic Compliance Matrix: (Units=1/GPa)

-------------------------------------------------------------------------------
  Indices      1         2         3         4         5         6    
-------------------------------------------------------------------------------
       1    0.011253 -0.001949 -0.001949  0.000000  0.000000 -0.000000
       2   -0.001949  0.011253 -0.001949  0.000000  0.000000  0.000000
       3   -0.001949 -0.001949  0.011253  0.000000  0.000000 -0.000000
       4    0.000000  0.000000  0.000000  0.049816  0.000000 -0.000000
       5    0.000000  0.000000  0.000000  0.000000  0.049816 -0.000000
       6   -0.000000  0.000000 -0.000000 -0.000000 -0.000000  0.049816
-------------------------------------------------------------------------------

  Mechanical properties :

-------------------------------------------------------------------------------
  Convention :                    Reuss         Voigt         Hill
-------------------------------------------------------------------------------
  Bulk  Modulus (GPa)     =      45.32174      45.32174      45.32174
  Shear Modulus (GPa)     =      24.72085      27.19304      25.95695
-------------------------------------------------------------------------------
  Velocity S-wave (km/s)  =       3.36511       3.52937       3.44822
  Velocity P-wave (km/s)  =       5.98827       6.11304       6.05098
-------------------------------------------------------------------------------
  Compressibility (1/GPa) =    0.02206447
-------------------------------------------------------------------------------
  Stress axis :                     x             y             z
-------------------------------------------------------------------------------
  Youngs Moduli (GPa)     =      88.86373      88.86373      88.86373
-------------------------------------------------------------------------------
  Poissons Ratio (x)      =                     0.17321       0.17321
  Poissons Ratio (y)      =       0.17321                     0.17321
  Poissons Ratio (z)      =       0.17321       0.17321
-------------------------------------------------------------------------------


  Piezoelectric Strain Matrix: (Units=C/m**2)

-------------------------------------------------------------------------------
  Indices      1         2         3         4         5         6    
-------------------------------------------------------------------------------
       x    -0.00000  -0.00000  -0.00000   0.00000  -0.00000  -0.00000
       y    -0.00000  -0.00000   0.00000  -0.00000   0.00000   0.00000
       z    -0.00000  -0.00000  -0.00000  -0.00000   0.00000   0.00000
-------------------------------------------------------------------------------


  Piezoelectric Stress Matrix: (Units=10**-11 C/N)

-------------------------------------------------------------------------------
  Indices      1         2         3         4         5         6    
-------------------------------------------------------------------------------
       x    -0.00000   0.00000   0.00000   0.00000  -0.00000  -0.00000
       y    -0.00000  -0.00000   0.00000  -0.00000   0.00000   0.00000
       z     0.00000   0.00000  -0.00000  -0.00000   0.00000   0.00000
-------------------------------------------------------------------------------


  Static dielectric constant tensor : 

-------------------------------------------------------------------------------
              x         y         z
-------------------------------------------------------------------------------
       x    22.84729   0.00000   0.00000
       y     0.00000  22.84729  -0.00000
       z     0.00000  -0.00000  22.84729
--------------------------------------------------------------------------------

  High frequency dielectric constant tensor : 

-------------------------------------------------------------------------------
              x         y         z
-------------------------------------------------------------------------------
       x     1.47557   0.00000  -0.00000
       y     0.00000   1.47557  -0.00000
       z    -0.00000  -0.00000   1.47557
-------------------------------------------------------------------------------

  Static refractive indices : 

-------------------------------------------------------------------------------
    1 =    4.77988      2 =    4.77988      3 =    4.77988
-------------------------------------------------------------------------------

  High frequency refractive indices : 

-------------------------------------------------------------------------------
    1 =    1.21473      2 =    1.21473      3 =    1.21473
-------------------------------------------------------------------------------


  Time to end of optimisation =       0.0264 seconds

********************************************************************************
*  Defect calculation for configuration   1 :                                  *
********************************************************************************

  Total number of defects =      3

  Total charge on defect  =  -1.00

  Defect centre is at   0.5000   0.3700   0.1300  Frac

  Region 1 radius =  12.0000      Number of ions =    549

  Number of symmetry inequivalent region 1 ions  =    319

  Region 2 radius =  16.0000      Number of ions =    758

  Number of symmetry inequivalent region 2a ions =    413

  Region 2a mode = 4 : screened electrostatics due to region 1 
                       neglect correction to region 1 forces from 2a
                       region 2a displacements based on defects only

  Region 2a ions will only interact with defects in region 1

  Vacancies:

--------------------------------------------------------------------------------
    Specification type     Symbol/Number         x          y          z
--------------------------------------------------------------------------------
    Fractional                               0.500000   0.500000   0.000000
    Fractional                               0.500000   0.000000   0.500000
--------------------------------------------------------------------------------

  Interstitials:

--------------------------------------------------------------------------------
    Specification type     Symbol/Number         x          y          z
--------------------------------------------------------------------------------
    Atom/Fractional         Na               0.500000   0.370000   0.130000
--------------------------------------------------------------------------------


  Symmetry reduced region 1 (Relative to defect centre) :

--------------------------------------------------------------------------------
   No.   Atomic       x            y             z       Radius  Multiplicity   
         Label      (Angs)       (Angs)        (Angs)    (Angs)     
--------------------------------------------------------------------------------
     1  Na    c      0.0000       0.0000 *     0.0000 *  0.0000     1    Defect
     2  O     c      0.0000       0.5860 *     1.6679 *  0.0000     1          
     3  Cl    c      2.2539 *    -1.6679 *    -0.5860 *  0.0000     2          
     4  Na    c      2.2539 *     0.5860 *     1.6679 *  0.0000     2          
     5  O     c      0.0000       0.5860 *    -2.8399 *  0.0000     1          
     6  Na    c      0.0000       2.8399 *     1.6679 *  0.0000     1          
     7  Na    c      0.0000      -1.6679 *    -2.8399 *  0.0000     1          
     8  Na    c      2.2539 *     0.5860 *    -2.8399 *  0.0000     2          
     9  Cl    c      2.2539 *     2.8399 *    -0.5860 *  0.0000     2          
    10  Na    c      0.0000       0.5860 *     3.9218 *  0.0000     1          
    11  Na    c      0.0000      -3.9218 *    -0.5860 *  0.0000     1          
    12  Na    c      0.0000       2.8399 *    -2.8399 *  0.0000     1          
    13  O     c      0.0000      -3.9218 *     1.6679 *  0.0000     1          
    14  Na    c     -4.5078 *     0.5860 *    -0.5860 *  0.0000     2          
    15  Cl    c      2.2539 *    -1.6679 *     3.9218 *  0.0000     2          
    16  Na    c      2.2539 *    -3.9218 *     1.6679 *  0.0000     2          
    17  O     c     -4.5078 *     0.5860 *     1.6679 *  0.0000     2          
    18  O     c      0.0000      -3.9218 *    -2.8399 *  0.0000     1          
    19  Na    c     -4.5078 *    -1.6679 *     1.6679 *  0.0000     2          
    20  Na    c      0.0000       5.0938 *    -0.5860 *  0.0000     1          
    21  Na    c      0.0000       0.5860 *    -5.0938 *  0.0000     1          
    22  Cl    c      2.2539 *     2.8399 *     3.9218 *  0.0000     2          
    23  Na    c      2.2539 *    -3.9218 *    -2.8399 *  0.0000     2          
    24  O     c      0.0000       5.0938 *     1.6679 *  0.0000     1          
    25  O     c     -4.5078 *     0.5860 *    -2.8399 *  0.0000     2          
    26  Na    c      0.0000      -3.9218 *     3.9218 *  0.0000     1          
    27  Na    c     -4.5078 *    -1.6679 *    -2.8399 *  0.0000     2          
    28  Na    c     -4.5078 *     2.8399 *     1.6679 *  0.0000     2          
    29  Na    c      2.2539 *     5.0938 *     1.6679 *  0.0000     2          
    30  Cl    c      2.2539 *    -1.6679 *    -5.0938 *  0.0000     2          
    31  O     c      0.0000       5.0938 *    -2.8399 *  0.0000     1          
    32  Na    c     -4.5078 *     0.5860 *     3.9218 *  0.0000     2          
    33  Na    c     -4.5078 *    -3.9218 *    -0.5860 *  0.0000     2          
    34  Na    c     -4.5078 *     2.8399 *    -2.8399 *  0.0000     2          
    35  O     c      0.0000       0.5860 *     6.1757 *  0.0000     1          
    36  O     c     -4.5078 *    -3.9218 *     1.6679 *  0.0000     2          
    37  Na    c      2.2539 *     5.0938 *    -2.8399 *  0.0000     2          
    38  Cl    c      2.2539 *     2.8399 *    -5.0938 *  0.0000     2          
    39  Na    c      0.0000      -1.6679 *     6.1757 *  0.0000     1          
    40  Na    c      0.0000      -6.1757 *     1.6679 *  0.0000     1          
    41  Na    c      0.0000       5.0938 *     3.9218 *  0.0000     1          
    42  Na    c      0.0000      -3.9218 *    -5.0938 *  0.0000     1          
    43  Cl    c      2.2539 *    -6.1757 *    -0.5860 *  0.0000     2          
    44  Na    c      2.2539 *     0.5860 *     6.1757 *  0.0000     2          
    45  O     c     -4.5078 *    -3.9218 *    -2.8399 *  0.0000     2          
    46  Na    c      0.0000       2.8399 *     6.1757 *  0.0000     1          
    47  Na    c      0.0000      -6.1757 *    -2.8399 *  0.0000     1          
    48  Na    c     -4.5078 *     5.0938 *    -0.5860 *  0.0000     2          
    49  Na    c     -4.5078 *     0.5860 *    -5.0938 *  0.0000     2          
    50  Cl    c      6.7617 *    -1.6679 *    -0.5860 *  0.0000     2          
    51  Na    c      6.7617 *     0.5860 *     1.6679 *  0.0000     2          
    52  O     c     -4.5078 *     5.0938 *     1.6679 *  0.0000     2          
    53  Na    c     -4.5078 *    -3.9218 *     3.9218 *  0.0000     2          
    54  Na    c      0.0000       5.0938 *    -5.0938 *  0.0000     1          
    55  O     c      0.0000      -3.9218 *     6.1757 *  0.0000     1          
    56  Cl    c      6.7617 *     2.8399 *    -0.5860 *  0.0000     2          
    57  Na    c      6.7617 *     0.5860 *    -2.8399 *  0.0000     2          
    58  O     c      0.0000       0.5860 *    -7.3477 *  0.0000     1          
    59  O     c     -4.5078 *     5.0938 *    -2.8399 *  0.0000     2          
    60  Na    c      0.0000       7.3477 *     1.6679 *  0.0000     1          
    61  Na    c      0.0000      -1.6679 *    -7.3477 *  0.0000     1          
    62  Cl    c      2.2539 *    -6.1757 *     3.9218 *  0.0000     2          
    63  Na    c      2.2539 *    -3.9218 *     6.1757 *  0.0000     2          
    64  O     c     -4.5078 *     0.5860 *     6.1757 *  0.0000     2          
    65  Cl    c      2.2539 *     7.3477 *    -0.5860 *  0.0000     2          
    66  Na    c      2.2539 *     0.5860 *    -7.3477 *  0.0000     2          
    67  Na    c     -4.5078 *    -1.6679 *     6.1757 *  0.0000     2          
    68  Na    c     -4.5078 *    -6.1757 *     1.6679 *  0.0000     2          
    69  Na    c     -4.5078 *     5.0938 *     3.9218 *  0.0000     2          
    70  Na    c     -4.5078 *    -3.9218 *    -5.0938 *  0.0000     2          
    71  Na    c      0.0000       2.8399 *    -7.3477 *  0.0000     1          
    72  Na    c      0.0000       7.3477 *    -2.8399 *  0.0000     1          
    73  Cl    c      6.7617 *    -1.6679 *     3.9218 *  0.0000     2          
    74  Na    c      6.7617 *    -3.9218 *     1.6679 *  0.0000     2          
    75  O     c      0.0000       5.0938 *     6.1757 *  0.0000     1          
    76  Na    c     -4.5078 *    -6.1757 *    -2.8399 *  0.0000     2          
    77  Na    c      4.5078 *     2.8399 *     6.1757 *  0.0000     2          
    78  Na    c      2.2539 *     5.0938 *     6.1757 *  0.0000     2          
    79  Cl    c      2.2539 *    -6.1757 *    -5.0938 *  0.0000     2          
    80  Cl    c      6.7617 *     2.8399 *     3.9218 *  0.0000     2          
    81  Na    c      6.7617 *    -3.9218 *    -2.8399 *  0.0000     2          
    82  O     c      0.0000      -3.9218 *    -7.3477 *  0.0000     1          
    83  Na    c      0.0000       0.5860 *     8.4296 *  0.0000     1          
    84  Na    c      0.0000      -8.4296 *    -0.5860 *  0.0000     1          
    85  Na    c      4.5078 *     5.0938 *    -5.0938 *  0.0000     2          
    86  O     c      0.0000      -8.4296 *     1.6679 *  0.0000     1          
    87  O     c      4.5078 *    -3.9218 *     6.1757 *  0.0000     2          
    88  Cl    c      2.2539 *     7.3477 *     3.9218 *  0.0000     2          
    89  Na    c      6.7617 *     5.0938 *     1.6679 *  0.0000     2          
    90  Cl    c      6.7617 *    -1.6679 *    -5.0938 *  0.0000     2          
    91  Na    c      2.2539 *    -3.9218 *    -7.3477 *  0.0000     2          
    92  O     c      4.5078 *     0.5860 *    -7.3477 *  0.0000     2          
    93  Na    c      0.0000      -6.1757 *     6.1757 *  0.0000     1          
    94  Na    c     -4.5078 *     7.3477 *     1.6679 *  0.0000     2          
    95  Na    c     -4.5078 *    -1.6679 *    -7.3477 *  0.0000     2          
    96  Cl    c      2.2539 *    -1.6679 *     8.4296 *  0.0000     2          
    97  Na    c      2.2539 *    -8.4296 *     1.6679 *  0.0000     2          
    98  O     c      0.0000      -8.4296 *    -2.8399 *  0.0000     1          
    99  Na    c      6.7617 *     5.0938 *    -2.8399 *  0.0000     2          
   100  Cl    c      6.7617 *     2.8399 *    -5.0938 *  0.0000     2          
   101  O     c      0.0000       5.0938 *    -7.3477 *  0.0000     1          
   102  Na    c      9.0156 *     0.5860 *    -0.5860 *  0.0000     2          
   103  Na    c     -4.5078 *     7.3477 *    -2.8399 *  0.0000     2          
   104  Na    c      4.5078 *     2.8399 *    -7.3477 *  0.0000     2          
   105  Cl    c      2.2539 *     2.8399 *     8.4296 *  0.0000     2          
   106  Na    c      2.2539 *    -8.4296 *    -2.8399 *  0.0000     2          
   107  Na    c      6.7617 *     0.5860 *     6.1757 *  0.0000     2          
   108  Cl    c      6.7617 *    -6.1757 *    -0.5860 *  0.0000     2          
   109  O     c     -4.5078 *     5.0938 *     6.1757 *  0.0000     2          
   110  O     c      9.0156 *     0.5860 *     1.6679 *  0.0000     2          
   111  Na    c      2.2539 *     5.0938 *    -7.3477 *  0.0000     2          
   112  Cl    c      2.2539 *     7.3477 *    -5.0938 *  0.0000     2          
   113  Na    c      0.0000      -3.9218 *     8.4296 *  0.0000     1          
   114  Na    c      0.0000      -8.4296 *     3.9218 *  0.0000     1          
   115  Na    c      9.0156 *    -1.6679 *     1.6679 *  0.0000     2          
   116  O     c      4.5078 *    -3.9218 *    -7.3477 *  0.0000     2          
   117  O     c      9.0156 *     0.5860 *    -2.8399 *  0.0000     2          
   118  Na    c     -4.5078 *     0.5860 *     8.4296 *  0.0000     2          
   119  Na    c     -4.5078 *    -8.4296 *    -0.5860 *  0.0000     2          
   120  Na    c      0.0000       7.3477 *     6.1757 *  0.0000     1          
   121  Na    c      0.0000      -6.1757 *    -7.3477 *  0.0000     1          
   122  Na    c      9.0156 *     2.8399 *     1.6679 *  0.0000     2          
   123  Na    c      9.0156 *    -1.6679 *    -2.8399 *  0.0000     2          
   124  Na    c      0.0000       0.5860 *    -9.6016 *  0.0000     1          
   125  Na    c      0.0000       9.6016 *    -0.5860 *  0.0000     1          
   126  O     c     -4.5078 *    -8.4296 *     1.6679 *  0.0000     2          
   127  O     c      0.0000       9.6016 *     1.6679 *  0.0000     1          
   128  Na    c     -4.5078 *    -6.1757 *     6.1757 *  0.0000     2          
   129  Na    c      0.0000       5.0938 *     8.4296 *  0.0000     1          
   130  Na    c      0.0000      -8.4296 *    -5.0938 *  0.0000     1          
   131  Na    c      9.0156 *     0.5860 *     3.9218 *  0.0000     2          
   132  Na    c      9.0156 *    -3.9218 *    -0.5860 *  0.0000     2          
   133  Na    c      9.0156 *     2.8399 *    -2.8399 *  0.0000     2          
   134  Cl    c      6.7617 *    -6.1757 *     3.9218 *  0.0000     2          
   135  Na    c      6.7617 *    -3.9218 *     6.1757 *  0.0000     2          
   136  O     c      9.0156 *    -3.9218 *     1.6679 *  0.0000     2          
   137  O     c     -4.5078 *    -8.4296 *    -2.8399 *  0.0000     2          
   138  Cl    c      2.2539 *    -1.6679 *    -9.6016 *  0.0000     2          
   139  Na    c      2.2539 *     9.6016 *     1.6679 *  0.0000     2          
   140  Na    c      6.7617 *     0.5860 *    -7.3477 *  0.0000     2          
   141  Cl    c      6.7617 *     7.3477 *    -0.5860 *  0.0000     2          
   142  O     c      0.0000       9.6016 *    -2.8399 *  0.0000     1          
   143  O     c     -4.5078 *     5.0938 *    -7.3477 *  0.0000     2          
   144  O     c      9.0156 *    -3.9218 *    -2.8399 *  0.0000     2          
   145  Cl    c      2.2539 *     2.8399 *    -9.6016 *  0.0000     2          
   146  Na    c      2.2539 *     9.6016 *    -2.8399 *  0.0000     2          
   147  Na    c     -4.5078 *    -3.9218 *     8.4296 *  0.0000     2          
   148  Na    c     -4.5078 *    -8.4296 *     3.9218 *  0.0000     2          
   149  Na    c      0.0000       9.6016 *     3.9218 *  0.0000     1          
   150  Na    c      0.0000      -3.9218 *    -9.6016 *  0.0000     1          
   151  Na    c      9.0156 *     5.0938 *    -0.5860 *  0.0000     2          
   152  Na    c      9.0156 *     0.5860 *    -5.0938 *  0.0000     2          
   153  Na    c      0.0000       7.3477 *    -7.3477 *  0.0000     1          
   154  O     c      0.0000      -8.4296 *     6.1757 *  0.0000     1          
   155  Na    c      6.7617 *     5.0938 *     6.1757 *  0.0000     2          
   156  Cl    c      6.7617 *    -6.1757 *    -5.0938 *  0.0000     2          
   157  O     c      9.0156 *     5.0938 *     1.6679 *  0.0000     2          
   158  Na    c      9.0156 *    -3.9218 *     3.9218 *  0.0000     2          
   159  Na    c     -4.5078 *     7.3477 *     6.1757 *  0.0000     2          
   160  Na    c     -4.5078 *    -6.1757 *    -7.3477 *  0.0000     2          
   161  Na    c     -4.5078 *     0.5860 *    -9.6016 *  0.0000     2          
   162  Na    c     -4.5078 *     9.6016 *    -0.5860 *  0.0000     2          
   163  Cl    c      2.2539 *    -6.1757 *     8.4296 *  0.0000     2          
   164  Na    c      2.2539 *    -8.4296 *     6.1757 *  0.0000     2          
   165  O     c      0.0000       0.5860 *    10.6835 *  0.0000     1          
   166  Cl    c      6.7617 *     7.3477 *     3.9218 *  0.0000     2          
   167  Na    c      6.7617 *    -3.9218 *    -7.3477 *  0.0000     2          
   168  O     c     -4.5078 *     9.6016 *     1.6679 *  0.0000     2          
   169  O     c      9.0156 *     5.0938 *    -2.8399 *  0.0000     2          
   170  Na    c      0.0000      -1.6679 *    10.6835 *  0.0000     1          
   171  Na    c      0.0000     -10.6835 *     1.6679 *  0.0000     1          
   172  Na    c      4.5078 *     5.0938 *     8.4296 *  0.0000     2          
   173  Na    c     -4.5078 *    -8.4296 *    -5.0938 *  0.0000     2          
   174  Na    c      0.0000       5.0938 *    -9.6016 *  0.0000     1          
   175  Na    c      0.0000       9.6016 *    -5.0938 *  0.0000     1          
   176  Cl    c      2.2539 *   -10.6835 *    -0.5860 *  0.0000     2          
   177  Cl    c      6.7617 *    -1.6679 *     8.4296 *  0.0000     2          
   178  Na    c      2.2539 *     0.5860 *    10.6835 *  0.0000     2          
   179  Na    c      6.7617 *    -8.4296 *     1.6679 *  0.0000     2          
   180  O     c      9.0156 *     0.5860 *     6.1757 *  0.0000     2          
   181  O     c     -4.5078 *     9.6016 *    -2.8399 *  0.0000     2          
   182  Na    c      0.0000       2.8399 *    10.6835 *  0.0000     1          
   183  Na    c      0.0000     -10.6835 *    -2.8399 *  0.0000     1          
   184  Na    c      9.0156 *    -1.6679 *     6.1757 *  0.0000     2          
   185  Na    c      9.0156 *    -6.1757 *     1.6679 *  0.0000     2          
   186  Na    c      9.0156 *     5.0938 *     3.9218 *  0.0000     2          
   187  Na    c      9.0156 *    -3.9218 *    -5.0938 *  0.0000     2          
   188  Cl    c      6.7617 *     2.8399 *     8.4296 *  0.0000     2          
   189  Na    c      6.7617 *    -8.4296 *    -2.8399 *  0.0000     2          
   190  O     c      0.0000      -8.4296 *    -7.3477 *  0.0000     1          
   191  Na    c      6.7617 *     5.0938 *    -7.3477 *  0.0000     2          
   192  Cl    c      6.7617 *     7.3477 *    -5.0938 *  0.0000     2          
   193  Na    c      9.0156 *     2.8399 *     6.1757 *  0.0000     2          
   194  Na    c      9.0156 *    -6.1757 *    -2.8399 *  0.0000     2          
   195  Na    c     -4.5078 *     9.6016 *     3.9218 *  0.0000     2          
   196  Na    c     -4.5078 *    -3.9218 *    -9.6016 *  0.0000     2          
   197  Na    c     -4.5078 *     7.3477 *    -7.3477 *  0.0000     2          
   198  O     c      0.0000      -3.9218 *    10.6835 *  0.0000     1          
   199  O     c      4.5078 *    -8.4296 *     6.1757 *  0.0000     2          
   200  Cl    c      2.2539 *     7.3477 *     8.4296 *  0.0000     2          
   201  Cl    c     11.2695 *    -1.6679 *    -0.5860 *  0.0000     2          
   202  Na    c      2.2539 *    -8.4296 *    -7.3477 *  0.0000     2          
   203  Na    c     11.2695 *     0.5860 *     1.6679 *  0.0000     2          
   204  O     c      0.0000       9.6016 *     6.1757 *  0.0000     1          
   205  Na    c      9.0156 *     5.0938 *    -5.0938 *  0.0000     2          
   206  Cl    c      2.2539 *   -10.6835 *     3.9218 *  0.0000     2          
   207  Na    c      2.2539 *    -3.9218 *    10.6835 *  0.0000     2          
   208  O     c      4.5078 *     0.5860 *    10.6835 *  0.0000     2          
   209  O     c      9.0156 *    -3.9218 *     6.1757 *  0.0000     2          
   210  Cl    c     11.2695 *     2.8399 *    -0.5860 *  0.0000     2          
   211  Cl    c      2.2539 *    -6.1757 *    -9.6016 *  0.0000     2          
   212  Na    c      2.2539 *     9.6016 *     6.1757 *  0.0000     2          
   213  Na    c     11.2695 *     0.5860 *    -2.8399 *  0.0000     2          
   214  O     c      9.0156 *     0.5860 *    -7.3477 *  0.0000     2          
   215  Na    c     -4.5078 *    -1.6679 *    10.6835 *  0.0000     2          
   216  Na    c      4.5078 *   -10.6835 *     1.6679 *  0.0000     2          
   217  Na    c      9.0156 *    -1.6679 *    -7.3477 *  0.0000     2          
   218  Na    c      9.0156 *     7.3477 *     1.6679 *  0.0000     2          
   219  Na    c      4.5078 *     5.0938 *    -9.6016 *  0.0000     2          
   220  Na    c     -4.5078 *     9.6016 *    -5.0938 *  0.0000     2          
   221  O     c      0.0000       5.0938 *    10.6835 *  0.0000     1          
   222  Cl    c      6.7617 *    -1.6679 *    -9.6016 *  0.0000     2          
   223  Na    c      6.7617 *     9.6016 *     1.6679 *  0.0000     2          
   224  O     c      0.0000       0.5860 *   -11.8555 *  0.0000     1          
   225  Na    c      0.0000      -8.4296 *     8.4296 *  0.0000     1          
   226  Na    c      4.5078 *     2.8399 *    10.6835 *  0.0000     2          
   227  Na    c      4.5078 *   -10.6835 *    -2.8399 *  0.0000     2          
   228  Na    c      9.0156 *     2.8399 *    -7.3477 *  0.0000     2          
   229  Na    c      9.0156 *     7.3477 *    -2.8399 *  0.0000     2          
   230  Na    c      0.0000      11.8555 *     1.6679 *  0.0000     1          
   231  Na    c      0.0000      -1.6679 *   -11.8555 *  0.0000     1          
   232  O     s      0.0000       0.5860 *     1.6679 *  0.0000     1          
   233  Cl    s      2.2539 *    -1.6679 *    -0.5860 *  0.0000     2          
   234  O     s      0.0000       0.5860 *    -2.8399 *  0.0000     1          
   235  Cl    s      2.2539 *     2.8399 *    -0.5860 *  0.0000     2          
   236  O     s      0.0000      -3.9218 *     1.6679 *  0.0000     1          
   237  Cl    s      2.2539 *    -1.6679 *     3.9218 *  0.0000     2          
   238  O     s     -4.5078 *     0.5860 *     1.6679 *  0.0000     2          
   239  O     s      0.0000      -3.9218 *    -2.8399 *  0.0000     1          
   240  Cl    s      2.2539 *     2.8399 *     3.9218 *  0.0000     2          
   241  O     s      0.0000       5.0938 *     1.6679 *  0.0000     1          
   242  O     s     -4.5078 *     0.5860 *    -2.8399 *  0.0000     2          
   243  Cl    s      2.2539 *    -1.6679 *    -5.0938 *  0.0000     2          
   244  O     s      0.0000       5.0938 *    -2.8399 *  0.0000     1          
   245  O     s      0.0000       0.5860 *     6.1757 *  0.0000     1          
   246  O     s     -4.5078 *    -3.9218 *     1.6679 *  0.0000     2          
   247  Cl    s      2.2539 *     2.8399 *    -5.0938 *  0.0000     2          
   248  Cl    s      2.2539 *    -6.1757 *    -0.5860 *  0.0000     2          
   249  O     s     -4.5078 *    -3.9218 *    -2.8399 *  0.0000     2          
   250  Cl    s      6.7617 *    -1.6679 *    -0.5860 *  0.0000     2          
   251  O     s     -4.5078 *     5.0938 *     1.6679 *  0.0000     2          
   252  O     s      0.0000      -3.9218 *     6.1757 *  0.0000     1          
   253  Cl    s      6.7617 *     2.8399 *    -0.5860 *  0.0000     2          
   254  O     s      0.0000       0.5860 *    -7.3477 *  0.0000     1          
   255  O     s     -4.5078 *     5.0938 *    -2.8399 *  0.0000     2          
   256  Cl    s      2.2539 *    -6.1757 *     3.9218 *  0.0000     2          
   257  O     s     -4.5078 *     0.5860 *     6.1757 *  0.0000     2          
   258  Cl    s      2.2539 *     7.3477 *    -0.5860 *  0.0000     2          
   259  Cl    s      6.7617 *    -1.6679 *     3.9218 *  0.0000     2          
   260  O     s      0.0000       5.0938 *     6.1757 *  0.0000     1          
   261  Cl    s      2.2539 *    -6.1757 *    -5.0938 *  0.0000     2          
   262  Cl    s      6.7617 *     2.8399 *     3.9218 *  0.0000     2          
   263  O     s      0.0000      -3.9218 *    -7.3477 *  0.0000     1          
   264  O     s      0.0000      -8.4296 *     1.6679 *  0.0000     1          
   265  O     s      4.5078 *    -3.9218 *     6.1757 *  0.0000     2          
   266  Cl    s      2.2539 *     7.3477 *     3.9218 *  0.0000     2          
   267  Cl    s      6.7617 *    -1.6679 *    -5.0938 *  0.0000     2          
   268  O     s      4.5078 *     0.5860 *    -7.3477 *  0.0000     2          
   269  Cl    s      2.2539 *    -1.6679 *     8.4296 *  0.0000     2          
   270  O     s      0.0000      -8.4296 *    -2.8399 *  0.0000     1          
   271  Cl    s      6.7617 *     2.8399 *    -5.0938 *  0.0000     2          
   272  O     s      0.0000       5.0938 *    -7.3477 *  0.0000     1          
   273  Cl    s      2.2539 *     2.8399 *     8.4296 *  0.0000     2          
   274  Cl    s      6.7617 *    -6.1757 *    -0.5860 *  0.0000     2          
   275  O     s     -4.5078 *     5.0938 *     6.1757 *  0.0000     2          
   276  O     s      9.0156 *     0.5860 *     1.6679 *  0.0000     2          
   277  Cl    s      2.2539 *     7.3477 *    -5.0938 *  0.0000     2          
   278  O     s      4.5078 *    -3.9218 *    -7.3477 *  0.0000     2          
   279  O     s      9.0156 *     0.5860 *    -2.8399 *  0.0000     2          
   280  O     s     -4.5078 *    -8.4296 *     1.6679 *  0.0000     2          
   281  O     s      0.0000       9.6016 *     1.6679 *  0.0000     1          
   282  Cl    s      6.7617 *    -6.1757 *     3.9218 *  0.0000     2          
   283  O     s      9.0156 *    -3.9218 *     1.6679 *  0.0000     2          
   284  O     s     -4.5078 *    -8.4296 *    -2.8399 *  0.0000     2          
   285  Cl    s      2.2539 *    -1.6679 *    -9.6016 *  0.0000     2          
   286  Cl    s      6.7617 *     7.3477 *    -0.5860 *  0.0000     2          
   287  O     s      0.0000       9.6016 *    -2.8399 *  0.0000     1          
   288  O     s     -4.5078 *     5.0938 *    -7.3477 *  0.0000     2          
   289  O     s      9.0156 *    -3.9218 *    -2.8399 *  0.0000     2          
   290  Cl    s      2.2539 *     2.8399 *    -9.6016 *  0.0000     2          
   291  O     s      0.0000      -8.4296 *     6.1757 *  0.0000     1          
   292  Cl    s      6.7617 *    -6.1757 *    -5.0938 *  0.0000     2          
   293  O     s      9.0156 *     5.0938 *     1.6679 *  0.0000     2          
   294  Cl    s      2.2539 *    -6.1757 *     8.4296 *  0.0000     2          
   295  O     s      0.0000       0.5860 *    10.6835 *  0.0000     1          
   296  Cl    s      6.7617 *     7.3477 *     3.9218 *  0.0000     2          
   297  O     s     -4.5078 *     9.6016 *     1.6679 *  0.0000     2          
   298  O     s      9.0156 *     5.0938 *    -2.8399 *  0.0000     2          
   299  Cl    s      2.2539 *   -10.6835 *    -0.5860 *  0.0000     2          
   300  Cl    s      6.7617 *    -1.6679 *     8.4296 *  0.0000     2          
   301  O     s      9.0156 *     0.5860 *     6.1757 *  0.0000     2          
   302  O     s     -4.5078 *     9.6016 *    -2.8399 *  0.0000     2          
   303  Cl    s      6.7617 *     2.8399 *     8.4296 *  0.0000     2          
   304  O     s      0.0000      -8.4296 *    -7.3477 *  0.0000     1          
   305  Cl    s      6.7617 *     7.3477 *    -5.0938 *  0.0000     2          
   306  O     s      0.0000      -3.9218 *    10.6835 *  0.0000     1          
   307  O     s      4.5078 *    -8.4296 *     6.1757 *  0.0000     2          
   308  Cl    s      2.2539 *     7.3477 *     8.4296 *  0.0000     2          
   309  Cl    s     11.2695 *    -1.6679 *    -0.5860 *  0.0000     2          
   310  O     s      0.0000       9.6016 *     6.1757 *  0.0000     1          
   311  Cl    s      2.2539 *   -10.6835 *     3.9218 *  0.0000     2          
   312  O     s      4.5078 *     0.5860 *    10.6835 *  0.0000     2          
   313  O     s      9.0156 *    -3.9218 *     6.1757 *  0.0000     2          
   314  Cl    s     11.2695 *     2.8399 *    -0.5860 *  0.0000     2          
   315  Cl    s      2.2539 *    -6.1757 *    -9.6016 *  0.0000     2          
   316  O     s      9.0156 *     0.5860 *    -7.3477 *  0.0000     2          
   317  O     s      0.0000       5.0938 *    10.6835 *  0.0000     1          
   318  Cl    s      6.7617 *    -1.6679 *    -9.6016 *  0.0000     2          
   319  O     s      0.0000       0.5860 *   -11.8555 *  0.0000     1          
--------------------------------------------------------------------------------

  Components of defect energy : 

--------------------------------------------------------------------------------
  Region 1 - region 1                   =     -6.78182570 eV
  Region 1 - region 2a (unrelaxed)      =     15.90561839 eV
  Region 1 - 2a (relaxed - correction)  =     -0.29525793 eV
  Region 1 (Total)                      =      8.82853476 eV
  Region 2a                             =      0.14754041 eV
  Region 2b                             =     -0.43351589 eV
--------------------------------------------------------------------------------
  Total defect energy                   =      8.54255927 eV
--------------------------------------------------------------------------------

  Largest displacement in region 2 =   0.0251 Angstroms


  Number of variables =      868

  Maximum number of calculations  =        1000
  Maximum Hessian update interval =          10
  Maximum step size               =   1.0000000
  Maximum parameter tolerance     =   0.0000100
  Maximum function  tolerance     =   0.0000100
  Maximum gradient  tolerance     =   0.0010000

  Symmetry adapted optimisation

  Symmetry to be used for second derivatives

  Newton-Raphson optimiser to be used

  BFGS hessian update to be used

  Lower half triangular hessian to be used

  Start of defect optimisation :

  Cycle:      0 Defect Energy:   8.542559  Gnorm:     0.020982  CPU:    6.030
  ** Hessian calculated **
  Cycle:      1 Defect Energy:   7.654811  Gnorm:     0.017807  CPU:   12.830
  Cycle:      2 Defect Energy:   7.131991  Gnorm:     0.015445  CPU:   18.141
  ** Hessian calculated **
  Cycle:      3 Defect Energy:   5.738548  Gnorm:     0.005491  CPU:   23.503
  Cycle:      4 Defect Energy:   5.482677  Gnorm:     0.003849  CPU:   26.792
  Cycle:      5 Defect Energy:   5.416074  Gnorm:     0.002846  CPU:   27.757
  Cycle:      6 Defect Energy:   5.332298  Gnorm:     0.002243  CPU:   28.580
  Cycle:      7 Defect Energy:   5.221699  Gnorm:     0.001997  CPU:   29.401
  Cycle:      8 Defect Energy:   5.088947  Gnorm:     0.001817  CPU:   30.229
  Cycle:      9 Defect Energy:   4.998656  Gnorm:     0.001652  CPU:   31.057
  Cycle:     10 Defect Energy:   4.946752  Gnorm:     0.001752  CPU:   31.964
  Cycle:     11 Defect Energy:   4.899594  Gnorm:     0.001925  CPU:   32.589
  Cycle:     12 Defect Energy:   4.845565  Gnorm:     0.001854  CPU:   36.590
  ** Hessian calculated **
  Cycle:     13 Defect Energy:   4.827568  Gnorm:     0.001422  CPU:   39.314
  Cycle:     14 Defect Energy:   4.804841  Gnorm:     0.001324  CPU:   40.317
  Cycle:     15 Defect Energy:   4.775542  Gnorm:     0.001240  CPU:   41.352
  Cycle:     16 Defect Energy:   4.739767  Gnorm:     0.001224  CPU:   42.396
  Cycle:     17 Defect Energy:   4.696284  Gnorm:     0.001312  CPU:   43.367
  Cycle:     18 Defect Energy:   4.662355  Gnorm:     0.001295  CPU:   44.326
  Cycle:     19 Defect Energy:   4.637587  Gnorm:     0.001471  CPU:   45.233
  Cycle:     20 Defect Energy:   4.616785  Gnorm:     0.001391  CPU:   46.089
  Cycle:     21 Defect Energy:   4.595821  Gnorm:     0.001415  CPU:   47.149
  Cycle:     22 Defect Energy:   4.574266  Gnorm:     0.001405  CPU:   48.079
  ** Hessian calculated **
  Cycle:     23 Defect Energy:   4.549124  Gnorm:     0.001263  CPU:   50.456
  Cycle:     24 Defect Energy:   4.517342  Gnorm:     0.001057  CPU:   51.458
  Cycle:     25 Defect Energy:   4.495440  Gnorm:     0.000881  CPU:   52.352
  ** Hessian calculated **
  Cycle:     26 Defect Energy:   4.467846  Gnorm:     0.000827  CPU:   54.656
  Cycle:     27 Defect Energy:   4.432057  Gnorm:     0.000356  CPU:   55.518
  Cycle:     28 Defect Energy:   4.423009  Gnorm:     0.000408  CPU:   56.444
  Cycle:     29 Defect Energy:   4.419753  Gnorm:     0.000303  CPU:   57.269
  Cycle:     30 Defect Energy:   4.416046  Gnorm:     0.000291  CPU:   58.086
  ** Hessian calculated **
  Cycle:     31 Defect Energy:   4.408404  Gnorm:     0.000222  CPU:   60.327
  Cycle:     32 Defect Energy:   4.403849  Gnorm:     0.000181  CPU:   61.264
  Cycle:     33 Defect Energy:   4.400656  Gnorm:     0.000135  CPU:   62.110
  Cycle:     34 Defect Energy:   4.398252  Gnorm:     0.000114  CPU:   62.921
  Cycle:     35 Defect Energy:   4.395441  Gnorm:     0.000124  CPU:   63.723
  Cycle:     36 Defect Energy:   4.391653  Gnorm:     0.000243  CPU:   64.532
  Cycle:     37 Defect Energy:   4.389190  Gnorm:     0.000543  CPU:   65.322
  Cycle:     38 Defect Energy:   4.386915  Gnorm:     0.000468  CPU:   66.226
  Cycle:     39 Defect Energy:   4.384353  Gnorm:     0.000416  CPU:   66.754
  Cycle:     40 Defect Energy:   4.380868  Gnorm:     0.000388  CPU:   69.687
  ** Hessian calculated **
  Cycle:     41 Defect Energy:   4.379659  Gnorm:     0.000212  CPU:   73.438
  Cycle:     42 Defect Energy:   4.378504  Gnorm:     0.000167  CPU:   74.461
  Cycle:     43 Defect Energy:   4.377189  Gnorm:     0.000163  CPU:   75.591
  Cycle:     44 Defect Energy:   4.375580  Gnorm:     0.000191  CPU:   76.588
  Cycle:     45 Defect Energy:   4.373831  Gnorm:     0.000218  CPU:   77.575
  Cycle:     46 Defect Energy:   4.372450  Gnorm:     0.000252  CPU:   78.523
  Cycle:     47 Defect Energy:   4.371249  Gnorm:     0.000273  CPU:   79.482
  Cycle:     48 Defect Energy:   4.370235  Gnorm:     0.000285  CPU:   80.565
  Cycle:     49 Defect Energy:   4.369239  Gnorm:     0.000297  CPU:   81.501
  Cycle:     50 Defect Energy:   4.368431  Gnorm:     0.000301  CPU:   82.407
  ** Hessian calculated **
  Cycle:     51 Defect Energy:   4.364298  Gnorm:     0.000280  CPU:   84.874
  Cycle:     52 Defect Energy:   4.358573  Gnorm:     0.000244  CPU:   85.850
  Cycle:     53 Defect Energy:   4.351174  Gnorm:     0.000178  CPU:   86.710
  Cycle:     54 Defect Energy:   4.347522  Gnorm:     0.000122  CPU:   87.566
  Cycle:     55 Defect Energy:   4.345978  Gnorm:     0.000085  CPU:   88.446
  Cycle:     56 Defect Energy:   4.345272  Gnorm:     0.000061  CPU:   89.327
  Cycle:     57 Defect Energy:   4.344993  Gnorm:     0.000047  CPU:   90.380
  ** Hessian calculated **
  Cycle:     58 Defect Energy:   4.344755  Gnorm:     0.000033  CPU:   92.574
  Cycle:     59 Defect Energy:   4.344630  Gnorm:     0.000023  CPU:   93.389
  Cycle:     60 Defect Energy:   4.344553  Gnorm:     0.000016  CPU:   94.211
  Cycle:     61 Defect Energy:   4.344477  Gnorm:     0.000013  CPU:   95.148
  Cycle:     62 Defect Energy:   4.344327  Gnorm:     0.000023  CPU:   95.964
  ** Hessian calculated **


  **** Optimisation achieved ****


  Final defect energy  =        4.34433088
  Final defect Gnorm   =        0.00001506

  Components of defect energy : 

--------------------------------------------------------------------------------
  Region 1 - region 1                   =     -9.67035589 eV
  Region 1 - region 2a (unrelaxed)      =     14.56302477 eV
  Region 1 - 2a (relaxed - correction)  =     -0.23350106 eV
  Region 1 (Total)                      =      4.65916781 eV
  Region 2a                             =      0.11671035 eV
  Region 2b                             =     -0.43154728 eV
--------------------------------------------------------------------------------
  Total defect energy                   =      4.34433088 eV
--------------------------------------------------------------------------------

  Largest displacement in region 2 =   0.0264 Angstroms

  Final coordinates of region 1 :

--------------------------------------------------------------------------------
   No.  Atomic        x           y           z          Radius      Charge
        Label       (Angs)      (Angs)      (Angs)       (Angs)       (e) 
--------------------------------------------------------------------------------
     1  Na    c     2.253894    1.797650    0.057615    0.000000    1.000000
     2  O     c     2.253894    2.441277    2.198846    0.000000    0.183000
     3  Cl    c     4.589244    0.005014   -0.105447    0.000000    1.485000
     4  Cl    c    -0.081457    0.005014   -0.105447    0.000000    1.485000
     5  Na    c     4.390740    1.797543    2.293828    0.000000    1.000000
     6  Na    c     0.117047    1.797543    2.293828    0.000000    1.000000
     7  O     c     2.253894    2.260341   -2.224899    0.000000    0.183000
     8  Na    c     2.253894    4.593088    1.773745    0.000000    1.000000
     9  Na    c     2.253894    0.006563   -2.616693    0.000000    1.000000
    10  Na    c     4.499621    2.309975   -2.201191    0.000000    1.000000
    11  Na    c     0.008166    2.309975   -2.201191    0.000000    1.000000
    12  Cl    c     4.589287    4.618745   -0.122819    0.000000    1.485000
    13  Cl    c    -0.081500    4.618745   -0.122819    0.000000    1.485000
    14  Na    c     2.253894    2.619450    4.421290    0.000000    1.000000
    15  Na    c     2.253894   -1.810459    0.048103    0.000000    1.000000
    16  Na    c     2.253894    4.508636   -1.819779    0.000000    1.000000
    17  O     c     2.253894   -2.415109    2.202390    0.000000    0.183000
    18  Na    c    -2.220772    2.257723    0.015920    0.000000    1.000000
    19  Na    c     6.728559    2.257723    0.015920    0.000000    1.000000
    20  Cl    c     4.718202    0.007909    4.627982    0.000000    1.485000
    21  Cl    c    -0.210414    0.007909    4.627982    0.000000    1.485000
    22  Na    c     4.389856   -1.793378    2.301221    0.000000    1.000000
    23  Na    c     0.117931   -1.793378    2.301221    0.000000    1.000000
    24  O     c    -2.190086    2.251830    2.270419    0.000000    0.183000
    25  O     c     6.697873    2.251830    2.270419    0.000000    0.183000
    26  O     c     2.253894   -2.249412   -2.235876    0.000000    0.183000
    27  Na    c    -2.561635    0.008443    2.342121    0.000000    1.000000
    28  Na    c     7.069422    0.008443    2.342121    0.000000    1.000000
    29  Na    c     2.253894    7.219282   -0.009380    0.000000    1.000000
    30  Na    c     2.253894    2.636173   -4.480183    0.000000    1.000000
    31  Cl    c     4.580990    4.569846    4.628883    0.000000    1.485000
    32  Cl    c    -0.073203    4.569846    4.628883    0.000000    1.485000
    33  Na    c     4.502601   -2.293383   -2.263104    0.000000    1.000000
    34  Na    c     0.005187   -2.293383   -2.263104    0.000000    1.000000
    35  O     c     2.253894    6.835040    2.245415    0.000000    0.183000
    36  O     c    -2.250945    2.251691   -2.254470    0.000000    0.183000
    37  O     c     6.758732    2.251691   -2.254470    0.000000    0.183000
    38  Na    c     2.253894   -2.617599    4.420610    0.000000    1.000000
    39  Na    c    -2.171921    0.002342   -2.171547    0.000000    1.000000
    40  Na    c     6.679709    0.002342   -2.171547    0.000000    1.000000
    41  Na    c    -1.744243    4.470916    2.223159    0.000000    1.000000
    42  Na    c     6.252031    4.470916    2.223159    0.000000    1.000000
    43  Na    c     4.505850    7.011165    2.279166    0.000000    1.000000
    44  Na    c     0.001937    7.011165    2.279166    0.000000    1.000000
    45  Cl    c     4.549073    0.005117   -4.534304    0.000000    1.485000
    46  Cl    c    -0.041286    0.005117   -4.534304    0.000000    1.485000
    47  O     c     2.253894    6.758443   -2.248509    0.000000    0.183000
    48  Na    c    -2.154127    2.357134    4.522577    0.000000    1.000000
    49  Na    c     6.661914    2.357134    4.522577    0.000000    1.000000
    50  Na    c    -2.131140   -2.229914    0.021552    0.000000    1.000000
    51  Na    c     6.638928   -2.229914    0.021552    0.000000    1.000000
    52  Na    c    -2.295753    4.507335   -2.332270    0.000000    1.000000
    53  Na    c     6.803541    4.507335   -2.332270    0.000000    1.000000
    54  O     c     2.253894    2.218703    6.703140    0.000000    0.183000
    55  O     c    -2.186661   -2.236222    2.266260    0.000000    0.183000
    56  O     c     6.694448   -2.236222    2.266260    0.000000    0.183000
    57  Na    c     4.510396    6.682159   -2.234462    0.000000    1.000000
    58  Na    c    -0.002609    6.682159   -2.234462    0.000000    1.000000
    59  Cl    c     4.533205    4.511489   -4.532153    0.000000    1.485000
    60  Cl    c    -0.025418    4.511489   -4.532153    0.000000    1.485000
    61  Na    c     2.253894   -0.000334    6.161331    0.000000    1.000000
    62  Na    c     2.253894   -4.569910    1.820924    0.000000    1.000000
    63  Na    c     2.253894    6.329449    4.475733    0.000000    1.000000
    64  Na    c     2.253894   -2.647465   -4.472639    0.000000    1.000000
    65  Cl    c     4.598340   -4.600857   -0.118515    0.000000    1.485000
    66  Cl    c    -0.090553   -4.600857   -0.118515    0.000000    1.485000
    67  Na    c     4.508457    2.111080    6.761596    0.000000    1.000000
    68  Na    c    -0.000670    2.111080    6.761596    0.000000    1.000000
    69  O     c    -2.256173   -2.245471   -2.243405    0.000000    0.183000
    70  O     c     6.763960   -2.245471   -2.243405    0.000000    0.183000
    71  Na    c     2.253894    4.473920    7.059682    0.000000    1.000000
    72  Na    c     2.253894   -4.499642   -1.837254    0.000000    1.000000
    73  Na    c    -2.229377    6.664973    0.000457    0.000000    1.000000
    74  Na    c     6.737164    6.664973    0.000457    0.000000    1.000000
    75  Na    c    -2.224977    2.112530   -4.501723    0.000000    1.000000
    76  Na    c     6.732764    2.112530   -4.501723    0.000000    1.000000
    77  Cl    c     9.021297    0.001281   -0.022237    0.000000    1.485000
    78  Cl    c    -4.513510    0.001281   -0.022237    0.000000    1.485000
    79  Na    c     8.960868    2.590028    2.292164    0.000000    1.000000
    80  Na    c    -4.453081    2.590028    2.292164    0.000000    1.000000
    81  O     c    -2.237498    6.708358    2.260611    0.000000    0.183000
    82  O     c     6.745286    6.708358    2.260611    0.000000    0.183000
    83  Na    c    -2.140624   -2.342584    4.511764    0.000000    1.000000
    84  Na    c     6.648412   -2.342584    4.511764    0.000000    1.000000
    85  Na    c     2.253894    6.401260   -4.499794    0.000000    1.000000
    86  O     c     2.253894   -2.216331    6.698089    0.000000    0.183000
    87  Cl    c     9.049260    4.506487   -0.037739    0.000000    1.485000
    88  Cl    c    -4.541473    4.506487   -0.037739    0.000000    1.485000
    89  Na    c     9.007165    2.192857   -2.274875    0.000000    1.000000
    90  Na    c    -4.499378    2.192857   -2.274875    0.000000    1.000000
    91  O     c     2.253894    2.260236   -6.743106    0.000000    0.183000
    92  O     c    -2.265217    6.773984   -2.259686    0.000000    0.183000
    93  O     c     6.773004    6.773984   -2.259686    0.000000    0.183000
    94  Na    c     2.253894    9.047973    2.687711    0.000000    1.000000
    95  Na    c     2.253894    0.003907   -6.422985    0.000000    1.000000
    96  Cl    c     4.575574   -4.591453    4.618566    0.000000    1.485000
    97  Cl    c    -0.067787   -4.591453    4.618566    0.000000    1.485000
    98  Na    c     4.512016   -2.105920    6.782564    0.000000    1.000000
    99  Na    c    -0.004229   -2.105920    6.782564    0.000000    1.000000
   100  O     c    -2.263730    2.257448    6.781132    0.000000    0.183000
   101  O     c     6.771518    2.257448    6.781132    0.000000    0.183000
   102  Cl    c     4.548475    9.054398    0.001098    0.000000    1.485000
   103  Cl    c    -0.040688    9.054398    0.001098    0.000000    1.485000
   104  Na    c     4.504812    2.250123   -6.721044    0.000000    1.000000
   105  Na    c     0.002975    2.250123   -6.721044    0.000000    1.000000
   106  Na    c    -2.426532    0.001731    6.581675    0.000000    1.000000
   107  Na    c     6.934319    0.001731    6.581675    0.000000    1.000000
   108  Na    c    -1.828597   -4.476401    2.219604    0.000000    1.000000
   109  Na    c     6.336384   -4.476401    2.219604    0.000000    1.000000
   110  Na    c    -2.342816    6.568812    4.516021    0.000000    1.000000
   111  Na    c     6.850604    6.568812    4.516021    0.000000    1.000000
   112  Na    c    -2.336402   -2.173140   -4.499128    0.000000    1.000000
   113  Na    c     6.844189   -2.173140   -4.499128    0.000000    1.000000
   114  Na    c     2.253894    4.489160   -7.101159    0.000000    1.000000
   115  Na    c     2.253894    8.992489   -2.612302    0.000000    1.000000
   116  Cl    c     9.072490   -0.011257    4.525497    0.000000    1.485000
   117  Cl    c    -4.564703   -0.011257    4.525497    0.000000    1.485000
   118  Na    c     8.959180   -2.553226    2.257355    0.000000    1.000000
   119  Na    c    -4.451393   -2.553226    2.257355    0.000000    1.000000
   120  O     c     2.253894    6.745664    6.723103    0.000000    0.183000
   121  Na    c    -2.300134   -4.498020   -2.257789    0.000000    1.000000
   122  Na    c     6.807921   -4.498020   -2.257789    0.000000    1.000000
   123  Na    c     6.572894    4.500805    6.939736    0.000000    1.000000
   124  Na    c    -2.065107    4.500805    6.939736    0.000000    1.000000
   125  Na    c     4.506236    6.800963    6.642209    0.000000    1.000000
   126  Na    c     0.001552    6.800963    6.642209    0.000000    1.000000
   127  Cl    c     4.522771   -4.513952   -4.549739    0.000000    1.485000
   128  Cl    c    -0.014984   -4.513952   -4.549739    0.000000    1.485000
   129  Cl    c     9.073166    4.520970    4.532265    0.000000    1.485000
   130  Cl    c    -4.565379    4.520970    4.532265    0.000000    1.485000
   131  Na    c     9.011918   -2.179799   -2.142741    0.000000    1.000000
   132  Na    c    -4.504131   -2.179799   -2.142741    0.000000    1.000000
   133  O     c     2.253894   -2.252804   -6.718645    0.000000    0.183000
   134  Na    c     2.253894    1.919796    8.972271    0.000000    1.000000
   135  Na    c     2.253894   -7.149732   -0.005679    0.000000    1.000000
   136  Na    c     6.773446    6.899805   -4.498827    0.000000    1.000000
   137  Na    c    -2.265659    6.899805   -4.498827    0.000000    1.000000
   138  O     c     2.253894   -6.811687    2.239464    0.000000    0.183000
   139  O     c     6.772893   -2.254744    6.766826    0.000000    0.183000
   140  O     c    -2.265106   -2.254744    6.766826    0.000000    0.183000
   141  Cl    c     4.513394    9.064243    4.519344    0.000000    1.485000
   142  Cl    c    -0.005607    9.064243    4.519344    0.000000    1.485000
   143  Na    c     8.999199    6.440067    2.195616    0.000000    1.000000
   144  Na    c    -4.491412    6.440067    2.195616    0.000000    1.000000
   145  Cl    c     9.020579    0.013448   -4.520089    0.000000    1.485000
   146  Cl    c    -4.512792    0.013448   -4.520089    0.000000    1.485000
   147  Na    c     4.507598   -2.223242   -6.663951    0.000000    1.000000
   148  Na    c     0.000189   -2.223242   -6.663951    0.000000    1.000000
   149  O     c     6.760505    2.248903   -6.756562    0.000000    0.183000
   150  O     c    -2.252718    2.248903   -6.756562    0.000000    0.183000
   151  Na    c     2.253894   -4.468484    6.985830    0.000000    1.000000
   152  Na    c    -2.463668    8.975576    2.291093    0.000000    1.000000
   153  Na    c     6.971455    8.975576    2.291093    0.000000    1.000000
   154  Na    c    -2.266309    0.000065   -6.864070    0.000000    1.000000
   155  Na    c     6.774096    0.000065   -6.864070    0.000000    1.000000
   156  Cl    c     4.527494   -0.012613    9.083373    0.000000    1.485000
   157  Cl    c    -0.019707   -0.012613    9.083373    0.000000    1.485000
   158  Na    c     4.494951   -6.936666    2.300358    0.000000    1.000000
   159  Na    c     0.012836   -6.936666    2.300358    0.000000    1.000000
   160  O     c     2.253894   -6.749899   -2.235295    0.000000    0.183000
   161  Na    c     9.018944    6.795479   -2.241215    0.000000    1.000000
   162  Na    c    -4.511156    6.795479   -2.241215    0.000000    1.000000
   163  Cl    c     9.052735    4.516214   -4.535382    0.000000    1.485000
   164  Cl    c    -4.544948    4.516214   -4.535382    0.000000    1.485000
   165  O     c     2.253894    6.724369   -6.759092    0.000000    0.183000
   166  Na    c    11.163181    2.191987    0.004581    0.000000    1.000000
   167  Na    c    -6.655393    2.191987    0.004581    0.000000    1.000000
   168  Na    c    -2.226392    9.018098   -2.139757    0.000000    1.000000
   169  Na    c     6.734179    9.018098   -2.139757    0.000000    1.000000
   170  Na    c     6.781801    4.506068   -6.617730    0.000000    1.000000
   171  Na    c    -2.274014    4.506068   -6.617730    0.000000    1.000000
   172  Cl    c     4.510919    4.530303    9.044394    0.000000    1.485000
   173  Cl    c    -0.003132    4.530303    9.044394    0.000000    1.485000
   174  Na    c     4.510934   -6.676166   -2.252502    0.000000    1.000000
   175  Na    c    -0.003146   -6.676166   -2.252502    0.000000    1.000000
   176  Na    c     9.014682    2.442854    6.746325    0.000000    1.000000
   177  Na    c    -4.506895    2.442854    6.746325    0.000000    1.000000
   178  Cl    c     9.077363   -4.513480   -0.020789    0.000000    1.485000
   179  Cl    c    -4.569576   -4.513480   -0.020789    0.000000    1.485000
   180  O     c    -2.258391    6.756173    6.770804    0.000000    0.183000
   181  O     c     6.766178    6.756173    6.770804    0.000000    0.183000
   182  O     c    11.227886    2.243081    2.253569    0.000000    0.183000
   183  O     c    -6.720098    2.243081    2.253569    0.000000    0.183000
   184  Na    c     4.505339    6.732706   -6.713947    0.000000    1.000000
   185  Na    c     0.002448    6.732706   -6.713947    0.000000    1.000000
   186  Cl    c     4.516456    9.050814   -4.543520    0.000000    1.485000
   187  Cl    c    -0.008668    9.050814   -4.543520    0.000000    1.485000
   188  Na    c     2.253894   -1.986767    8.974789    0.000000    1.000000
   189  Na    c     2.253894   -6.474815    4.498781    0.000000    1.000000
   190  Na    c    10.993704   -0.015562    2.248734    0.000000    1.000000
   191  Na    c    -6.485917   -0.015562    2.248734    0.000000    1.000000
   192  O     c     6.762566   -2.246744   -6.763975    0.000000    0.183000
   193  O     c    -2.254779   -2.246744   -6.763975    0.000000    0.183000
   194  O     c    11.266559    2.253902   -2.251231    0.000000    0.183000
   195  O     c    -6.758771    2.253902   -2.251231    0.000000    0.183000
   196  Na    c    -2.293996    2.071800    9.019363    0.000000    1.000000
   197  Na    c     6.801783    2.071800    9.019363    0.000000    1.000000
   198  Na    c    -2.206901   -6.721677    0.000558    0.000000    1.000000
   199  Na    c     6.714689   -6.721677    0.000558    0.000000    1.000000
   200  Na    c     2.253894    9.007185    6.497975    0.000000    1.000000
   201  Na    c     2.253894   -4.491619   -6.994242    0.000000    1.000000
   202  Na    c    11.486230    4.480407    2.301758    0.000000    1.000000
   203  Na    c    -6.978443    4.480407    2.301758    0.000000    1.000000
   204  Na    c    11.310231    0.005119   -2.365314    0.000000    1.000000
   205  Na    c    -6.802443    0.005119   -2.365314    0.000000    1.000000
   206  Na    c     2.253894    2.006329   -9.006741    0.000000    1.000000
   207  Na    c     2.253894   11.032100   -0.010365    0.000000    1.000000
   208  O     c    -2.225845   -6.727400    2.259803    0.000000    0.183000
   209  O     c     6.733633   -6.727400    2.259803    0.000000    0.183000
   210  O     c     2.253894   11.254527    2.254657    0.000000    0.183000
   211  Na    c    -2.114023   -4.504344    6.872199    0.000000    1.000000
   212  Na    c     6.621810   -4.504344    6.872199    0.000000    1.000000
   213  Na    c     2.253894    6.937984    8.981427    0.000000    1.000000
   214  Na    c     2.253894   -6.538304   -4.498456    0.000000    1.000000
   215  Na    c    11.249397    2.139870    4.506782    0.000000    1.000000
   216  Na    c    -6.741609    2.139870    4.506782    0.000000    1.000000
   217  Na    c    11.269492   -2.212514    0.004835    0.000000    1.000000
   218  Na    c    -6.761705   -2.212514    0.004835    0.000000    1.000000
   219  Na    c    11.228301    4.507735   -2.170330    0.000000    1.000000
   220  Na    c    -6.720514    4.507735   -2.170330    0.000000    1.000000
   221  Cl    c     9.074275   -4.519819    4.515248    0.000000    1.485000
   222  Cl    c    -4.566487   -4.519819    4.515248    0.000000    1.485000
   223  Na    c     9.013558   -2.397837    6.700418    0.000000    1.000000
   224  Na    c    -4.505771   -2.397837    6.700418    0.000000    1.000000
   225  O     c    11.239748   -2.267562    2.251776    0.000000    0.183000
   226  O     c    -6.731961   -2.267562    2.251776    0.000000    0.183000
   227  O     c    -2.266217   -6.758584   -2.261573    0.000000    0.183000
   228  O     c     6.774004   -6.758584   -2.261573    0.000000    0.183000
   229  Cl    c     4.499482   -0.002978   -9.065140    0.000000    1.485000
   230  Cl    c     0.008305   -0.002978   -9.065140    0.000000    1.485000
   231  Na    c     4.520851   11.190573    2.185659    0.000000    1.000000
   232  Na    c    -0.013064   11.190573    2.185659    0.000000    1.000000
   233  Na    c     9.016113    2.240794   -6.737089    0.000000    1.000000
   234  Na    c    -4.508325    2.240794   -6.737089    0.000000    1.000000
   235  Cl    c     9.019171    9.038590   -0.016654    0.000000    1.485000
   236  Cl    c    -4.511383    9.038590   -0.016654    0.000000    1.485000
   237  O     c     2.253894   11.248834   -2.276219    0.000000    0.183000
   238  O     c    -2.252664    6.765881   -6.748014    0.000000    0.183000
   239  O     c     6.760451    6.765881   -6.748014    0.000000    0.183000
   240  O     c    11.268738   -2.243121   -2.251607    0.000000    0.183000
   241  O     c    -6.760951   -2.243121   -2.251607    0.000000    0.183000
   242  Cl    c     4.532295    4.522450   -9.048304    0.000000    1.485000
   243  Cl    c    -0.024508    4.522450   -9.048304    0.000000    1.485000
   244  Na    c     4.506898   11.268584   -2.199770    0.000000    1.000000
   245  Na    c     0.000889   11.268584   -2.199770    0.000000    1.000000
   246  Na    c    -2.325990   -2.140026    9.011871    0.000000    1.000000
   247  Na    c     6.833778   -2.140026    9.011871    0.000000    1.000000
   248  Na    c    -2.321208   -6.633616    4.513903    0.000000    1.000000
   249  Na    c     6.828996   -6.633616    4.513903    0.000000    1.000000
   250  Na    c     2.253894   11.529127    4.496857    0.000000    1.000000
   251  Na    c     2.253894   -2.069370   -8.990019    0.000000    1.000000
   252  Na    c    11.274735    6.769930    0.007104    0.000000    1.000000
   253  Na    c    -6.766948    6.769930    0.007104    0.000000    1.000000
   254  Na    c    11.290135    2.358964   -4.503768    0.000000    1.000000
   255  Na    c    -6.782348    2.358964   -4.503768    0.000000    1.000000
   256  Na    c     2.253894    8.994089   -6.606132    0.000000    1.000000
   257  O     c     2.253894   -6.741654    6.759254    0.000000    0.183000
   258  Na    c     9.014147    6.631223    6.860045    0.000000    1.000000
   259  Na    c    -4.506360    6.631223    6.860045    0.000000    1.000000
   260  Cl    c     9.037233   -4.508454   -4.546983    0.000000    1.485000
   261  Cl    c    -4.529445   -4.508454   -4.546983    0.000000    1.485000
   262  O     c    11.259136    6.729560    2.253068    0.000000    0.183000
   263  O     c    -6.751348    6.729560    2.253068    0.000000    0.183000
   264  Na    c    11.268511   -2.185561    4.506489    0.000000    1.000000
   265  Na    c    -6.760724   -2.185561    4.506489    0.000000    1.000000
   266  Na    c    -2.358517    9.004481    6.666776    0.000000    1.000000
   267  Na    c     6.866304    9.004481    6.666776    0.000000    1.000000
   268  Na    c    -2.239187   -4.503882   -6.701129    0.000000    1.000000
   269  Na    c     6.746974   -4.503882   -6.701129    0.000000    1.000000
   270  Na    c    -2.244036    2.332300   -9.008572    0.000000    1.000000
   271  Na    c     6.751823    2.332300   -9.008572    0.000000    1.000000
   272  Na    c    -2.305823   11.261345    0.015490    0.000000    1.000000
   273  Na    c     6.813610   11.261345    0.015490    0.000000    1.000000
   274  Cl    c     4.508209   -4.529158    9.041143    0.000000    1.485000
   275  Cl    c    -0.000422   -4.529158    9.041143    0.000000    1.485000
   276  Na    c     4.504696   -6.774595    6.690191    0.000000    1.000000
   277  Na    c     0.003091   -6.774595    6.690191    0.000000    1.000000
   278  O     c     2.253894    2.238409   11.243450    0.000000    0.183000
   279  Cl    c     9.037602    9.074372    4.506931    0.000000    1.485000
   280  Cl    c    -4.529814    9.074372    4.506931    0.000000    1.485000
   281  Na    c     9.014757   -2.264625   -6.807581    0.000000    1.000000
   282  Na    c    -4.506969   -2.264625   -6.807581    0.000000    1.000000
   283  O     c    -2.272498   11.257608    2.260550    0.000000    0.183000
   284  O     c     6.780285   11.257608    2.260550    0.000000    0.183000
   285  O     c    11.271021    6.763925   -2.246391    0.000000    0.183000
   286  O     c    -6.763233    6.763925   -2.246391    0.000000    0.183000
   287  Na    c     2.253894   -0.001747   11.409105    0.000000    1.000000
   288  Na    c     2.253894   -9.044183    2.491908    0.000000    1.000000
   289  Na    c     6.690049    6.864621    9.016349    0.000000    1.000000
   290  Na    c    -2.182261    6.864621    9.016349    0.000000    1.000000
   291  Na    c    -2.273227   -6.788293   -4.504334    0.000000    1.000000
   292  Na    c     6.781014   -6.788293   -4.504334    0.000000    1.000000
   293  Na    c     2.253894    6.901718   -9.010725    0.000000    1.000000
[...]
    239 y         -2.253894     -2.249437     0.004457    Cartesian   -0.20
    239 z         -2.253894     -2.235942     0.017951    Cartesian   -0.80
    240 x          4.507787      4.588932     0.081145    Cartesian    1.80
    240 y          4.507787      4.579325     0.071537    Cartesian    1.59
    240 z          4.507787      4.632118     0.124331    Cartesian    2.76
    241 x          2.253894      2.253894     0.000000    Cartesian    0.00
    241 y          6.761681      6.835123     0.073442    Cartesian    1.09
    241 z          2.253894      2.245428    -0.008465    Cartesian   -0.38
    242 x         -2.253894     -2.250945     0.002949    Cartesian   -0.13
    242 y          2.253894      2.251660    -0.002234    Cartesian   -0.10
    242 z         -2.253894     -2.254487    -0.000593    Cartesian    0.03
    243 x          4.507787      4.546535     0.038748    Cartesian    0.86
    243 y          0.000000      0.006318     0.006318    Cartesian *******
    243 z         -4.507787     -4.538896    -0.031109    Cartesian    0.69
    244 x          2.253894      2.253894     0.000000    Cartesian    0.00
    244 y          6.761681      6.758465    -0.003216    Cartesian   -0.05
    244 z         -2.253894     -2.248511     0.005383    Cartesian   -0.24
    245 x          2.253894      2.253894     0.000000    Cartesian    0.00
    245 y          2.253894      2.218683    -0.035211    Cartesian   -1.56
    245 z          6.761681      6.703164    -0.058517    Cartesian   -0.87
    246 x         -2.253894     -2.186709     0.067185    Cartesian   -2.98
    246 y         -2.253894     -2.236245     0.017649    Cartesian   -0.78
    246 z          2.253894      2.266263     0.012369    Cartesian    0.55
    247 x          4.507787      4.525789     0.018002    Cartesian    0.40
    247 y          4.507787      4.512355     0.004568    Cartesian    0.10
    247 z         -4.507787     -4.535923    -0.028136    Cartesian    0.62
    248 x          4.507787      4.604764     0.096977    Cartesian    2.15
    248 y         -4.507787     -4.610051    -0.102264    Cartesian    2.27
    248 z          0.000000     -0.126835    -0.126835    Cartesian    0.00
    249 x         -2.253894     -2.256173    -0.002279    Cartesian    0.10
    249 y         -2.253894     -2.245450     0.008444    Cartesian   -0.37
    249 z         -2.253894     -2.243393     0.010500    Cartesian   -0.47
    250 x          9.015574      9.025997     0.010423    Cartesian    0.12
    250 y          0.000000      0.001216     0.001216    Cartesian *******
    250 z          0.000000     -0.022565    -0.022565    Cartesian    0.00
    251 x         -2.253894     -2.237463     0.016431    Cartesian   -0.73
    251 y          6.761681      6.708356    -0.053325    Cartesian   -0.79
    251 z          2.253894      2.260600     0.006706    Cartesian    0.30
    252 x          2.253894      2.253894     0.000000    Cartesian    0.00
    252 y         -2.253894     -2.216333     0.037560    Cartesian   -1.67
    252 z          6.761681      6.698110    -0.063571    Cartesian   -0.94
    253 x          9.015574      9.054552     0.038978    Cartesian    0.43
    253 y          4.507787      4.509650     0.001863    Cartesian    0.04
    253 z          0.000000     -0.033809    -0.033809    Cartesian    0.00
    254 x          2.253894      2.253894     0.000000    Cartesian    0.00
    254 y          2.253894      2.260274     0.006380    Cartesian    0.28
    254 z         -6.761681     -6.743131     0.018550    Cartesian   -0.27
    255 x         -2.253894     -2.265234    -0.011340    Cartesian    0.50
    255 y          6.761681      6.774003     0.012322    Cartesian    0.18
    255 z         -2.253894     -2.259695    -0.005801    Cartesian    0.26
    256 x          4.507787      4.584529     0.076742    Cartesian    1.70
    256 y         -4.507787     -4.600317    -0.092529    Cartesian    2.05
    256 z          4.507787      4.623830     0.116042    Cartesian    2.57
    257 x         -2.253894     -2.263731    -0.009837    Cartesian    0.44
    257 y          2.253894      2.257456     0.003562    Cartesian    0.16
    257 z          6.761681      6.781139     0.019458    Cartesian    0.29
    258 x          4.507787      4.542830     0.035043    Cartesian    0.78
    258 y          9.015574      9.055462     0.039888    Cartesian    0.44
    258 z          0.000000      0.002094     0.002094    Cartesian    0.00
    259 x          9.015574      9.076142     0.060567    Cartesian    0.67
    259 y          0.000000     -0.011707    -0.011707    Cartesian *******
    259 z          4.507787      4.523446     0.015659    Cartesian    0.35
    260 x          2.253894      2.253894     0.000000    Cartesian    0.00
    260 y          6.761681      6.745681    -0.016000    Cartesian   -0.24
    260 z          6.761681      6.723116    -0.038565    Cartesian   -0.57
    261 x          4.507787      4.515748     0.007960    Cartesian    0.18
    261 y         -4.507787     -4.512621    -0.004834    Cartesian    0.11
    261 z         -4.507787     -4.554656    -0.046869    Cartesian    1.04
    262 x          9.015574      9.075777     0.060202    Cartesian    0.67
    262 y          4.507787      4.522858     0.015071    Cartesian    0.33
    262 z          4.507787      4.528722     0.020935    Cartesian    0.46
    263 x          2.253894      2.253894     0.000000    Cartesian    0.00
    263 y         -2.253894     -2.252853     0.001041    Cartesian   -0.05
    263 z         -6.761681     -6.718632     0.043049    Cartesian   -0.64
    264 x          2.253894      2.253894     0.000000    Cartesian    0.00
    264 y         -6.761681     -6.811781    -0.050100    Cartesian    0.74
    264 z          2.253894      2.239448    -0.014446    Cartesian   -0.64
    265 x          6.761681      6.772908     0.011228    Cartesian    0.17
    265 y         -2.253894     -2.254756    -0.000863    Cartesian    0.04
    265 z          6.761681      6.766819     0.005138    Cartesian    0.08
    266 x          4.507787      4.501699    -0.006088    Cartesian   -0.14
    266 y          9.015574      9.066246     0.050672    Cartesian    0.56
    266 z          4.507787      4.516574     0.008787    Cartesian    0.19
    267 x          9.015574      9.019793     0.004218    Cartesian    0.05
    267 y          0.000000      0.015047     0.015047    Cartesian *******
    267 z         -4.507787     -4.520961    -0.013174    Cartesian    0.29
    268 x          6.761681      6.760506    -0.001175    Cartesian   -0.02
    268 y          2.253894      2.248879    -0.005015    Cartesian   -0.22
    268 z         -6.761681     -6.756555     0.005126    Cartesian   -0.08
    269 x          4.507787      4.523261     0.015474    Cartesian    0.34
    269 y          0.000000     -0.012914    -0.012914    Cartesian *******
    269 z          9.015574      9.088373     0.072798    Cartesian    0.81
    270 x          2.253894      2.253894     0.000000    Cartesian    0.00
    270 y         -6.761681     -6.749941     0.011740    Cartesian   -0.17
    270 z         -2.253894     -2.235269     0.018625    Cartesian   -0.83
    271 x          9.015574      9.056474     0.040900    Cartesian    0.45
    271 y          4.507787      4.516615     0.008827    Cartesian    0.20
    271 z         -4.507787     -4.540243    -0.032456    Cartesian    0.72
    272 x          2.253894      2.253894     0.000000    Cartesian    0.00
    272 y          6.761681      6.724338    -0.037343    Cartesian   -0.55
    272 z         -6.761681     -6.759142     0.002539    Cartesian   -0.04
    273 x          4.507787      4.513312     0.005525    Cartesian    0.12
    273 y          4.507787      4.532289     0.024502    Cartesian    0.54
    273 z          9.015574      9.043019     0.027445    Cartesian    0.30
    274 x          9.015574      9.085285     0.069710    Cartesian    0.77
    274 y         -4.507787     -4.513444    -0.005657    Cartesian    0.13
    274 z          0.000000     -0.020222    -0.020222    Cartesian    0.00
    275 x         -2.253894     -2.258391    -0.004497    Cartesian    0.20
    275 y          6.761681      6.756170    -0.005511    Cartesian   -0.08
    275 z          6.761681      6.770827     0.009146    Cartesian    0.14
    276 x         11.269468     11.227909    -0.041559    Cartesian   -0.37
    276 y          2.253894      2.243105    -0.010789    Cartesian   -0.48
    276 z          2.253894      2.253571    -0.000323    Cartesian   -0.01
    277 x          4.507787      4.513223     0.005436    Cartesian    0.12
    277 y          9.015574      9.054523     0.038948    Cartesian    0.43
    277 z         -4.507787     -4.545483    -0.037696    Cartesian    0.84
    278 x          6.761681      6.762577     0.000896    Cartesian    0.01
    278 y         -2.253894     -2.246729     0.007165    Cartesian   -0.32
    278 z         -6.761681     -6.763993    -0.002312    Cartesian    0.03
    279 x         11.269468     11.266555    -0.002913    Cartesian   -0.03
    279 y          2.253894      2.253897     0.000004    Cartesian    0.00
    279 z         -2.253894     -2.251238     0.002655    Cartesian   -0.12
    280 x         -2.253894     -2.225795     0.028099    Cartesian   -1.25
    280 y         -6.761681     -6.727425     0.034256    Cartesian   -0.51
    280 z          2.253894      2.259801     0.005907    Cartesian    0.26
    281 x          2.253894      2.253894     0.000000    Cartesian    0.00
    281 y         11.269468     11.254515    -0.014953    Cartesian   -0.13
    281 z          2.253894      2.254704     0.000811    Cartesian    0.04
    282 x          9.015574      9.079295     0.063720    Cartesian    0.71
    282 y         -4.507787     -4.518656    -0.010869    Cartesian    0.24
    282 z          4.507787      4.513489     0.005701    Cartesian    0.13
    283 x         11.269468     11.239756    -0.029712    Cartesian   -0.26
    283 y         -2.253894     -2.267607    -0.013714    Cartesian    0.61
    283 z          2.253894      2.251769    -0.002125    Cartesian   -0.09
    284 x         -2.253894     -2.266233    -0.012339    Cartesian    0.55
    284 y         -6.761681     -6.758588     0.003093    Cartesian   -0.05
    284 z         -2.253894     -2.261583    -0.007689    Cartesian    0.34
    285 x          4.507787      4.494900    -0.012887    Cartesian   -0.29
    285 y          0.000000     -0.002563    -0.002563    Cartesian *******
    285 z         -9.015574     -9.070711    -0.055137    Cartesian    0.61
    286 x          9.015574      9.017733     0.002159    Cartesian    0.02
    286 y          9.015574      9.042786     0.027212    Cartesian    0.30
    286 z          0.000000     -0.018817    -0.018817    Cartesian    0.00
    287 x          2.253894      2.253894     0.000000    Cartesian    0.00
    287 y         11.269468     11.248841    -0.020627    Cartesian   -0.18
    287 z         -2.253894     -2.276285    -0.022391    Cartesian    0.99
    288 x         -2.253894     -2.252667     0.001227    Cartesian   -0.05
    288 y          6.761681      6.765903     0.004222    Cartesian    0.06
    288 z         -6.761681     -6.747997     0.013683    Cartesian   -0.20
    289 x         11.269468     11.268736    -0.000732    Cartesian   -0.01
    289 y         -2.253894     -2.243111     0.010783    Cartesian   -0.48
    289 z         -2.253894     -2.251604     0.002289    Cartesian   -0.10
    290 x          4.507787      4.533266     0.025479    Cartesian    0.57
    290 y          4.507787      4.524765     0.016977    Cartesian    0.38
    290 z         -9.015574     -9.048537    -0.032963    Cartesian    0.37
    291 x          2.253894      2.253894     0.000000    Cartesian    0.00
    291 y         -6.761681     -6.741644     0.020036    Cartesian   -0.30
    291 z          6.761681      6.759296    -0.002385    Cartesian   -0.04
    292 x          9.015574      9.040040     0.024465    Cartesian    0.27
    292 y         -4.507787     -4.507952    -0.000165    Cartesian    0.00
    292 z         -4.507787     -4.551927    -0.044140    Cartesian    0.98
    293 x         11.269468     11.259171    -0.010297    Cartesian   -0.09
    293 y          6.761681      6.729534    -0.032147    Cartesian   -0.48
    293 z          2.253894      2.253055    -0.000839    Cartesian   -0.04
    294 x          4.507787      4.509426     0.001639    Cartesian    0.04
    294 y         -4.507787     -4.532437    -0.024650    Cartesian    0.55
    294 z          9.015574      9.040289     0.024715    Cartesian    0.27
    295 x          2.253894      2.253894     0.000000    Cartesian    0.00
    295 y          2.253894      2.238361    -0.015532    Cartesian   -0.69
    295 z         11.269468     11.243473    -0.025995    Cartesian   -0.23
    296 x          9.015574      9.037948     0.022374    Cartesian    0.25
    296 y          9.015574      9.081664     0.066090    Cartesian    0.73
    296 z          4.507787      4.504931    -0.002856    Cartesian   -0.06
    297 x         -2.253894     -2.272536    -0.018642    Cartesian    0.83
    297 y         11.269468     11.257641    -0.011827    Cartesian   -0.10
    297 z          2.253894      2.260545     0.006652    Cartesian    0.30
    298 x         11.269468     11.271011     0.001543    Cartesian    0.01
    298 y          6.761681      6.763932     0.002251    Cartesian    0.03
    298 z         -2.253894     -2.246378     0.007516    Cartesian   -0.33
    299 x          4.507787      4.539893     0.032106    Cartesian    0.71
    299 y         -9.015574     -9.031132    -0.015557    Cartesian    0.17
    299 z          0.000000     -0.003648    -0.003648    Cartesian    0.00
    300 x          9.015574      9.036543     0.020969    Cartesian    0.23
    300 y          0.000000     -0.001989    -0.001989    Cartesian *******
    300 z          9.015574      9.056044     0.040470    Cartesian    0.45
    301 x         11.269468     11.269333    -0.000135    Cartesian   -0.00
    301 y          2.253894      2.260527     0.006633    Cartesian    0.29
    301 z          6.761681      6.762155     0.000474    Cartesian    0.01
    302 x         -2.253894     -2.255017    -0.001123    Cartesian    0.05
    302 y         11.269468     11.271155     0.001687    Cartesian    0.01
    302 z         -2.253894     -2.238786     0.015108    Cartesian   -0.67
    303 x          9.015574      9.047073     0.031499    Cartesian    0.35
    303 y          4.507787      4.524297     0.016510    Cartesian    0.37
    303 z          9.015574      9.027298     0.011724    Cartesian    0.13
    304 x          2.253894      2.253894     0.000000    Cartesian    0.00
    304 y         -6.761681     -6.741716     0.019965    Cartesian   -0.30
    304 z         -6.761681     -6.768355    -0.006675    Cartesian    0.10
    305 x          9.015574      9.028002     0.012427    Cartesian    0.14
    305 y          9.015574      9.022016     0.006441    Cartesian    0.07
    305 z         -4.507787     -4.522074    -0.014287    Cartesian    0.32
    306 x          2.253894      2.253894     0.000000    Cartesian    0.00
    306 y         -2.253894     -2.244670     0.009224    Cartesian   -0.41
    306 z         11.269468     11.254618    -0.014851    Cartesian   -0.13
    307 x          6.761681      6.765508     0.003827    Cartesian    0.06
    307 y         -6.761681     -6.765208    -0.003527    Cartesian    0.05
    307 z          6.761681      6.770288     0.008607    Cartesian    0.13
    308 x          4.507787      4.522967     0.015180    Cartesian    0.34
    308 y          9.015574      9.034817     0.019242    Cartesian    0.21
    308 z          9.015574      9.068837     0.053262    Cartesian    0.59
    309 x         13.523362     13.595657     0.072295    Cartesian    0.53
    309 y          0.000000      0.006366     0.006366    Cartesian *******
    309 z          0.000000     -0.005244    -0.005244    Cartesian    0.00
    310 x          2.253894      2.253894     0.000000    Cartesian    0.00
    310 y         11.269468     11.271018     0.001550    Cartesian    0.01
    310 z          6.761681      6.745863    -0.015818    Cartesian   -0.23
    311 x          4.507787      4.485090    -0.022697    Cartesian   -0.50
    311 y         -9.015574     -9.092468    -0.076894    Cartesian    0.85
    311 z          4.507787      4.487260    -0.020528    Cartesian   -0.46
    312 x          6.761681      6.762843     0.001162    Cartesian    0.02
    312 y          2.253894      2.245161    -0.008733    Cartesian   -0.39
    312 z         11.269468     11.270085     0.000617    Cartesian    0.01
    313 x         11.269468     11.267549    -0.001919    Cartesian   -0.02
    313 y         -2.253894     -2.260045    -0.006152    Cartesian    0.27
    313 z          6.761681      6.767584     0.005903    Cartesian    0.09
    314 x         13.523362     13.552613     0.029252    Cartesian    0.22
    314 y          4.507787      4.535870     0.028082    Cartesian    0.62
    314 z          0.000000      0.010143     0.010143    Cartesian    0.00
    315 x          4.507787      4.505480    -0.002307    Cartesian   -0.05
    315 y         -4.507787     -4.527298    -0.019511    Cartesian    0.43
    315 z         -9.015574     -9.047378    -0.031804    Cartesian    0.35
    316 x         11.269468     11.273261     0.003793    Cartesian    0.03
    316 y          2.253894      2.262482     0.008588    Cartesian    0.38
    316 z         -6.761681     -6.760894     0.000787    Cartesian   -0.01
    317 x          2.253894      2.253894     0.000000    Cartesian    0.00
    317 y          6.761681      6.776241     0.014560    Cartesian    0.22
    317 z         11.269468     11.250974    -0.018494    Cartesian   -0.16
    318 x          9.015574      9.022365     0.006790    Cartesian    0.08
    318 y          0.000000     -0.007521    -0.007521    Cartesian *******
    318 z         -9.015574     -9.029303    -0.013729    Cartesian    0.15
    319 x          2.253894      2.253894     0.000000    Cartesian    0.00
    319 y          2.253894      2.237448    -0.016446    Cartesian   -0.73
    319 z        -11.269468    -11.276361    -0.006893    Cartesian    0.06
--------------------------------------------------------------------------------


  Time to end of optimisation  =       98.1043 seconds


  Peak dynamic memory used =      93.14 MB 


  Timing analysis for GULP :

--------------------------------------------------------------------------------
  Task / Subroutine                                          Time (Seconds)
--------------------------------------------------------------------------------
  Calculation of reciprocal space energy and derivatives          0.0006
  Calculation of reciprocal space energy using symmetry           0.0008
  Calculation of real space energy and derivatives                0.0035
  Calculation of real space energy using symmetry                 0.0085
  Calculation for region 1 energy and derivatives (2-b)          58.7387
  Calculation for region 2a energy                               34.5226
  Calculation for region 2b energy                                0.0173
  Calculation and manipulation of Hessian matrix                  0.2188
  Calculation of matrix inversion                                 4.2204
  Symmetry generation of equivalent positions                     0.0042
--------------------------------------------------------------------------------
  Total CPU time                                                 98.1044
--------------------------------------------------------------------------------


  Dump file written as Na3OCl.grs


  Job Finished at 16:37.30 26th November   2020                               

