********************************************************************************
*                       GENERAL UTILITY LATTICE PROGRAM                        *
*                                 Julian Gale                                  *
*                       Curtin Institute for Computation                       *
*                    School of Molecular and Life Sciences                     *
*                    Curtin University, Western Australia                      *
********************************************************************************
* Version = 5.2.0 * Last modified =  10th September 2020                       *
********************************************************************************
*  optimise     - perform optimisation run                                     *
*  conp         - constant pressure calculation                                *
*  property     - calculate properties for final geometry                      *
*  defect       - perform defect calculation after bulk run                    *
*  compare      - compare initial and final structures                         *
********************************************************************************

  Job Started  at 16:38.07 26th November   2020                               

  Number of CPUs =     1


  Total number of configurations input =      1

********************************************************************************
*  Input for Configuration =   1                                               *
********************************************************************************

  Formula = ClONa3                                                      

  Number of irreducible atoms/shells =       5


  Total number atoms/shells =       7

  Dimensionality = 3               :  Bulk   


  Symmetry :

  Crystal family                   :  Cubic       
  Crystal class  (Groth - 1921)    :  Cubic Hexakisoctahedral              

  Space group (centrosymmetric)    :  P M 3 M         

  Patterson group                  :  P m -3 m 

  Cartesian lattice vectors (Angstroms) :

        4.504000    0.000000    0.000000
        0.000000    4.504000    0.000000
        0.000000    0.000000    4.504000

  Cell parameters (Angstroms/Degrees):

  a =       4.5040    alpha =  90.0000
  b =       4.5040    beta  =  90.0000
  c =       4.5040    gamma =  90.0000

  Initial cell volume =          91.368216 Angs**3

  Temperature of configuration =   0.00     K 

  Pressure of configuration =         0.000 GPa 

  Fractional coordinates of asymmetric unit :

--------------------------------------------------------------------------------
   No.  Atomic       x           y          z         Charge      Occupancy
        Label      (Frac)      (Frac)     (Frac)        (e)         (Frac)  
--------------------------------------------------------------------------------
      1 Cl    c    0.000000    0.000000    0.000000     1.48500    1.000000    
      2 O     c    0.500000    0.500000    0.500000     0.18300    1.000000    
      3 Na    c    0.500000    0.500000    0.000000     1.00000    1.000000    
      4 Cl    s    0.000000    0.000000    0.000000    -2.48500    1.000000    
      5 O     s    0.500000    0.500000    0.500000    -2.18300    1.000000    
--------------------------------------------------------------------------------


  Constraints : 

--------------------------------------------------------------------------------
  Constraint no.      Unconstrained     Constrained    Coefficient    Offset
                         Variable         Variable
--------------------------------------------------------------------------------
           1              Strain 1        Strain 2       1.00000      0.0000
           2              Strain 1        Strain 3       1.00000      0.0000
--------------------------------------------------------------------------------


********************************************************************************
*  General input information                                                   *
********************************************************************************

  Species output for all configurations : 

--------------------------------------------------------------------------------
  Species    Type    Atomic    Atomic    Charge       Radii (Angs)     Library
                     Number     Mass       (e)     Cova   Ionic  VDW   Symbol
--------------------------------------------------------------------------------
    Na       Core       11      22.99   1.000000   0.970  0.000  2.300          
    O        Core        8      16.00   0.183000   0.730  0.000  1.360          
    O        Shell       8       0.00  -2.183000   0.730  0.000  1.360          
    Cl       Core       17      35.45   1.485000   0.990  0.000  1.650          
    Cl       Shell      17       0.00  -2.485000   0.990  0.000  1.650          
--------------------------------------------------------------------------------


  Lattice summation method               =    Ewald          (3-D)
                                         =    Parry          (2-D)
                                         =    Saunders et al (1-D)
  Accuracy factor for lattice sums       =   12.000


  Analytic derivatives to be used

  Time limit = Infinity

  Maximum range for interatomic potentials =    100000.000000 Angstroms

  General interatomic potentials :

--------------------------------------------------------------------------------
Atom  Types   Potential      Parameter       Value         Units   Cutoffs(Ang)
  1     2                                                            Min /  Max 
--------------------------------------------------------------------------------
O    c O    s Spring (c-s)  Spring k 2       593.72000    eV*Ang^-2 0.000  0.800
                            Spring k 4       0.0000000    eV*Ang^-4 
--------------------------------------------------------------------------------
Cl   c Cl   s Spring (c-s)  Spring k 2       29.380000    eV*Ang^-2 0.000  0.800
                            Spring k 4       0.0000000    eV*Ang^-4 
--------------------------------------------------------------------------------
Na   c Na   c Buckingham    Buckingham A     1788.1900    eV        0.000 12.000
                            Buckingham rho  0.15900000    Ang       
                            Buckingham C     0.0000000    eV*Ang^6  
--------------------------------------------------------------------------------
Na   c O    s Buckingham    Buckingham A     1226.8400    eV        0.000 12.000
                            Buckingham rho  0.30700000    Ang       
                            Buckingham C     0.0000000    eV*Ang^6  
--------------------------------------------------------------------------------
Na   c Cl   s Buckingham    Buckingham A     2314.7000    eV        0.000 12.000
                            Buckingham rho  0.29000000    Ang       
                            Buckingham C     0.0000000    eV*Ang^6  
--------------------------------------------------------------------------------
O    s O    s Buckingham    Buckingham A     22764.300    eV        0.000 12.000
                            Buckingham rho  0.14900000    Ang       
                            Buckingham C     13.190000    eV*Ang^6  
--------------------------------------------------------------------------------
O    s Cl   s Buckingham    Buckingham A     8286.9100    eV        0.000 12.000
                            Buckingham rho  0.25900000    Ang       
                            Buckingham C     62.200000    eV*Ang^6  
--------------------------------------------------------------------------------
Cl   s Cl   s Buckingham    Buckingham A     1227.2000    eV        0.000 12.000
                            Buckingham rho  0.32100000    Ang       
                            Buckingham C     14.530000    eV*Ang^6  
--------------------------------------------------------------------------------

********************************************************************************
*  Output for configuration   1                                                *
********************************************************************************


  Components of energy : 

--------------------------------------------------------------------------------
  Interatomic potentials     =           5.13022605 eV    
  Monopole - monopole (real) =         -10.03624526 eV    
  Monopole - monopole (recip)=         -29.53581274 eV    
  Monopole - monopole (total)=         -39.57205800 eV    
--------------------------------------------------------------------------------
  Total lattice energy       =         -34.44183194 eV    
--------------------------------------------------------------------------------
  Total lattice energy       =           -3323.1103 kJ/(mole unit cells)
--------------------------------------------------------------------------------


  Number of variables =        1

  Maximum number of calculations  =          1000
  Maximum Hessian update interval =            10
  Maximum step size               =   1.000000000
  Maximum parameter tolerance     =   0.000010000
  Maximum function  tolerance     =   0.000010000
  Maximum gradient  tolerance     =   0.001000000
  Maximum gradient  component     =   0.010000000

  Symmetry constrained optimisation

  Symmetry used for second derivatives

  Cell parameters to be optimised using strains

  Newton-Raphson optimiser to be used

  BFGS hessian update to be used

  Lower half triangular hessian to be used

  Start of bulk optimisation :

  Cycle:      0 Energy:       -34.441832  Gnorm:      0.196570  CPU:    0.014
  ** Hessian calculated **
  Cycle:      1 Energy:       -34.441914  Gnorm:      0.000103  CPU:    0.017


  **** Optimisation achieved ****


  Final energy =     -34.44191447 eV
  Final Gnorm  =       0.00000000

  Components of energy : 

--------------------------------------------------------------------------------
  Interatomic potentials     =           5.09689708 eV    
  Monopole - monopole (real) =         -10.02781331 eV    
  Monopole - monopole (recip)=         -29.51099824 eV    
  Monopole - monopole (total)=         -39.53881155 eV    
--------------------------------------------------------------------------------
  Total lattice energy       =         -34.44191447 eV    
--------------------------------------------------------------------------------
  Total lattice energy       =           -3323.1183 kJ/(mole unit cells)
--------------------------------------------------------------------------------

  Final asymmetric unit coordinates :

--------------------------------------------------------------------------------
   No.  Atomic        x           y           z         Radius
        Label       (Frac)      (Frac)      (Frac)       (Angs) 
--------------------------------------------------------------------------------
     1  Cl    c     0.000000    0.000000    0.000000    0.000000
     2  O     c     0.500000    0.500000    0.500000    0.000000
     3  Na    c     0.500000    0.500000    0.000000    0.000000
     4  Cl    s     0.000000    0.000000    0.000000    0.000000
     5  O     s     0.500000    0.500000    0.500000    0.000000
--------------------------------------------------------------------------------

  Final Cartesian lattice vectors (Angstroms) :

        4.507787    0.000000    0.000000
        0.000000    4.507787    0.000000
        0.000000    0.000000    4.507787


  Final cell parameters and derivatives :

--------------------------------------------------------------------------------
       a            4.507787 Angstrom     dE/de1(xx)     0.000000 eV/strain
       b            4.507787 Angstrom     dE/de2(yy)     0.000000 eV/strain
       c            4.507787 Angstrom     dE/de3(zz)     0.000000 eV/strain
       alpha       90.000000 Degrees      dE/de4(yz)     0.000000 eV/strain
       beta        90.000000 Degrees      dE/de5(xz)     0.000000 eV/strain
       gamma       90.000000 Degrees      dE/de6(xy)     0.000000 eV/strain
--------------------------------------------------------------------------------

  Primitive cell volume =            91.598892 Angs**3

  Density of cell =      2.183054 g/cm**3

  Non-primitive cell volume =            91.598892 Angs**3


  Final internal derivatives :

--------------------------------------------------------------------------------
   No.  Atomic          a             b             c           Radius
        Label          (eV)          (eV)          (eV)        (eV/Angs)
--------------------------------------------------------------------------------
      1 Cl    c       0.000000      0.000000      0.000000      0.000000
      2 O     c       0.000000      0.000000      0.000000      0.000000
      3 Na    c       0.000000      0.000000      0.000000      0.000000
      4 Cl    s       0.000000      0.000000      0.000000      0.000000
      5 O     s       0.000000      0.000000      0.000000      0.000000
--------------------------------------------------------------------------------
  Maximum abs         0.000000      0.000000      0.000000      0.000000
--------------------------------------------------------------------------------

  Comparison of initial and final structures : 

--------------------------------------------------------------------------------
  Parameter   Initial value   Final value   Difference    Units      Percent
--------------------------------------------------------------------------------
    Volume        91.368216     91.598892     0.230676    Angs**3      0.25
    a              4.504000      4.507787     0.003787    Angstroms    0.08
    b              4.504000      4.507787     0.003787    Angstroms    0.08
    c              4.504000      4.507787     0.003787    Angstroms    0.08
    alpha         90.000000     90.000000     0.000000    Degrees      0.00
    beta          90.000000     90.000000     0.000000    Degrees      0.00
    gamma         90.000000     90.000000     0.000000    Degrees      0.00
      1 x          0.000000      0.000000     0.000000    Fractional   0.00
      1 y          0.000000      0.000000     0.000000    Fractional   0.00
      1 z          0.000000      0.000000     0.000000    Fractional   0.00
      2 x          0.500000      0.500000     0.000000    Fractional   0.00
      2 y          0.500000      0.500000     0.000000    Fractional   0.00
      2 z          0.500000      0.500000     0.000000    Fractional   0.00
      3 x          0.500000      0.500000     0.000000    Fractional   0.00
      3 y          0.500000      0.500000     0.000000    Fractional   0.00
      3 z          0.000000      0.000000     0.000000    Fractional   0.00
      4 x          0.000000      0.000000     0.000000    Fractional   0.00
      4 y          0.000000      0.000000     0.000000    Fractional   0.00
      4 z          0.000000      0.000000     0.000000    Fractional   0.00
      5 x          0.500000      0.500000     0.000000    Fractional   0.00
      5 y          0.500000      0.500000     0.000000    Fractional   0.00
      5 z          0.500000      0.500000     0.000000    Fractional   0.00
--------------------------------------------------------------------------------


  Born effective charge tensors : 

-------------------------------------------------------------------------------
  Atom             x           y             z
-------------------------------------------------------------------------------
    1 Cl    x      -1.0181     -0.0000      0.0000
            y      -0.0000     -1.0181      0.0000
            z       0.0000      0.0000     -1.0181
-------------------------------------------------------------------------------
    2 O     x      -2.2647      0.0000     -0.0000
            y       0.0000     -2.2647     -0.0000
            z      -0.0000     -0.0000     -2.2647
-------------------------------------------------------------------------------
    3 Na    x       1.2258     -0.0000      0.0000
            y      -0.0000      1.2258     -0.0000
            z       0.0000     -0.0000      0.8313
-------------------------------------------------------------------------------




  Elastic Constant Matrix: (Units=GPa)

-------------------------------------------------------------------------------
  Indices      1         2         3         4         5         6    
-------------------------------------------------------------------------------
       1     95.8177   20.0737   20.0737   -0.0000   -0.0000    0.0000
       2     20.0737   95.8177   20.0737   -0.0000   -0.0000    0.0000
       3     20.0737   20.0737   95.8177   -0.0000   -0.0000    0.0000
       4     -0.0000   -0.0000   -0.0000   20.0737   -0.0000    0.0000
       5     -0.0000   -0.0000   -0.0000   -0.0000   20.0737    0.0000
       6      0.0000    0.0000    0.0000    0.0000    0.0000   20.0737
-------------------------------------------------------------------------------


  Elastic Compliance Matrix: (Units=1/GPa)

-------------------------------------------------------------------------------
  Indices      1         2         3         4         5         6    
-------------------------------------------------------------------------------
       1    0.011253 -0.001949 -0.001949  0.000000  0.000000 -0.000000
       2   -0.001949  0.011253 -0.001949  0.000000  0.000000  0.000000
       3   -0.001949 -0.001949  0.011253  0.000000  0.000000 -0.000000
       4    0.000000  0.000000  0.000000  0.049816  0.000000 -0.000000
       5    0.000000  0.000000  0.000000  0.000000  0.049816 -0.000000
       6   -0.000000  0.000000 -0.000000 -0.000000 -0.000000  0.049816
-------------------------------------------------------------------------------

  Mechanical properties :

-------------------------------------------------------------------------------
  Convention :                    Reuss         Voigt         Hill
-------------------------------------------------------------------------------
  Bulk  Modulus (GPa)     =      45.32174      45.32174      45.32174
  Shear Modulus (GPa)     =      24.72085      27.19304      25.95695
-------------------------------------------------------------------------------
  Velocity S-wave (km/s)  =       3.36511       3.52937       3.44822
  Velocity P-wave (km/s)  =       5.98827       6.11304       6.05098
-------------------------------------------------------------------------------
  Compressibility (1/GPa) =    0.02206447
-------------------------------------------------------------------------------
  Stress axis :                     x             y             z
-------------------------------------------------------------------------------
  Youngs Moduli (GPa)     =      88.86373      88.86373      88.86373
-------------------------------------------------------------------------------
  Poissons Ratio (x)      =                     0.17321       0.17321
  Poissons Ratio (y)      =       0.17321                     0.17321
  Poissons Ratio (z)      =       0.17321       0.17321
-------------------------------------------------------------------------------


  Piezoelectric Strain Matrix: (Units=C/m**2)

-------------------------------------------------------------------------------
  Indices      1         2         3         4         5         6    
-------------------------------------------------------------------------------
       x    -0.00000  -0.00000  -0.00000   0.00000  -0.00000  -0.00000
       y    -0.00000  -0.00000   0.00000  -0.00000   0.00000   0.00000
       z    -0.00000  -0.00000  -0.00000  -0.00000   0.00000   0.00000
-------------------------------------------------------------------------------


  Piezoelectric Stress Matrix: (Units=10**-11 C/N)

-------------------------------------------------------------------------------
  Indices      1         2         3         4         5         6    
-------------------------------------------------------------------------------
       x    -0.00000   0.00000   0.00000   0.00000  -0.00000  -0.00000
       y    -0.00000  -0.00000   0.00000  -0.00000   0.00000   0.00000
       z     0.00000   0.00000  -0.00000  -0.00000   0.00000   0.00000
-------------------------------------------------------------------------------


  Static dielectric constant tensor : 

-------------------------------------------------------------------------------
              x         y         z
-------------------------------------------------------------------------------
       x    22.84729   0.00000   0.00000
       y     0.00000  22.84729  -0.00000
       z     0.00000  -0.00000  22.84729
--------------------------------------------------------------------------------

  High frequency dielectric constant tensor : 

-------------------------------------------------------------------------------
              x         y         z
-------------------------------------------------------------------------------
       x     1.47557   0.00000  -0.00000
       y     0.00000   1.47557  -0.00000
       z    -0.00000  -0.00000   1.47557
-------------------------------------------------------------------------------

  Static refractive indices : 

-------------------------------------------------------------------------------
    1 =    4.77988      2 =    4.77988      3 =    4.77988
-------------------------------------------------------------------------------

  High frequency refractive indices : 

-------------------------------------------------------------------------------
    1 =    1.21473      2 =    1.21473      3 =    1.21473
-------------------------------------------------------------------------------


  Time to end of optimisation =       0.0260 seconds

********************************************************************************
*  Defect calculation for configuration   1 :                                  *
********************************************************************************

  Total number of defects =      3

  Total charge on defect  =  -1.00

  Defect centre is at   0.5000   0.4600   0.0400  Frac

  Region 1 radius =  12.0000      Number of ions =    554

  Number of symmetry inequivalent region 1 ions  =    322

  Region 2 radius =  16.0000      Number of ions =    755

  Number of symmetry inequivalent region 2a ions =    410

  Region 2a mode = 4 : screened electrostatics due to region 1 
                       neglect correction to region 1 forces from 2a
                       region 2a displacements based on defects only

  Region 2a ions will only interact with defects in region 1

  Vacancies:

--------------------------------------------------------------------------------
    Specification type     Symbol/Number         x          y          z
--------------------------------------------------------------------------------
    Fractional                               0.500000   0.500000   0.000000
    Fractional                               0.500000   0.000000   0.500000
--------------------------------------------------------------------------------

  Interstitials:

--------------------------------------------------------------------------------
    Specification type     Symbol/Number         x          y          z
--------------------------------------------------------------------------------
    Atom/Fractional         Na               0.500000   0.460000   0.040000
--------------------------------------------------------------------------------


  Symmetry reduced region 1 (Relative to defect centre) :

--------------------------------------------------------------------------------
   No.   Atomic       x            y             z       Radius  Multiplicity   
         Label      (Angs)       (Angs)        (Angs)    (Angs)     
--------------------------------------------------------------------------------
     1  Na    c      0.0000       0.0000 *     0.0000 *  0.0000     1    Defect
     2  O     c      0.0000       0.1803 *     2.0736 *  0.0000     1          
     3  O     c      0.0000       0.1803 *    -2.4342 *  0.0000     1          
     4  Cl    c      2.2539 *    -2.0736 *    -0.1803 *  0.0000     2          
     5  Na    c      2.2539 *     0.1803 *     2.0736 *  0.0000     2          
     6  Na    c      0.0000       2.4342 *     2.0736 *  0.0000     1          
     7  Na    c      0.0000      -2.0736 *    -2.4342 *  0.0000     1          
     8  Cl    c      2.2539 *     2.4342 *    -0.1803 *  0.0000     2          
     9  Na    c      2.2539 *     0.1803 *    -2.4342 *  0.0000     2          
    10  Na    c      0.0000       2.4342 *    -2.4342 *  0.0000     1          
    11  Na    c      0.0000       0.1803 *     4.3275 *  0.0000     1          
    12  Na    c      0.0000      -4.3275 *    -0.1803 *  0.0000     1          
    13  Na    c     -4.5078 *     0.1803 *    -0.1803 *  0.0000     2          
    14  Na    c      0.0000       4.6881 *    -0.1803 *  0.0000     1          
    15  Na    c      0.0000       0.1803 *    -4.6881 *  0.0000     1          
    16  O     c      0.0000      -4.3275 *     2.0736 *  0.0000     1          
    17  O     c     -4.5078 *     0.1803 *     2.0736 *  0.0000     2          
    18  O     c      0.0000      -4.3275 *    -2.4342 *  0.0000     1          
    19  O     c      0.0000       4.6881 *     2.0736 *  0.0000     1          
    20  O     c     -4.5078 *     0.1803 *    -2.4342 *  0.0000     2          
    21  O     c      0.0000       4.6881 *    -2.4342 *  0.0000     1          
    22  Cl    c      2.2539 *    -2.0736 *     4.3275 *  0.0000     2          
    23  Na    c      2.2539 *    -4.3275 *     2.0736 *  0.0000     2          
    24  Na    c     -4.5078 *    -2.0736 *     2.0736 *  0.0000     2          
    25  Cl    c      2.2539 *     2.4342 *     4.3275 *  0.0000     2          
    26  Na    c      2.2539 *    -4.3275 *    -2.4342 *  0.0000     2          
    27  Na    c     -4.5078 *     2.4342 *     2.0736 *  0.0000     2          
    28  Na    c     -4.5078 *    -2.0736 *    -2.4342 *  0.0000     2          
    29  Na    c      2.2539 *     4.6881 *     2.0736 *  0.0000     2          
    30  Cl    c      2.2539 *    -2.0736 *    -4.6881 *  0.0000     2          
    31  Na    c     -4.5078 *     2.4342 *    -2.4342 *  0.0000     2          
    32  Na    c      2.2539 *     4.6881 *    -2.4342 *  0.0000     2          
    33  Cl    c      2.2539 *     2.4342 *    -4.6881 *  0.0000     2          
    34  Na    c      0.0000      -4.3275 *     4.3275 *  0.0000     1          
    35  Na    c     -4.5078 *     0.1803 *     4.3275 *  0.0000     2          
    36  Na    c     -4.5078 *    -4.3275 *    -0.1803 *  0.0000     2          
    37  Na    c      0.0000       4.6881 *     4.3275 *  0.0000     1          
    38  Na    c      0.0000      -4.3275 *    -4.6881 *  0.0000     1          
    39  Na    c     -4.5078 *     4.6881 *    -0.1803 *  0.0000     2          
    40  Na    c     -4.5078 *     0.1803 *    -4.6881 *  0.0000     2          
    41  O     c      0.0000       0.1803 *     6.5814 *  0.0000     1          
    42  O     c     -4.5078 *    -4.3275 *     2.0736 *  0.0000     2          
    43  Na    c      0.0000       4.6881 *    -4.6881 *  0.0000     1          
    44  O     c     -4.5078 *    -4.3275 *    -2.4342 *  0.0000     2          
    45  O     c     -4.5078 *     4.6881 *     2.0736 *  0.0000     2          
    46  Na    c      0.0000      -2.0736 *     6.5814 *  0.0000     1          
    47  Na    c      0.0000      -6.5814 *     2.0736 *  0.0000     1          
    48  O     c     -4.5078 *     4.6881 *    -2.4342 *  0.0000     2          
    49  O     c      0.0000       0.1803 *    -6.9420 *  0.0000     1          
    50  Cl    c      2.2539 *    -6.5814 *    -0.1803 *  0.0000     2          
    51  Na    c      2.2539 *     0.1803 *     6.5814 *  0.0000     2          
    52  Na    c      0.0000       2.4342 *     6.5814 *  0.0000     1          
    53  Na    c      0.0000      -6.5814 *    -2.4342 *  0.0000     1          
    54  Cl    c      6.7617 *    -2.0736 *    -0.1803 *  0.0000     2          
    55  Na    c      6.7617 *     0.1803 *     2.0736 *  0.0000     2          
    56  Cl    c      6.7617 *     2.4342 *    -0.1803 *  0.0000     2          
    57  Na    c      6.7617 *     0.1803 *    -2.4342 *  0.0000     2          
    58  Na    c      0.0000       6.9420 *     2.0736 *  0.0000     1          
    59  Na    c      0.0000      -2.0736 *    -6.9420 *  0.0000     1          
    60  Cl    c      2.2539 *     6.9420 *    -0.1803 *  0.0000     2          
    61  Na    c      2.2539 *     0.1803 *    -6.9420 *  0.0000     2          
    62  Na    c      0.0000       2.4342 *    -6.9420 *  0.0000     1          
    63  Na    c      0.0000       6.9420 *    -2.4342 *  0.0000     1          
    64  Na    c     -4.5078 *    -4.3275 *     4.3275 *  0.0000     2          
    65  Na    c     -4.5078 *     4.6881 *     4.3275 *  0.0000     2          
    66  Na    c     -4.5078 *    -4.3275 *    -4.6881 *  0.0000     2          
    67  O     c      0.0000      -4.3275 *     6.5814 *  0.0000     1          
    68  O     c     -4.5078 *     0.1803 *     6.5814 *  0.0000     2          
    69  Na    c     -4.5078 *     4.6881 *    -4.6881 *  0.0000     2          
    70  O     c      0.0000       4.6881 *     6.5814 *  0.0000     1          
    71  O     c      0.0000      -4.3275 *    -6.9420 *  0.0000     1          
    72  Cl    c      2.2539 *    -6.5814 *     4.3275 *  0.0000     2          
    73  Na    c      2.2539 *    -4.3275 *     6.5814 *  0.0000     2          
    74  Na    c     -4.5078 *    -6.5814 *     2.0736 *  0.0000     2          
    75  Na    c      4.5078 *    -2.0736 *     6.5814 *  0.0000     2          
    76  O     c      4.5078 *     0.1803 *    -6.9420 *  0.0000     2          
    77  Cl    c      6.7617 *    -2.0736 *     4.3275 *  0.0000     2          
    78  Na    c      6.7617 *    -4.3275 *     2.0736 *  0.0000     2          
    79  Na    c     -4.5078 *    -6.5814 *    -2.4342 *  0.0000     2          
    80  Na    c      4.5078 *     2.4342 *     6.5814 *  0.0000     2          
    81  O     c      0.0000       4.6881 *    -6.9420 *  0.0000     1          
    82  Cl    c      2.2539 *    -6.5814 *    -4.6881 *  0.0000     2          
    83  Cl    c      6.7617 *     2.4342 *     4.3275 *  0.0000     2          
    84  Na    c      2.2539 *     4.6881 *     6.5814 *  0.0000     2          
    85  Na    c      6.7617 *    -4.3275 *    -2.4342 *  0.0000     2          
    86  Cl    c      2.2539 *     6.9420 *     4.3275 *  0.0000     2          
    87  Na    c      2.2539 *    -4.3275 *    -6.9420 *  0.0000     2          
    88  Na    c      6.7617 *     4.6881 *     2.0736 *  0.0000     2          
    89  Cl    c      6.7617 *    -2.0736 *    -4.6881 *  0.0000     2          
    90  Na    c      4.5078 *     6.9420 *     2.0736 *  0.0000     2          
    91  Na    c     -4.5078 *    -2.0736 *    -6.9420 *  0.0000     2          
    92  Cl    c      6.7617 *     2.4342 *    -4.6881 *  0.0000     2          
    93  Na    c      6.7617 *     4.6881 *    -2.4342 *  0.0000     2          
    94  Na    c      4.5078 *     6.9420 *    -2.4342 *  0.0000     2          
    95  Na    c     -4.5078 *     2.4342 *    -6.9420 *  0.0000     2          
    96  Cl    c      2.2539 *     6.9420 *    -4.6881 *  0.0000     2          
    97  Na    c      2.2539 *     4.6881 *    -6.9420 *  0.0000     2          
    98  Na    c      0.0000       0.1803 *     8.8353 *  0.0000     1          
    99  Na    c      0.0000      -8.8353 *    -0.1803 *  0.0000     1          
   100  Na    c      9.0156 *     0.1803 *    -0.1803 *  0.0000     2          
   101  O     c     -4.5078 *    -4.3275 *     6.5814 *  0.0000     2          
   102  O     c      0.0000      -8.8353 *     2.0736 *  0.0000     1          
   103  O     c      0.0000      -8.8353 *    -2.4342 *  0.0000     1          
   104  Na    c      0.0000       9.1959 *    -0.1803 *  0.0000     1          
   105  Na    c      0.0000       0.1803 *    -9.1959 *  0.0000     1          
   106  O     c      9.0156 *     0.1803 *     2.0736 *  0.0000     2          
   107  O     c     -4.5078 *     4.6881 *     6.5814 *  0.0000     2          
   108  Na    c      0.0000      -6.5814 *     6.5814 *  0.0000     1          
   109  O     c      9.0156 *     0.1803 *    -2.4342 *  0.0000     2          
   110  O     c     -4.5078 *    -4.3275 *    -6.9420 *  0.0000     2          
   111  Cl    c      2.2539 *    -2.0736 *     8.8353 *  0.0000     2          
   112  Na    c      2.2539 *    -8.8353 *     2.0736 *  0.0000     2          
   113  O     c      0.0000       9.1959 *     2.0736 *  0.0000     1          
   114  Cl    c      2.2539 *     2.4342 *     8.8353 *  0.0000     2          
   115  Cl    c      6.7617 *    -6.5814 *    -0.1803 *  0.0000     2          
   116  Na    c      2.2539 *    -8.8353 *    -2.4342 *  0.0000     2          
   117  Na    c      6.7617 *     0.1803 *     6.5814 *  0.0000     2          
   118  Na    c      9.0156 *    -2.0736 *     2.0736 *  0.0000     2          
   119  O     c      0.0000       9.1959 *    -2.4342 *  0.0000     1          
   120  O     c      4.5078 *     4.6881 *    -6.9420 *  0.0000     2          
   121  Na    c      9.0156 *     2.4342 *     2.0736 *  0.0000     2          
   122  Na    c      9.0156 *    -2.0736 *    -2.4342 *  0.0000     2          
   123  Na    c      0.0000       6.9420 *     6.5814 *  0.0000     1          
   124  Na    c      0.0000      -6.5814 *    -6.9420 *  0.0000     1          
   125  Na    c      9.0156 *     2.4342 *    -2.4342 *  0.0000     2          
   126  Na    c      2.2539 *     9.1959 *     2.0736 *  0.0000     2          
   127  Cl    c      2.2539 *    -2.0736 *    -9.1959 *  0.0000     2          
   128  Cl    c      6.7617 *     6.9420 *    -0.1803 *  0.0000     2          
   129  Na    c      6.7617 *     0.1803 *    -6.9420 *  0.0000     2          
   130  Na    c      2.2539 *     9.1959 *    -2.4342 *  0.0000     2          
   131  Cl    c      2.2539 *     2.4342 *    -9.1959 *  0.0000     2          
   132  Na    c      0.0000       6.9420 *    -6.9420 *  0.0000     1          
   133  Na    c      0.0000      -4.3275 *     8.8353 *  0.0000     1          
   134  Na    c      0.0000      -8.8353 *     4.3275 *  0.0000     1          
   135  Na    c      4.5078 *     0.1803 *     8.8353 *  0.0000     2          
   136  Na    c     -4.5078 *    -8.8353 *    -0.1803 *  0.0000     2          
   137  Na    c      0.0000       4.6881 *     8.8353 *  0.0000     1          
   138  Na    c      9.0156 *     0.1803 *     4.3275 *  0.0000     2          
   139  Na    c      9.0156 *    -4.3275 *    -0.1803 *  0.0000     2          
   140  Na    c      0.0000      -8.8353 *    -4.6881 *  0.0000     1          
   141  O     c     -4.5078 *    -8.8353 *     2.0736 *  0.0000     2          
   142  Na    c      0.0000       9.1959 *     4.3275 *  0.0000     1          
   143  Na    c      9.0156 *     4.6881 *    -0.1803 *  0.0000     2          
   144  Na    c      0.0000      -4.3275 *    -9.1959 *  0.0000     1          
   145  Na    c      9.0156 *     0.1803 *    -4.6881 *  0.0000     2          
   146  O     c      9.0156 *    -4.3275 *     2.0736 *  0.0000     2          
   147  O     c     -4.5078 *    -8.8353 *    -2.4342 *  0.0000     2          
   148  Na    c     -4.5078 *     9.1959 *    -0.1803 *  0.0000     2          
   149  Na    c      4.5078 *     0.1803 *    -9.1959 *  0.0000     2          
   150  O     c      9.0156 *    -4.3275 *    -2.4342 *  0.0000     2          
   151  Na    c      0.0000       9.1959 *    -4.6881 *  0.0000     1          
   152  Na    c      0.0000       4.6881 *    -9.1959 *  0.0000     1          
   153  Na    c     -4.5078 *    -6.5814 *     6.5814 *  0.0000     2          
   154  O     c      9.0156 *     4.6881 *     2.0736 *  0.0000     2          
   155  Cl    c      6.7617 *    -6.5814 *     4.3275 *  0.0000     2          
   156  Na    c      6.7617 *    -4.3275 *     6.5814 *  0.0000     2          
   157  O     c     -4.5078 *     9.1959 *     2.0736 *  0.0000     2          
   158  O     c      9.0156 *     4.6881 *    -2.4342 *  0.0000     2          
   159  O     c     -4.5078 *     9.1959 *    -2.4342 *  0.0000     2          
   160  Na    c      6.7617 *     4.6881 *     6.5814 *  0.0000     2          
   161  Cl    c      6.7617 *    -6.5814 *    -4.6881 *  0.0000     2          
   162  Na    c      4.5078 *     6.9420 *     6.5814 *  0.0000     2          
   163  Na    c      4.5078 *    -6.5814 *    -6.9420 *  0.0000     2          
   164  Cl    c      6.7617 *     6.9420 *     4.3275 *  0.0000     2          
   165  Na    c      6.7617 *    -4.3275 *    -6.9420 *  0.0000     2          
   166  Cl    c      6.7617 *     6.9420 *    -4.6881 *  0.0000     2          
   167  Na    c      6.7617 *     4.6881 *    -6.9420 *  0.0000     2          
   168  Na    c      4.5078 *     6.9420 *    -6.9420 *  0.0000     2          
   169  Na    c     -4.5078 *    -4.3275 *     8.8353 *  0.0000     2          
   170  Na    c      4.5078 *    -8.8353 *     4.3275 *  0.0000     2          
   171  Na    c      9.0156 *    -4.3275 *     4.3275 *  0.0000     2          
   172  Na    c     -4.5078 *     4.6881 *     8.8353 *  0.0000     2          
   173  Na    c      4.5078 *    -8.8353 *    -4.6881 *  0.0000     2          
   174  O     c      0.0000      -8.8353 *     6.5814 *  0.0000     1          
   175  Na    c      9.0156 *     4.6881 *     4.3275 *  0.0000     2          
   176  Na    c      9.0156 *    -4.3275 *    -4.6881 *  0.0000     2          
   177  O     c      0.0000       0.1803 *    11.0892 *  0.0000     1          
   178  Na    c      4.5078 *     9.1959 *     4.3275 *  0.0000     2          
   179  Na    c     -4.5078 *    -4.3275 *    -9.1959 *  0.0000     2          
   180  O     c      9.0156 *     0.1803 *     6.5814 *  0.0000     2          
   181  Na    c      9.0156 *     4.6881 *    -4.6881 *  0.0000     2          
   182  O     c      0.0000      -8.8353 *    -6.9420 *  0.0000     1          
   183  Cl    c      2.2539 *    -6.5814 *     8.8353 *  0.0000     2          
   184  Na    c      2.2539 *    -8.8353 *     6.5814 *  0.0000     2          
   185  Na    c      4.5078 *     9.1959 *    -4.6881 *  0.0000     2          
   186  Na    c     -4.5078 *     4.6881 *    -9.1959 *  0.0000     2          
   187  Na    c      0.0000      -2.0736 *    11.0892 *  0.0000     1          
   188  Na    c      0.0000     -11.0892 *     2.0736 *  0.0000     1          
   189  O     c      0.0000       9.1959 *     6.5814 *  0.0000     1          
   190  Cl    c      2.2539 *   -11.0892 *    -0.1803 *  0.0000     2          
   191  Na    c      2.2539 *     0.1803 *    11.0892 *  0.0000     2          
   192  Cl    c      6.7617 *    -2.0736 *     8.8353 *  0.0000     2          
   193  Na    c      6.7617 *    -8.8353 *     2.0736 *  0.0000     2          
   194  Na    c      0.0000       2.4342 *    11.0892 *  0.0000     1          
   195  Na    c      0.0000     -11.0892 *    -2.4342 *  0.0000     1          
   196  Na    c      9.0156 *    -2.0736 *     6.5814 *  0.0000     2          
   197  Na    c      9.0156 *    -6.5814 *     2.0736 *  0.0000     2          
   198  O     c      9.0156 *     0.1803 *    -6.9420 *  0.0000     2          
   199  Cl    c      6.7617 *     2.4342 *     8.8353 *  0.0000     2          
   200  Na    c      6.7617 *    -8.8353 *    -2.4342 *  0.0000     2          
   201  Na    c      9.0156 *     2.4342 *     6.5814 *  0.0000     2          
   202  Na    c      9.0156 *    -6.5814 *    -2.4342 *  0.0000     2          
   203  O     c      0.0000       0.1803 *   -11.4498 *  0.0000     1          
   204  Cl    c      2.2539 *     6.9420 *     8.8353 *  0.0000     2          
   205  Cl    c     11.2695 *    -2.0736 *    -0.1803 *  0.0000     2          
   206  Na    c     11.2695 *     0.1803 *     2.0736 *  0.0000     2          
   207  Na    c      2.2539 *    -8.8353 *    -6.9420 *  0.0000     2          
   208  O     c      0.0000       9.1959 *    -6.9420 *  0.0000     1          
   209  Cl    c      2.2539 *    -6.5814 *    -9.1959 *  0.0000     2          
   210  Cl    c     11.2695 *     2.4342 *    -0.1803 *  0.0000     2          
   211  Na    c      2.2539 *     9.1959 *     6.5814 *  0.0000     2          
   212  Na    c     11.2695 *     0.1803 *    -2.4342 *  0.0000     2          
   213  Na    c      9.0156 *     6.9420 *     2.0736 *  0.0000     2          
   214  Na    c      9.0156 *    -2.0736 *    -6.9420 *  0.0000     2          
   215  Na    c      6.7617 *     9.1959 *     2.0736 *  0.0000     2          
   216  Cl    c      6.7617 *    -2.0736 *    -9.1959 *  0.0000     2          
   217  Na    c      0.0000      11.4498 *     2.0736 *  0.0000     1          
   218  Na    c      0.0000      -2.0736 *   -11.4498 *  0.0000     1          
   219  Na    c      9.0156 *     2.4342 *    -6.9420 *  0.0000     2          
   220  Na    c      9.0156 *     6.9420 *    -2.4342 *  0.0000     2          
   221  Cl    c      2.2539 *    11.4498 *    -0.1803 *  0.0000     2          
   222  Cl    c      6.7617 *     2.4342 *    -9.1959 *  0.0000     2          
   223  Na    c      2.2539 *     0.1803 *   -11.4498 *  0.0000     2          
   224  Na    c      6.7617 *     9.1959 *    -2.4342 *  0.0000     2          
   225  Na    c      0.0000       2.4342 *   -11.4498 *  0.0000     1          
   226  Na    c      0.0000      11.4498 *    -2.4342 *  0.0000     1          
   227  Na    c      2.2539 *     9.1959 *    -6.9420 *  0.0000     2          
   228  Cl    c      2.2539 *     6.9420 *    -9.1959 *  0.0000     2          
   229  O     c      0.0000      -4.3275 *    11.0892 *  0.0000     1          
   230  O     c     -4.5078 *    -8.8353 *     6.5814 *  0.0000     2          
   231  O     c      4.5078 *     0.1803 *    11.0892 *  0.0000     2          
   232  O     c      9.0156 *    -4.3275 *     6.5814 *  0.0000     2          
   233  O     s      0.0000       0.1803 *     2.0736 *  0.0000     1          
   234  O     s      0.0000       0.1803 *    -2.4342 *  0.0000     1          
   235  Cl    s      2.2539 *    -2.0736 *    -0.1803 *  0.0000     2          
   236  Cl    s      2.2539 *     2.4342 *    -0.1803 *  0.0000     2          
   237  O     s      0.0000      -4.3275 *     2.0736 *  0.0000     1          
   238  O     s     -4.5078 *     0.1803 *     2.0736 *  0.0000     2          
   239  O     s      0.0000      -4.3275 *    -2.4342 *  0.0000     1          
   240  O     s      0.0000       4.6881 *     2.0736 *  0.0000     1          
   241  O     s     -4.5078 *     0.1803 *    -2.4342 *  0.0000     2          
   242  O     s      0.0000       4.6881 *    -2.4342 *  0.0000     1          
   243  Cl    s      2.2539 *    -2.0736 *     4.3275 *  0.0000     2          
   244  Cl    s      2.2539 *     2.4342 *     4.3275 *  0.0000     2          
   245  Cl    s      2.2539 *    -2.0736 *    -4.6881 *  0.0000     2          
   246  Cl    s      2.2539 *     2.4342 *    -4.6881 *  0.0000     2          
   247  O     s      0.0000       0.1803 *     6.5814 *  0.0000     1          
   248  O     s     -4.5078 *    -4.3275 *     2.0736 *  0.0000     2          
   249  O     s     -4.5078 *    -4.3275 *    -2.4342 *  0.0000     2          
   250  O     s     -4.5078 *     4.6881 *     2.0736 *  0.0000     2          
   251  O     s     -4.5078 *     4.6881 *    -2.4342 *  0.0000     2          
   252  O     s      0.0000       0.1803 *    -6.9420 *  0.0000     1          
   253  Cl    s      2.2539 *    -6.5814 *    -0.1803 *  0.0000     2          
   254  Cl    s      6.7617 *    -2.0736 *    -0.1803 *  0.0000     2          
   255  Cl    s      6.7617 *     2.4342 *    -0.1803 *  0.0000     2          
   256  Cl    s      2.2539 *     6.9420 *    -0.1803 *  0.0000     2          
   257  O     s      0.0000      -4.3275 *     6.5814 *  0.0000     1          
   258  O     s     -4.5078 *     0.1803 *     6.5814 *  0.0000     2          
   259  O     s      0.0000       4.6881 *     6.5814 *  0.0000     1          
   260  O     s      0.0000      -4.3275 *    -6.9420 *  0.0000     1          
   261  Cl    s      2.2539 *    -6.5814 *     4.3275 *  0.0000     2          
   262  O     s      4.5078 *     0.1803 *    -6.9420 *  0.0000     2          
   263  Cl    s      6.7617 *    -2.0736 *     4.3275 *  0.0000     2          
   264  O     s      0.0000       4.6881 *    -6.9420 *  0.0000     1          
   265  Cl    s      2.2539 *    -6.5814 *    -4.6881 *  0.0000     2          
   266  Cl    s      6.7617 *     2.4342 *     4.3275 *  0.0000     2          
   267  Cl    s      2.2539 *     6.9420 *     4.3275 *  0.0000     2          
   268  Cl    s      6.7617 *    -2.0736 *    -4.6881 *  0.0000     2          
   269  Cl    s      6.7617 *     2.4342 *    -4.6881 *  0.0000     2          
   270  Cl    s      2.2539 *     6.9420 *    -4.6881 *  0.0000     2          
   271  O     s     -4.5078 *    -4.3275 *     6.5814 *  0.0000     2          
   272  O     s      0.0000      -8.8353 *     2.0736 *  0.0000     1          
   273  O     s      0.0000      -8.8353 *    -2.4342 *  0.0000     1          
   274  O     s      9.0156 *     0.1803 *     2.0736 *  0.0000     2          
   275  O     s     -4.5078 *     4.6881 *     6.5814 *  0.0000     2          
   276  O     s      9.0156 *     0.1803 *    -2.4342 *  0.0000     2          
   277  O     s     -4.5078 *    -4.3275 *    -6.9420 *  0.0000     2          
   278  Cl    s      2.2539 *    -2.0736 *     8.8353 *  0.0000     2          
   279  O     s      0.0000       9.1959 *     2.0736 *  0.0000     1          
   280  Cl    s      2.2539 *     2.4342 *     8.8353 *  0.0000     2          
   281  Cl    s      6.7617 *    -6.5814 *    -0.1803 *  0.0000     2          
   282  O     s      0.0000       9.1959 *    -2.4342 *  0.0000     1          
   283  O     s      4.5078 *     4.6881 *    -6.9420 *  0.0000     2          
   284  Cl    s      2.2539 *    -2.0736 *    -9.1959 *  0.0000     2          
   285  Cl    s      6.7617 *     6.9420 *    -0.1803 *  0.0000     2          
   286  Cl    s      2.2539 *     2.4342 *    -9.1959 *  0.0000     2          
   287  O     s     -4.5078 *    -8.8353 *     2.0736 *  0.0000     2          
   288  O     s      9.0156 *    -4.3275 *     2.0736 *  0.0000     2          
   289  O     s     -4.5078 *    -8.8353 *    -2.4342 *  0.0000     2          
   290  O     s      9.0156 *    -4.3275 *    -2.4342 *  0.0000     2          
   291  O     s      9.0156 *     4.6881 *     2.0736 *  0.0000     2          
   292  Cl    s      6.7617 *    -6.5814 *     4.3275 *  0.0000     2          
   293  O     s     -4.5078 *     9.1959 *     2.0736 *  0.0000     2          
   294  O     s      9.0156 *     4.6881 *    -2.4342 *  0.0000     2          
   295  O     s     -4.5078 *     9.1959 *    -2.4342 *  0.0000     2          
   296  Cl    s      6.7617 *    -6.5814 *    -4.6881 *  0.0000     2          
   297  Cl    s      6.7617 *     6.9420 *     4.3275 *  0.0000     2          
   298  Cl    s      6.7617 *     6.9420 *    -4.6881 *  0.0000     2          
   299  O     s      0.0000      -8.8353 *     6.5814 *  0.0000     1          
   300  O     s      0.0000       0.1803 *    11.0892 *  0.0000     1          
   301  O     s      9.0156 *     0.1803 *     6.5814 *  0.0000     2          
   302  O     s      0.0000      -8.8353 *    -6.9420 *  0.0000     1          
   303  Cl    s      2.2539 *    -6.5814 *     8.8353 *  0.0000     2          
   304  O     s      0.0000       9.1959 *     6.5814 *  0.0000     1          
   305  Cl    s      2.2539 *   -11.0892 *    -0.1803 *  0.0000     2          
   306  Cl    s      6.7617 *    -2.0736 *     8.8353 *  0.0000     2          
   307  O     s      9.0156 *     0.1803 *    -6.9420 *  0.0000     2          
   308  Cl    s      6.7617 *     2.4342 *     8.8353 *  0.0000     2          
   309  O     s      0.0000       0.1803 *   -11.4498 *  0.0000     1          
   310  Cl    s      2.2539 *     6.9420 *     8.8353 *  0.0000     2          
   311  Cl    s     11.2695 *    -2.0736 *    -0.1803 *  0.0000     2          
   312  O     s      0.0000       9.1959 *    -6.9420 *  0.0000     1          
   313  Cl    s      2.2539 *    -6.5814 *    -9.1959 *  0.0000     2          
   314  Cl    s     11.2695 *     2.4342 *    -0.1803 *  0.0000     2          
   315  Cl    s      6.7617 *    -2.0736 *    -9.1959 *  0.0000     2          
   316  Cl    s      2.2539 *    11.4498 *    -0.1803 *  0.0000     2          
   317  Cl    s      6.7617 *     2.4342 *    -9.1959 *  0.0000     2          
   318  Cl    s      2.2539 *     6.9420 *    -9.1959 *  0.0000     2          
   319  O     s      0.0000      -4.3275 *    11.0892 *  0.0000     1          
   320  O     s     -4.5078 *    -8.8353 *     6.5814 *  0.0000     2          
   321  O     s      4.5078 *     0.1803 *    11.0892 *  0.0000     2          
   322  O     s      9.0156 *    -4.3275 *     6.5814 *  0.0000     2          
--------------------------------------------------------------------------------

  Components of defect energy : 

--------------------------------------------------------------------------------
  Region 1 - region 1                   =      2.55301231 eV
  Region 1 - region 2a (unrelaxed)      =      5.81385605 eV
  Region 1 - 2a (relaxed - correction)  =     -0.30958746 eV
  Region 1 (Total)                      =      8.05728090 eV
  Region 2a                             =      0.15468999 eV
  Region 2b                             =     -0.43831521 eV
--------------------------------------------------------------------------------
  Total defect energy                   =      7.77365568 eV
--------------------------------------------------------------------------------

  Largest displacement in region 2 =   0.0324 Angstroms


  Number of variables =      876

  Maximum number of calculations  =        1000
  Maximum Hessian update interval =          10
  Maximum step size               =   1.0000000
  Maximum parameter tolerance     =   0.0000100
  Maximum function  tolerance     =   0.0000100
  Maximum gradient  tolerance     =   0.0010000

  Symmetry adapted optimisation

  Symmetry to be used for second derivatives

  Newton-Raphson optimiser to be used

  BFGS hessian update to be used

  Lower half triangular hessian to be used

  Start of defect optimisation :

  Cycle:      0 Defect Energy:   7.773656  Gnorm:     0.019006  CPU:    5.482
  ** Hessian calculated **
  Cycle:      1 Defect Energy:   6.039846  Gnorm:     0.007591  CPU:   10.376
  Cycle:      2 Defect Energy:   5.412855  Gnorm:     0.005663  CPU:   14.582
  Cycle:      3 Defect Energy:   5.283316  Gnorm:     0.003517  CPU:   17.770
  Cycle:      4 Defect Energy:   5.232288  Gnorm:     0.003380  CPU:   18.673
  Cycle:      5 Defect Energy:   5.162770  Gnorm:     0.002721  CPU:   19.722
  Cycle:      6 Defect Energy:   5.073345  Gnorm:     0.002274  CPU:   20.564
  Cycle:      7 Defect Energy:   4.974864  Gnorm:     0.001979  CPU:   21.438
  Cycle:      8 Defect Energy:   4.911803  Gnorm:     0.001694  CPU:   22.319
  Cycle:      9 Defect Energy:   4.862885  Gnorm:     0.001798  CPU:   23.212
  Cycle:     10 Defect Energy:   4.813943  Gnorm:     0.001904  CPU:   24.147
  ** Hessian calculated **
  Cycle:     11 Defect Energy:   4.795085  Gnorm:     0.001563  CPU:   26.392
  Cycle:     12 Defect Energy:   4.772282  Gnorm:     0.001489  CPU:   27.242
  Cycle:     13 Defect Energy:   4.743204  Gnorm:     0.001468  CPU:   28.093
  Cycle:     14 Defect Energy:   4.709171  Gnorm:     0.001433  CPU:   29.014
  Cycle:     15 Defect Energy:   4.682020  Gnorm:     0.001364  CPU:   29.813
  Cycle:     16 Defect Energy:   4.660105  Gnorm:     0.001341  CPU:   30.605
  Cycle:     17 Defect Energy:   4.639109  Gnorm:     0.001331  CPU:   31.425
  Cycle:     18 Defect Energy:   4.617263  Gnorm:     0.001284  CPU:   32.215
  Cycle:     19 Defect Energy:   4.596010  Gnorm:     0.001251  CPU:   33.040
  Cycle:     20 Defect Energy:   4.573618  Gnorm:     0.001203  CPU:   33.903
  ** Hessian calculated **
  Cycle:     21 Defect Energy:   4.566596  Gnorm:     0.001136  CPU:   39.763
  Cycle:     22 Defect Energy:   4.557367  Gnorm:     0.001113  CPU:   40.747
  Cycle:     23 Defect Energy:   4.545450  Gnorm:     0.001078  CPU:   41.739
  Cycle:     24 Defect Energy:   4.531948  Gnorm:     0.001057  CPU:   42.713
  Cycle:     25 Defect Energy:   4.522044  Gnorm:     0.001015  CPU:   43.676
  Cycle:     26 Defect Energy:   4.514820  Gnorm:     0.000999  CPU:   44.716
  Cycle:     27 Defect Energy:   4.507543  Gnorm:     0.000994  CPU:   45.649
  Cycle:     28 Defect Energy:   4.498964  Gnorm:     0.000991  CPU:   46.600
  Cycle:     29 Defect Energy:   4.488252  Gnorm:     0.000985  CPU:   47.569
  Cycle:     30 Defect Energy:   4.476164  Gnorm:     0.000986  CPU:   48.515
  ** Hessian calculated **
  Cycle:     31 Defect Energy:   4.455292  Gnorm:     0.000871  CPU:   51.106
  Cycle:     32 Defect Energy:   4.438341  Gnorm:     0.000743  CPU:   51.984
  ** Hessian calculated **
  Cycle:     33 Defect Energy:   4.408992  Gnorm:     0.000536  CPU:   54.436
  Cycle:     34 Defect Energy:   4.395348  Gnorm:     0.000339  CPU:   55.312
  Cycle:     35 Defect Energy:   4.390082  Gnorm:     0.000267  CPU:   56.194
  Cycle:     36 Defect Energy:   4.386166  Gnorm:     0.000087  CPU:   57.071
  Cycle:     37 Defect Energy:   4.385161  Gnorm:     0.000066  CPU:   57.953
  Cycle:     38 Defect Energy:   4.384477  Gnorm:     0.000061  CPU:   58.923
  Cycle:     39 Defect Energy:   4.384079  Gnorm:     0.000055  CPU:   59.444
  Cycle:     40 Defect Energy:   4.383729  Gnorm:     0.000047  CPU:   60.200
  Cycle:     41 Defect Energy:   4.383396  Gnorm:     0.000038  CPU:   61.037
  Cycle:     42 Defect Energy:   4.383089  Gnorm:     0.000029  CPU:   61.919
  ** Hessian calculated **
  Cycle:     43 Defect Energy:   4.382631  Gnorm:     0.000025  CPU:   64.274
  Cycle:     44 Defect Energy:   4.381932  Gnorm:     0.000036  CPU:   65.085
  ** Hessian calculated **
  Cycle:     45 Defect Energy:   4.381922  Gnorm:     0.000021  CPU:   67.267
  Cycle:     46 Defect Energy:   4.381906  Gnorm:     0.000016  CPU:   68.230
  Cycle:     47 Defect Energy:   4.381889  Gnorm:     0.000016  CPU:   69.786
  Cycle:     48 Defect Energy:   4.381856  Gnorm:     0.000018  CPU:   72.907
  Cycle:     49 Defect Energy:   4.381831  Gnorm:     0.000022  CPU:   73.935
  Cycle:     50 Defect Energy:   4.381771  Gnorm:     0.000029  CPU:   74.998
  Cycle:     51 Defect Energy:   4.381738  Gnorm:     0.000034  CPU:   76.095
  Cycle:     52 Defect Energy:   4.381675  Gnorm:     0.000039  CPU:   77.243
  Cycle:     53 Defect Energy:   4.381617  Gnorm:     0.000047  CPU:   78.266
  Cycle:     54 Defect Energy:   4.381523  Gnorm:     0.000056  CPU:   79.231
  ** Hessian calculated **
  Cycle:     55 Defect Energy:   4.381503  Gnorm:     0.000051  CPU:   81.902
  Cycle:     56 Defect Energy:   4.381474  Gnorm:     0.000050  CPU:   82.792
  Cycle:     57 Defect Energy:   4.381441  Gnorm:     0.000049  CPU:   83.670
  Cycle:     58 Defect Energy:   4.381386  Gnorm:     0.000048  CPU:   84.574
  Cycle:     59 Defect Energy:   4.381336  Gnorm:     0.000048  CPU:   85.473
  Cycle:     60 Defect Energy:   4.381270  Gnorm:     0.000048  CPU:   86.470
  Cycle:     61 Defect Energy:   4.381226  Gnorm:     0.000054  CPU:   87.318
  Cycle:     62 Defect Energy:   4.381123  Gnorm:     0.000056  CPU:   88.238
  Cycle:     63 Defect Energy:   4.381010  Gnorm:     0.000067  CPU:   89.169
  Cycle:     64 Defect Energy:   4.380802  Gnorm:     0.000085  CPU:   89.986
  ** Hessian calculated **
  Cycle:     65 Defect Energy:   4.380723  Gnorm:     0.000078  CPU:   92.386
  Cycle:     66 Defect Energy:   4.380608  Gnorm:     0.000075  CPU:   93.207
  Cycle:     67 Defect Energy:   4.380457  Gnorm:     0.000074  CPU:   94.016
  Cycle:     68 Defect Energy:   4.380249  Gnorm:     0.000073  CPU:   94.830
  Cycle:     69 Defect Energy:   4.379981  Gnorm:     0.000078  CPU:   95.744
  Cycle:     70 Defect Energy:   4.379641  Gnorm:     0.000090  CPU:   96.557
  Cycle:     71 Defect Energy:   4.379142  Gnorm:     0.000119  CPU:   97.343
  Cycle:     72 Defect Energy:   4.378496  Gnorm:     0.000152  CPU:   98.128
  Cycle:     73 Defect Energy:   4.377352  Gnorm:     0.000214  CPU:   98.928
  Cycle:     74 Defect Energy:   4.375588  Gnorm:     0.000309  CPU:   99.718
  ** Hessian calculated **
  Cycle:     75 Defect Energy:   4.374054  Gnorm:     0.000287  CPU:  101.662
  Cycle:     76 Defect Energy:   4.371938  Gnorm:     0.000281  CPU:  105.627
  Cycle:     77 Defect Energy:   4.368988  Gnorm:     0.000271  CPU:  107.436
  Cycle:     78 Defect Energy:   4.364981  Gnorm:     0.000272  CPU:  108.408
  Cycle:     79 Defect Energy:   4.359797  Gnorm:     0.000289  CPU:  109.388
  Cycle:     80 Defect Energy:   4.353141  Gnorm:     0.000344  CPU:  110.355
  Cycle:     81 Defect Energy:   4.346762  Gnorm:     0.000434  CPU:  111.330
  Cycle:     82 Defect Energy:   4.339649  Gnorm:     0.000515  CPU:  112.339
  Cycle:     83 Defect Energy:   4.332690  Gnorm:     0.000637  CPU:  113.370
  Cycle:     84 Defect Energy:   4.325340  Gnorm:     0.000722  CPU:  114.287
  ** Hessian calculated **
  Cycle:     85 Defect Energy:   4.319951  Gnorm:     0.000689  CPU:  116.812
  Cycle:     86 Defect Energy:   4.312378  Gnorm:     0.000675  CPU:  117.768
  Cycle:     87 Defect Energy:   4.302539  Gnorm:     0.000657  CPU:  118.649
  Cycle:     88 Defect Energy:   4.289804  Gnorm:     0.000641  CPU:  119.522
  Cycle:     89 Defect Energy:   4.277794  Gnorm:     0.000655  CPU:  120.412
  Cycle:     90 Defect Energy:   4.268912  Gnorm:     0.000664  CPU:  121.288
  Cycle:     91 Defect Energy:   4.261652  Gnorm:     0.000712  CPU:  122.271
  Cycle:     92 Defect Energy:   4.254418  Gnorm:     0.000751  CPU:  123.108
  Cycle:     93 Defect Energy:   4.247512  Gnorm:     0.000802  CPU:  123.941
  Cycle:     94 Defect Energy:   4.240415  Gnorm:     0.000848  CPU:  124.820
  ** Hessian calculated **
  Cycle:     95 Defect Energy:   4.237491  Gnorm:     0.000837  CPU:  127.243
  Cycle:     96 Defect Energy:   4.233350  Gnorm:     0.000836  CPU:  128.061
  Cycle:     97 Defect Energy:   4.227539  Gnorm:     0.000830  CPU:  128.889
  Cycle:     98 Defect Energy:   4.219693  Gnorm:     0.000827  CPU:  129.705
  Cycle:     99 Defect Energy:   4.210239  Gnorm:     0.000846  CPU:  130.530
  Cycle:    100 Defect Energy:   4.203158  Gnorm:     0.000849  CPU:  131.351
  Cycle:    101 Defect Energy:   4.198088  Gnorm:     0.000875  CPU:  132.257
  Cycle:    102 Defect Energy:   4.193361  Gnorm:     0.000876  CPU:  133.048
  Cycle:    103 Defect Energy:   4.188663  Gnorm:     0.000898  CPU:  133.845
  Cycle:    104 Defect Energy:   4.182652  Gnorm:     0.000914  CPU:  134.653
  ** Hessian calculated **
  Cycle:    105 Defect Energy:   4.180897  Gnorm:     0.000902  CPU:  136.880
  Cycle:    106 Defect Energy:   4.178292  Gnorm:     0.000897  CPU:  137.707
  Cycle:    107 Defect Energy:   4.174830  Gnorm:     0.000884  CPU:  141.691
  Cycle:    108 Defect Energy:   4.170302  Gnorm:     0.000869  CPU:  143.255
  Cycle:    109 Defect Energy:   4.166436  Gnorm:     0.000858  CPU:  144.230
  Cycle:    110 Defect Energy:   4.163648  Gnorm:     0.000847  CPU:  145.232
  Cycle:    111 Defect Energy:   4.161312  Gnorm:     0.000839  CPU:  146.206
  Cycle:    112 Defect Energy:   4.159171  Gnorm:     0.000832  CPU:  147.213
  Cycle:    113 Defect Energy:   4.156632  Gnorm:     0.000825  CPU:  148.503
  Cycle:    114 Defect Energy:   4.153486  Gnorm:     0.000818  CPU:  149.422
  ** Hessian calculated **
  Cycle:    115 Defect Energy:   4.144804  Gnorm:     0.000786  CPU:  151.895
  Cycle:    116 Defect Energy:   4.127961  Gnorm:     0.000702  CPU:  152.918
  Cycle:    117 Defect Energy:   4.097748  Gnorm:     0.000449  CPU:  153.841
  Cycle:    118 Defect Energy:   4.086174  Gnorm:     0.000328  CPU:  154.718
  Cycle:    119 Defect Energy:   4.078913  Gnorm:     0.000138  CPU:  155.602
  Cycle:    120 Defect Energy:   4.077680  Gnorm:     0.000091  CPU:  156.480
  Cycle:    121 Defect Energy:   4.077201  Gnorm:     0.000064  CPU:  157.370
  Cycle:    122 Defect Energy:   4.076962  Gnorm:     0.000045  CPU:  158.346
  Cycle:    123 Defect Energy:   4.076839  Gnorm:     0.000031  CPU:  159.183
  Cycle:    124 Defect Energy:   4.076775  Gnorm:     0.000022  CPU:  160.048
  ** Hessian calculated **
  Cycle:    125 Defect Energy:   4.076739  Gnorm:     0.000015  CPU:  162.432
  Cycle:    126 Defect Energy:   4.076720  Gnorm:     0.000011  CPU:  163.285
  Cycle:    127 Defect Energy:   4.076708  Gnorm:     0.000007  CPU:  164.104


  **** Optimisation achieved ****


  Final defect energy  =        4.07670150
  Final defect Gnorm   =        0.00000524

  Components of defect energy : 

--------------------------------------------------------------------------------
  Region 1 - region 1                   =     -1.87949093 eV
  Region 1 - region 2a (unrelaxed)      =      6.49862387 eV
  Region 1 - 2a (relaxed - correction)  =     -0.22311358 eV
  Region 1 (Total)                      =      4.39601937 eV
  Region 2a                             =      0.11133497 eV
  Region 2b                             =     -0.43065284 eV
--------------------------------------------------------------------------------
  Total defect energy                   =      4.07670150 eV
--------------------------------------------------------------------------------

  Largest displacement in region 2 =   0.0317 Angstroms

  Final coordinates of region 1 :

--------------------------------------------------------------------------------
   No.  Atomic        x           y           z          Radius      Charge
        Label       (Angs)      (Angs)      (Angs)       (Angs)       (e) 
--------------------------------------------------------------------------------
     1  Na    c     2.253894    1.786992    0.060176    0.000000    1.000000
     2  O     c     2.253894    2.444471    2.193247    0.000000    0.183000
     3  O     c     2.253894    2.267840   -2.217555    0.000000    0.183000
     4  Cl    c     4.568453    0.003653   -0.138381    0.000000    1.485000
     5  Cl    c    -0.060666    0.003653   -0.138381    0.000000    1.485000
     6  Na    c     4.400179    1.857139    2.288719    0.000000    1.000000
     7  Na    c     0.107608    1.857139    2.288719    0.000000    1.000000
     8  Na    c     2.253894    4.587758    1.765338    0.000000    1.000000
     9  Na    c     2.253894    0.007515   -2.607679    0.000000    1.000000
    10  Cl    c     4.548615    4.681035   -0.113714    0.000000    1.485000
    11  Cl    c    -0.040828    4.681035   -0.113714    0.000000    1.485000
    12  Na    c     4.504235    2.321127   -2.181921    0.000000    1.000000
    13  Na    c     0.003552    2.321127   -2.181921    0.000000    1.000000
    14  Na    c     2.253894    4.513855   -1.808763    0.000000    1.000000
    15  Na    c     2.253894    2.614430    4.414207    0.000000    1.000000
    16  Na    c     2.253894   -1.780398    0.059802    0.000000    1.000000
    17  Na    c    -2.251520    1.883982    0.013217    0.000000    1.000000
    18  Na    c     6.759307    1.883982    0.013217    0.000000    1.000000
    19  Na    c     2.253894    7.190193   -0.012895    0.000000    1.000000
    20  Na    c     2.253894    2.628536   -4.473980    0.000000    1.000000
    21  O     c     2.253894   -2.410089    2.195521    0.000000    0.183000
    22  O     c    -2.201908    2.229179    2.258636    0.000000    0.183000
    23  O     c     6.709695    2.229179    2.258636    0.000000    0.183000
    24  O     c     2.253894   -2.249607   -2.213835    0.000000    0.183000
    25  O     c     2.253894    6.816700    2.260452    0.000000    0.183000
    26  O     c    -2.255372    2.258556   -2.245170    0.000000    0.183000
    27  O     c     6.763160    2.258556   -2.245170    0.000000    0.183000
    28  O     c     2.253894    6.758304   -2.271441    0.000000    0.183000
    29  Cl    c     4.724713    0.007683    4.610834    0.000000    1.485000
    30  Cl    c    -0.216926    0.007683    4.610834    0.000000    1.485000
    31  Na    c     4.404978   -1.842376    2.264114    0.000000    1.000000
    32  Na    c     0.102809   -1.842376    2.264114    0.000000    1.000000
    33  Na    c    -2.477738    0.008821    2.640106    0.000000    1.000000
    34  Na    c     6.985525    0.008821    2.640106    0.000000    1.000000
    35  Cl    c     4.580120    4.591026    4.601077    0.000000    1.485000
    36  Cl    c    -0.072332    4.591026    4.601077    0.000000    1.485000
    37  Na    c     4.504946   -2.308972   -2.136213    0.000000    1.000000
    38  Na    c     0.002841   -2.308972   -2.136213    0.000000    1.000000
    39  Na    c    -1.938006    4.471965    1.970154    0.000000    1.000000
    40  Na    c     6.445793    4.471965    1.970154    0.000000    1.000000
    41  Na    c    -2.121540    0.007823   -2.582217    0.000000    1.000000
    42  Na    c     6.629327    0.007823   -2.582217    0.000000    1.000000
    43  Na    c     4.500897    6.874349    2.342232    0.000000    1.000000
    44  Na    c     0.006891    6.874349    2.342232    0.000000    1.000000
    45  Cl    c     4.506959    0.015218   -4.553352    0.000000    1.485000
    46  Cl    c     0.000829    0.015218   -4.553352    0.000000    1.485000
    47  Na    c    -2.327050    4.505520   -1.889561    0.000000    1.000000
    48  Na    c     6.834837    4.505520   -1.889561    0.000000    1.000000
    49  Na    c     4.515216    6.656227   -2.295309    0.000000    1.000000
    50  Na    c    -0.007429    6.656227   -2.295309    0.000000    1.000000
    51  Cl    c     4.524866    4.524713   -4.541351    0.000000    1.485000
    52  Cl    c    -0.017079    4.524713   -4.541351    0.000000    1.485000
    53  Na    c     2.253894   -2.599399    4.412544    0.000000    1.000000
    54  Na    c    -2.131942    2.539565    4.506828    0.000000    1.000000
    55  Na    c     6.639729    2.539565    4.506828    0.000000    1.000000
    56  Na    c    -2.282239   -1.920501    0.015850    0.000000    1.000000
    57  Na    c     6.790026   -1.920501    0.015850    0.000000    1.000000
    58  Na    c     2.253894    6.317866    4.488704    0.000000    1.000000
    59  Na    c     2.253894   -2.613657   -4.465063    0.000000    1.000000
    60  Na    c    -2.110542    7.048179    0.000980    0.000000    1.000000
    61  Na    c     6.618329    7.048179    0.000980    0.000000    1.000000
    62  Na    c    -2.251320    2.603129   -4.487917    0.000000    1.000000
    63  Na    c     6.759107    2.603129   -4.487917    0.000000    1.000000
    64  O     c     2.253894    2.215896    6.692091    0.000000    0.183000
    65  O     c    -2.203806   -2.211416    2.266945    0.000000    0.183000
    66  O     c     6.711593   -2.211416    2.266945    0.000000    0.183000
    67  Na    c     2.253894    6.357203   -4.502047    0.000000    1.000000
    68  O     c    -2.254764   -2.240355   -2.249220    0.000000    0.183000
    69  O     c     6.762551   -2.240355   -2.249220    0.000000    0.183000
    70  O     c    -2.241785    6.736067    2.246986    0.000000    0.183000
    71  O     c     6.749572    6.736067    2.246986    0.000000    0.183000
    72  Na    c     2.253894   -0.000290    6.157050    0.000000    1.000000
    73  Na    c     2.253894   -4.558671    1.817451    0.000000    1.000000
    74  O     c    -2.271789    6.760531   -2.251311    0.000000    0.183000
    75  O     c     6.779576    6.760531   -2.251311    0.000000    0.183000
    76  O     c     2.253894    2.248249   -6.732435    0.000000    0.183000
    77  Cl    c     4.565656   -4.642523   -0.114719    0.000000    1.485000
    78  Cl    c    -0.057869   -4.642523   -0.114719    0.000000    1.485000
    79  Na    c     4.511042    2.087778    6.758644    0.000000    1.000000
    80  Na    c    -0.003255    2.087778    6.758644    0.000000    1.000000
    81  Na    c     2.253894    4.471693    7.056847    0.000000    1.000000
    82  Na    c     2.253894   -4.503276   -1.851671    0.000000    1.000000
    83  Cl    c     9.015432    0.007576   -0.032000    0.000000    1.485000
    84  Cl    c    -4.507645    0.007576   -0.032000    0.000000    1.485000
    85  Na    c     8.977795    2.471005    2.258163    0.000000    1.000000
    86  Na    c    -4.470008    2.471005    2.258163    0.000000    1.000000
    87  Cl    c     9.032857    4.515952    0.003606    0.000000    1.485000
    88  Cl    c    -4.525070    4.515952    0.003606    0.000000    1.485000
    89  Na    c     9.013893    2.127215   -2.235441    0.000000    1.000000
    90  Na    c    -4.506106    2.127215   -2.235441    0.000000    1.000000
    91  Na    c     2.253894    9.031520    2.671287    0.000000    1.000000
    92  Na    c     2.253894    0.003778   -6.390800    0.000000    1.000000
    93  Cl    c     4.531325    9.073115    0.004123    0.000000    1.485000
    94  Cl    c    -0.023538    9.073115    0.004123    0.000000    1.485000
    95  Na    c     4.509653    2.154183   -6.693543    0.000000    1.000000
    96  Na    c    -0.001865    2.154183   -6.693543    0.000000    1.000000
    97  Na    c     2.253894    4.494165   -7.096757    0.000000    1.000000
    98  Na    c     2.253894    8.992010   -2.640066    0.000000    1.000000
    99  Na    c    -2.083277   -2.510286    4.506193    0.000000    1.000000
   100  Na    c     6.591064   -2.510286    4.506193    0.000000    1.000000
   101  Na    c    -2.361653    6.457797    4.504838    0.000000    1.000000
   102  Na    c     6.869441    6.457797    4.504838    0.000000    1.000000
   103  Na    c    -2.211268   -2.582608   -4.481068    0.000000    1.000000
   104  Na    c     6.719055   -2.582608   -4.481068    0.000000    1.000000
   105  O     c     2.253894   -2.210551    6.696977    0.000000    0.183000
   106  O     c    -2.263393    2.272471    6.760230    0.000000    0.183000
   107  O     c     6.771181    2.272471    6.760230    0.000000    0.183000
   108  Na    c    -2.364723    6.463448   -4.500532    0.000000    1.000000
   109  Na    c     6.872510    6.463448   -4.500532    0.000000    1.000000
   110  O     c     2.253894    6.746661    6.725880    0.000000    0.183000
   111  O     c     2.253894   -2.236599   -6.728795    0.000000    0.183000
   112  Cl    c     4.565223   -4.604706    4.606632    0.000000    1.485000
   113  Cl    c    -0.057436   -4.604706    4.606632    0.000000    1.485000
   114  Na    c     4.508047   -2.084459    6.795380    0.000000    1.000000
   115  Na    c    -0.000260   -2.084459    6.795380    0.000000    1.000000
   116  Na    c    -1.992391   -4.464947    2.028898    0.000000    1.000000
   117  Na    c     6.500178   -4.464947    2.028898    0.000000    1.000000
   118  Na    c     6.930824    0.003884    6.518145    0.000000    1.000000
   119  Na    c    -2.423036    0.003884    6.518145    0.000000    1.000000
   120  O     c     6.766212    2.265606   -6.742145    0.000000    0.183000
   121  O     c    -2.258424    2.265606   -6.742145    0.000000    0.183000
   122  Cl    c     9.105668   -0.027443    4.539626    0.000000    1.485000
   123  Cl    c    -4.597881   -0.027443    4.539626    0.000000    1.485000
   124  Na    c     8.978785   -2.439787    2.317818    0.000000    1.000000
   125  Na    c    -4.470997   -2.439787    2.317818    0.000000    1.000000
   126  Na    c    -2.348978   -4.492936   -1.960641    0.000000    1.000000
   127  Na    c     6.856765   -4.492936   -1.960641    0.000000    1.000000
   128  Na    c     6.552811    4.505511    7.014211    0.000000    1.000000
   129  Na    c    -2.045024    4.505511    7.014211    0.000000    1.000000
   130  O     c     2.253894    6.751466   -6.739665    0.000000    0.183000
   131  Cl    c     4.510642   -4.528469   -4.568900    0.000000    1.485000
   132  Cl    c    -0.002855   -4.528469   -4.568900    0.000000    1.485000
   133  Cl    c     9.073416    4.510149    4.510497    0.000000    1.485000
   134  Cl    c    -4.565628    4.510149    4.510497    0.000000    1.485000
   135  Na    c     4.510193    6.812262    6.629004    0.000000    1.000000
   136  Na    c    -0.002406    6.812262    6.629004    0.000000    1.000000
   137  Na    c     9.014986   -2.098551   -2.277772    0.000000    1.000000
   138  Na    c    -4.507199   -2.098551   -2.277772    0.000000    1.000000
   139  Cl    c     4.535422    9.067660    4.524613    0.000000    1.485000
   140  Cl    c    -0.027635    9.067660    4.524613    0.000000    1.485000
   141  Na    c     4.508292   -2.138902   -6.718750    0.000000    1.000000
   142  Na    c    -0.000505   -2.138902   -6.718750    0.000000    1.000000
   143  Na    c     8.999527    6.542063    2.105245    0.000000    1.000000
   144  Na    c    -4.491740    6.542063    2.105245    0.000000    1.000000
   145  Cl    c     9.055617   -0.009755   -4.510331    0.000000    1.485000
   146  Cl    c    -4.547830   -0.009755   -4.510331    0.000000    1.485000
   147  Na    c     6.889825    8.989385    2.497532    0.000000    1.000000
   148  Na    c    -2.382037    8.989385    2.497532    0.000000    1.000000
   149  Na    c    -2.379202    0.004208   -6.471739    0.000000    1.000000
   150  Na    c     6.886990    0.004208   -6.471739    0.000000    1.000000
   151  Cl    c     9.054536    4.513940   -4.560343    0.000000    1.485000
   152  Cl    c    -4.546749    4.513940   -4.560343    0.000000    1.485000
   153  Na    c     9.019758    6.807633   -2.099932    0.000000    1.000000
   154  Na    c    -4.511971    6.807633   -2.099932    0.000000    1.000000
   155  Na    c     6.732247    9.002414   -2.518542    0.000000    1.000000
   156  Na    c    -2.224460    9.002414   -2.518542    0.000000    1.000000
   157  Na    c    -2.110450    4.501991   -7.048739    0.000000    1.000000
   158  Na    c     6.618237    4.501991   -7.048739    0.000000    1.000000
   159  Cl    c     4.527890    9.065530   -4.558522    0.000000    1.485000
   160  Cl    c    -0.020102    9.065530   -4.558522    0.000000    1.485000
   161  Na    c     4.509347    6.813976   -6.647102    0.000000    1.000000
   162  Na    c    -0.001560    6.813976   -6.647102    0.000000    1.000000
   163  Na    c     2.253894    1.938912    8.966037    0.000000    1.000000
   164  Na    c     2.253894   -7.090396   -0.009060    0.000000    1.000000
   165  Na    c    11.238113    2.610609    0.005873    0.000000    1.000000
   166  Na    c    -6.730326    2.610609    0.005873    0.000000    1.000000
   167  O     c    -2.256829   -2.264756    6.752272    0.000000    0.183000
   168  O     c     6.764616   -2.264756    6.752272    0.000000    0.183000
   169  O     c     2.253894   -6.791978    2.245709    0.000000    0.183000
   170  O     c     2.253894   -6.751639   -2.252325    0.000000    0.183000
   171  Na    c     2.253894   10.948642    0.003336    0.000000    1.000000
   172  Na    c     2.253894    1.995167   -8.989750    0.000000    1.000000
   173  O     c    11.245725    2.260294    2.245795    0.000000    0.183000
   174  O     c    -6.737938    2.260294    2.245795    0.000000    0.183000
   175  O     c    -2.261595    6.745130    6.763907    0.000000    0.183000
   176  O     c     6.769382    6.745130    6.763907    0.000000    0.183000
   177  Na    c     2.253894   -4.470116    6.952715    0.000000    1.000000
   178  O     c    11.270868    2.255064   -2.238619    0.000000    0.183000
   179  O     c    -6.763081    2.255064   -2.238619    0.000000    0.183000
   180  O     c    -2.255727   -2.259967   -6.730179    0.000000    0.183000
   181  O     c     6.763514   -2.259967   -6.730179    0.000000    0.183000
   182  Cl    c     4.531023   -0.001116    9.077878    0.000000    1.485000
   183  Cl    c    -0.023236   -0.001116    9.077878    0.000000    1.485000
   184  Na    c     4.492373   -6.808084    2.389549    0.000000    1.000000
   185  Na    c     0.015414   -6.808084    2.389549    0.000000    1.000000
   186  O     c     2.253894   11.250084    2.250484    0.000000    0.183000
   187  Cl    c     4.496188    4.523171    9.041202    0.000000    1.485000
   188  Cl    c     0.011599    4.523171    9.041202    0.000000    1.485000
   189  Cl    c     9.046224   -4.513649    0.015637    0.000000    1.485000
   190  Cl    c    -4.538437   -4.513649    0.015637    0.000000    1.485000
   191  Na    c     4.515972   -6.657518   -2.328077    0.000000    1.000000
   192  Na    c    -0.008185   -6.657518   -2.328077    0.000000    1.000000
   193  Na    c     9.015944    2.461230    6.697794    0.000000    1.000000
   194  Na    c    -4.508157    2.461230    6.697794    0.000000    1.000000
   195  Na    c    11.117448   -0.005344    1.977507    0.000000    1.000000
   196  Na    c    -6.609661   -0.005344    1.977507    0.000000    1.000000
   197  O     c     2.253894   11.238077   -2.247779    0.000000    0.183000
   198  O     c     6.762485    6.739587   -6.760217    0.000000    0.183000
   199  O     c    -2.254698    6.739587   -6.760217    0.000000    0.183000
   200  Na    c    11.374376    4.487704    2.617669    0.000000    1.000000
   201  Na    c    -6.866588    4.487704    2.617669    0.000000    1.000000
   202  Na    c    11.349043    0.008161   -1.919916    0.000000    1.000000
   203  Na    c    -6.841255    0.008161   -1.919916    0.000000    1.000000
   204  Na    c     2.253894    9.005051    6.513063    0.000000    1.000000
   205  Na    c     2.253894   -4.488278   -6.963575    0.000000    1.000000
   206  Na    c    11.212598    4.495887   -2.578580    0.000000    1.000000
   207  Na    c    -6.704811    4.495887   -2.578580    0.000000    1.000000
   208  Na    c     4.517707   11.203525    2.158858    0.000000    1.000000
   209  Na    c    -0.009919   11.203525    2.158858    0.000000    1.000000
   210  Cl    c     4.517548   -0.007919   -9.071460    0.000000    1.485000
   211  Cl    c    -0.009760   -0.007919   -9.071460    0.000000    1.485000
   212  Cl    c     9.039782    9.035276   -0.010306    0.000000    1.485000
   213  Cl    c    -4.531995    9.035276   -0.010306    0.000000    1.485000
   214  Na    c     9.018251    2.415145   -6.720047    0.000000    1.000000
   215  Na    c    -4.510463    2.415145   -6.720047    0.000000    1.000000
   216  Na    c     4.505062   11.245363   -2.145308    0.000000    1.000000
   217  Na    c     0.002725   11.245363   -2.145308    0.000000    1.000000
   218  Cl    c     4.505192    4.517849   -9.039364    0.000000    1.485000
   219  Cl    c     0.002595    4.517849   -9.039364    0.000000    1.485000
   220  Na    c     2.253894    9.009575   -6.517248    0.000000    1.000000
   221  Na    c     2.253894   -2.025986    8.985914    0.000000    1.000000
   222  Na    c     2.253894   -6.506546    4.509772    0.000000    1.000000
   223  Na    c     6.823326    2.103287    9.006710    0.000000    1.000000
[...]
    242 y          6.761681      6.758301    -0.003379    Cartesian   -0.05
    242 z         -2.253894     -2.271481    -0.017587    Cartesian    0.78
    243 x          4.507787      4.736781     0.228994    Cartesian    5.08
    243 y          0.000000      0.008497     0.008497    Cartesian    0.00
    243 z          4.507787      4.620594     0.112806    Cartesian    2.50
    244 x          4.507787      4.587500     0.079713    Cartesian    1.77
    244 y          4.507787      4.601712     0.093925    Cartesian    2.08
    244 z          4.507787      4.609137     0.101350    Cartesian    2.25
    245 x          4.507787      4.504602    -0.003186    Cartesian   -0.07
    245 y          0.000000      0.016349     0.016349    Cartesian    0.00
    245 z         -4.507787     -4.559832    -0.052044    Cartesian    1.15
    246 x          4.507787      4.521429     0.013642    Cartesian    0.30
    246 y          4.507787      4.527089     0.019302    Cartesian    0.43
    246 z         -4.507787     -4.542900    -0.035112    Cartesian    0.78
    247 x          2.253894      2.253894     0.000000    Cartesian    0.00
    247 y          2.253894      2.215864    -0.038029    Cartesian   -1.69
    247 z          6.761681      6.692110    -0.069571    Cartesian   -1.03
    248 x         -2.253894     -2.203873     0.050021    Cartesian   -2.22
    248 y         -2.253894     -2.211402     0.042492    Cartesian   -1.89
    248 z          2.253894      2.266987     0.013094    Cartesian    0.58
    249 x         -2.253894     -2.254760    -0.000866    Cartesian    0.04
    249 y         -2.253894     -2.240357     0.013537    Cartesian   -0.60
    249 z         -2.253894     -2.249247     0.004646    Cartesian   -0.21
    250 x         -2.253894     -2.241750     0.012144    Cartesian   -0.54
    250 y          6.761681      6.736102    -0.025579    Cartesian   -0.38
    250 z          2.253894      2.246972    -0.006922    Cartesian   -0.31
    251 x         -2.253894     -2.271806    -0.017912    Cartesian    0.79
    251 y          6.761681      6.760554    -0.001127    Cartesian   -0.02
    251 z         -2.253894     -2.251287     0.002606    Cartesian   -0.12
    252 x          2.253894      2.253894     0.000000    Cartesian    0.00
    252 y          2.253894      2.248226    -0.005667    Cartesian   -0.25
    252 z         -6.761681     -6.732449     0.029231    Cartesian   -0.43
    253 x          4.507787      4.572249     0.064462    Cartesian    1.43
    253 y         -4.507787     -4.653259    -0.145472    Cartesian    3.23
    253 z          0.000000     -0.126646    -0.126646    Cartesian    0.00
    254 x          9.015574      9.014040    -0.001534    Cartesian   -0.02
    254 y          0.000000      0.008215     0.008215    Cartesian    0.00
    254 z          0.000000     -0.036400    -0.036400    Cartesian    0.00
    255 x          9.015574      9.037004     0.021430    Cartesian    0.24
    255 y          4.507787      4.519148     0.011361    Cartesian    0.25
    255 z          0.000000      0.005378     0.005378    Cartesian    0.00
    256 x          4.507787      4.528579     0.020792    Cartesian    0.46
    256 y          9.015574      9.075309     0.059735    Cartesian    0.66
    256 z          0.000000      0.005827     0.005827    Cartesian    0.00
    257 x          2.253894      2.253894     0.000000    Cartesian    0.00
    257 y         -2.253894     -2.210543     0.043350    Cartesian   -1.92
    257 z          6.761681      6.696991    -0.064690    Cartesian   -0.96
    258 x         -2.253894     -2.263386    -0.009492    Cartesian    0.42
    258 y          2.253894      2.272522     0.018629    Cartesian    0.83
    258 z          6.761681      6.760251    -0.001430    Cartesian   -0.02
    259 x          2.253894      2.253894     0.000000    Cartesian    0.00
    259 y          6.761681      6.746680    -0.015001    Cartesian   -0.22
    259 z          6.761681      6.725875    -0.035806    Cartesian   -0.53
    260 x          2.253894      2.253894     0.000000    Cartesian    0.00
    260 y         -2.253894     -2.236599     0.017294    Cartesian   -0.77
    260 z         -6.761681     -6.728802     0.032879    Cartesian   -0.49
    261 x          4.507787      4.573633     0.065845    Cartesian    1.46
    261 y         -4.507787     -4.611866    -0.104079    Cartesian    2.31
    261 z          4.507787      4.614842     0.107054    Cartesian    2.37
    262 x          6.761681      6.766210     0.004529    Cartesian    0.07
    262 y          2.253894      2.265658     0.011765    Cartesian    0.52
    262 z         -6.761681     -6.742162     0.019519    Cartesian   -0.29
    263 x          9.015574      9.105372     0.089798    Cartesian    1.00
    263 y          0.000000     -0.027466    -0.027466    Cartesian    0.00
    263 z          4.507787      4.539644     0.031856    Cartesian    0.71
    264 x          2.253894      2.253894     0.000000    Cartesian    0.00
    264 y          6.761681      6.751477    -0.010203    Cartesian   -0.15
    264 z         -6.761681     -6.739662     0.022019    Cartesian   -0.33
    265 x          4.507787      4.509529     0.001741    Cartesian    0.04
    265 y         -4.507787     -4.526750    -0.018963    Cartesian    0.42
    265 z         -4.507787     -4.573409    -0.065622    Cartesian    1.46
    266 x          9.015574      9.075779     0.060204    Cartesian    0.67
    266 y          4.507787      4.511004     0.003217    Cartesian    0.07
    266 z          4.507787      4.508590     0.000803    Cartesian    0.02
    267 x          4.507787      4.529660     0.021872    Cartesian    0.49
    267 y          9.015574      9.069899     0.054325    Cartesian    0.60
    267 z          4.507787      4.522990     0.015203    Cartesian    0.34
    268 x          9.015574      9.057188     0.041614    Cartesian    0.46
    268 y          0.000000     -0.009940    -0.009940    Cartesian    0.00
    268 z         -4.507787     -4.512772    -0.004985    Cartesian    0.11
    269 x          9.015574      9.053743     0.038169    Cartesian    0.42
    269 y          4.507787      4.515257     0.007470    Cartesian    0.17
    269 z         -4.507787     -4.565146    -0.057359    Cartesian    1.27
    270 x          4.507787      4.525910     0.018123    Cartesian    0.40
    270 y          9.015574      9.070102     0.054527    Cartesian    0.60
    270 z         -4.507787     -4.562134    -0.054347    Cartesian    1.21
    271 x         -2.253894     -2.256823    -0.002929    Cartesian    0.13
    271 y         -2.253894     -2.264808    -0.010914    Cartesian    0.48
    271 z          6.761681      6.752270    -0.009410    Cartesian   -0.14
    272 x          2.253894      2.253894     0.000000    Cartesian    0.00
    272 y         -6.761681     -6.792035    -0.030354    Cartesian    0.45
    272 z          2.253894      2.245715    -0.008178    Cartesian   -0.36
    273 x          2.253894      2.253894     0.000000    Cartesian    0.00
    273 y         -6.761681     -6.751667     0.010014    Cartesian   -0.15
    273 z         -2.253894     -2.252328     0.001565    Cartesian   -0.07
    274 x         11.269468     11.245748    -0.023720    Cartesian   -0.21
    274 y          2.253894      2.260344     0.006450    Cartesian    0.29
    274 z          2.253894      2.245809    -0.008085    Cartesian   -0.36
    275 x         -2.253894     -2.261595    -0.007702    Cartesian    0.34
    275 y          6.761681      6.745103    -0.016578    Cartesian   -0.25
    275 z          6.761681      6.763952     0.002271    Cartesian    0.03
    276 x         11.269468     11.270883     0.001415    Cartesian    0.01
    276 y          2.253894      2.255062     0.001169    Cartesian    0.05
    276 z         -2.253894     -2.238624     0.015269    Cartesian   -0.68
    277 x         -2.253894     -2.255729    -0.001835    Cartesian    0.08
    277 y         -2.253894     -2.260023    -0.006130    Cartesian    0.27
    277 z         -6.761681     -6.730169     0.031512    Cartesian   -0.47
    278 x          4.507787      4.527385     0.019598    Cartesian    0.43
    278 y          0.000000      0.000411     0.000411    Cartesian    0.00
    278 z          9.015574      9.082129     0.066555    Cartesian    0.74
    279 x          2.253894      2.253894     0.000000    Cartesian    0.00
    279 y         11.269468     11.250065    -0.019403    Cartesian   -0.17
    279 z          2.253894      2.250506    -0.003387    Cartesian   -0.15
    280 x          4.507787      4.499269    -0.008518    Cartesian   -0.19
    280 y          4.507787      4.524817     0.017029    Cartesian    0.38
    280 z          9.015574      9.035624     0.020050    Cartesian    0.22
    281 x          9.015574      9.050508     0.034934    Cartesian    0.39
    281 y         -4.507787     -4.511262    -0.003475    Cartesian    0.08
    281 z          0.000000      0.014089     0.014089    Cartesian    0.00
    282 x          2.253894      2.253894     0.000000    Cartesian    0.00
    282 y         11.269468     11.238087    -0.031381    Cartesian   -0.28
    282 z         -2.253894     -2.247793     0.006100    Cartesian   -0.27
    283 x          6.761681      6.762485     0.000804    Cartesian    0.01
    283 y          6.761681      6.739559    -0.022121    Cartesian   -0.33
    283 z         -6.761681     -6.760260     0.001421    Cartesian   -0.02
    284 x          4.507787      4.515935     0.008148    Cartesian    0.18
    284 y          0.000000     -0.007249    -0.007249    Cartesian    0.00
    284 z         -9.015574     -9.078435    -0.062860    Cartesian    0.70
    285 x          9.015574      9.041481     0.025907    Cartesian    0.29
    285 y          9.015574      9.039025     0.023450    Cartesian    0.26
    285 z          0.000000     -0.013267    -0.013267    Cartesian    0.00
    286 x          4.507787      4.507434    -0.000353    Cartesian   -0.01
    286 y          4.507787      4.518723     0.010936    Cartesian    0.24
    286 z         -9.015574     -9.033523    -0.017949    Cartesian    0.20
    287 x         -2.253894     -2.224733     0.029161    Cartesian   -1.29
    287 y         -6.761681     -6.736776     0.024905    Cartesian   -0.37
    287 z          2.253894      2.241462    -0.012432    Cartesian   -0.55
    288 x         11.269468     11.252011    -0.017457    Cartesian   -0.15
    288 y         -2.253894     -2.265995    -0.012101    Cartesian    0.54
    288 z          2.253894      2.241761    -0.012132    Cartesian   -0.54
    289 x         -2.253894     -2.269347    -0.015453    Cartesian    0.69
    289 y         -6.761681     -6.753682     0.007999    Cartesian   -0.12
    289 z         -2.253894     -2.239199     0.014695    Cartesian   -0.65
    290 x         11.269468     11.273391     0.003923    Cartesian    0.03
    290 y         -2.253894     -2.238140     0.015753    Cartesian   -0.70
    290 z         -2.253894     -2.231801     0.022093    Cartesian   -0.98
    291 x         11.269468     11.262598    -0.006870    Cartesian   -0.06
    291 y          6.761681      6.720775    -0.040906    Cartesian   -0.60
    291 z          2.253894      2.256318     0.002424    Cartesian    0.11
    292 x          9.015574      9.081617     0.066043    Cartesian    0.73
    292 y         -4.507787     -4.510485    -0.002697    Cartesian    0.06
    292 z          4.507787      4.501497    -0.006290    Cartesian   -0.14
    293 x         -2.253894     -2.265926    -0.012032    Cartesian    0.53
    293 y         11.269468     11.255034    -0.014434    Cartesian   -0.13
    293 z          2.253894      2.267596     0.013702    Cartesian    0.61
    294 x         11.269468     11.267741    -0.001727    Cartesian   -0.02
    294 y          6.761681      6.744183    -0.017498    Cartesian   -0.26
    294 z         -2.253894     -2.252869     0.001025    Cartesian   -0.05
    295 x         -2.253894     -2.248471     0.005423    Cartesian   -0.24
    295 y         11.269468     11.259308    -0.010160    Cartesian   -0.09
    295 z         -2.253894     -2.271492    -0.017599    Cartesian    0.78
    296 x          9.015574      9.046674     0.031100    Cartesian    0.34
    296 y         -4.507787     -4.516766    -0.008979    Cartesian    0.20
    296 z         -4.507787     -4.530850    -0.023062    Cartesian    0.51
    297 x          9.015574      9.047755     0.032181    Cartesian    0.36
    297 y          9.015574      9.075359     0.059784    Cartesian    0.66
    297 z          4.507787      4.522070     0.014282    Cartesian    0.32
    298 x          9.015574      9.045262     0.029688    Cartesian    0.33
    298 y          9.015574      9.050314     0.034740    Cartesian    0.39
    298 z         -4.507787     -4.515870    -0.008083    Cartesian    0.18
    299 x          2.253894      2.253894     0.000000    Cartesian    0.00
    299 y         -6.761681     -6.744695     0.016986    Cartesian   -0.25
    299 z          6.761681      6.763782     0.002101    Cartesian    0.03
    300 x          2.253894      2.253894     0.000000    Cartesian    0.00
    300 y          2.253894      2.231913    -0.021980    Cartesian   -0.98
    300 z         11.269468     11.241881    -0.027587    Cartesian   -0.24
    301 x         11.269468     11.268457    -0.001011    Cartesian   -0.01
    301 y          2.253894      2.244344    -0.009550    Cartesian   -0.42
    301 z          6.761681      6.752039    -0.009642    Cartesian   -0.14
    302 x          2.253894      2.253894     0.000000    Cartesian    0.00
    302 y         -6.761681     -6.750234     0.011447    Cartesian   -0.17
    302 z         -6.761681     -6.764128    -0.002447    Cartesian    0.04
    303 x          4.507787      4.514259     0.006472    Cartesian    0.14
    303 y         -4.507787     -4.526106    -0.018319    Cartesian    0.41
    303 z          9.015574      9.034994     0.019419    Cartesian    0.22
    304 x          2.253894      2.253894     0.000000    Cartesian    0.00
    304 y         11.269468     11.266978    -0.002490    Cartesian   -0.02
    304 z          6.761681      6.746027    -0.015654    Cartesian   -0.23
    305 x          4.507787      4.558121     0.050334    Cartesian    1.12
    305 y         -9.015574     -9.065831    -0.050257    Cartesian    0.56
    305 z          0.000000      0.026052     0.026052    Cartesian    0.00
    306 x          9.015574      9.043243     0.027669    Cartesian    0.31
    306 y          0.000000      0.006585     0.006585    Cartesian    0.00
    306 z          9.015574      9.099371     0.083797    Cartesian    0.93
    307 x         11.269468     11.271097     0.001629    Cartesian    0.01
    307 y          2.253894      2.236838    -0.017056    Cartesian   -0.76
    307 z         -6.761681     -6.752337     0.009344    Cartesian   -0.14
    308 x          9.015574      9.027408     0.011834    Cartesian    0.13
    308 y          4.507787      4.519787     0.012000    Cartesian    0.27
    308 z          9.015574      9.018537     0.002962    Cartesian    0.03
    309 x          2.253894      2.253894     0.000000    Cartesian    0.00
    309 y          2.253894      2.237353    -0.016541    Cartesian   -0.73
    309 z        -11.269468    -11.254303     0.015165    Cartesian   -0.13
    310 x          4.507787      4.512134     0.004347    Cartesian    0.10
    310 y          9.015574      9.030749     0.015174    Cartesian    0.17
    310 z          9.015574      9.078696     0.063122    Cartesian    0.70
    311 x         13.523362     13.598996     0.075634    Cartesian    0.56
    311 y          0.000000      0.017798     0.017798    Cartesian    0.00
    311 z          0.000000      0.000228     0.000228    Cartesian    0.00
    312 x          2.253894      2.253894     0.000000    Cartesian    0.00
    312 y         11.269468     11.267934    -0.001534    Cartesian   -0.01
    312 z         -6.761681     -6.749954     0.011727    Cartesian   -0.17
    313 x          4.507787      4.522245     0.014458    Cartesian    0.32
    313 y         -4.507787     -4.542992    -0.035204    Cartesian    0.78
    313 z         -9.015574     -9.026764    -0.011190    Cartesian    0.12
    314 x         13.523362     13.578582     0.055220    Cartesian    0.41
    314 y          4.507787      4.523028     0.015241    Cartesian    0.34
    314 z          0.000000      0.003595     0.003595    Cartesian    0.00
    315 x          9.015574      9.039573     0.023999    Cartesian    0.27
    315 y          0.000000     -0.000014    -0.000014    Cartesian    0.00
    315 z         -9.015574     -9.088750    -0.073176    Cartesian    0.81
    316 x          4.507787      4.469123    -0.038664    Cartesian   -0.86
    316 y         13.523362     13.596834     0.073473    Cartesian    0.54
    316 z          0.000000     -0.010786    -0.010786    Cartesian    0.00
    317 x          9.015574      9.017013     0.001439    Cartesian    0.02
    317 y          4.507787      4.510026     0.002239    Cartesian    0.05
    317 z         -9.015574     -9.010982     0.004593    Cartesian   -0.05
    318 x          4.507787      4.509088     0.001301    Cartesian    0.03
    318 y          9.015574      9.019170     0.003595    Cartesian    0.04
    318 z         -9.015574     -9.087221    -0.071647    Cartesian    0.79
    319 x          2.253894      2.253894     0.000000    Cartesian    0.00
    319 y         -2.253894     -2.241041     0.012853    Cartesian   -0.57
    319 z         11.269468     11.270708     0.001240    Cartesian    0.01
    320 x         -2.253894     -2.262074    -0.008180    Cartesian    0.36
    320 y         -6.761681     -6.762715    -0.001034    Cartesian    0.02
    320 z          6.761681      6.771109     0.009428    Cartesian    0.14
    321 x          6.761681      6.768885     0.007204    Cartesian    0.11
    321 y          2.253894      2.250238    -0.003656    Cartesian   -0.16
    321 z         11.269468     11.267031    -0.002437    Cartesian   -0.02
    322 x         11.269468     11.265537    -0.003931    Cartesian   -0.03
    322 y         -2.253894     -2.252209     0.001684    Cartesian   -0.07
    322 z          6.761681      6.767924     0.006243    Cartesian    0.09
--------------------------------------------------------------------------------


  Time to end of optimisation  =      164.9524 seconds


  Peak dynamic memory used =      94.80 MB 


  Timing analysis for GULP :

--------------------------------------------------------------------------------
  Task / Subroutine                                          Time (Seconds)
--------------------------------------------------------------------------------
  Calculation of reciprocal space energy and derivatives          0.0006
  Calculation of reciprocal space energy using symmetry           0.0009
  Calculation of real space energy and derivatives                0.0035
  Calculation of real space energy using symmetry                 0.0084
  Calculation for region 1 energy and derivatives (2-b)          99.4501
  Calculation for region 2a energy                               56.8613
  Calculation for region 2b energy                                0.0310
  Calculation and manipulation of Hessian matrix                  0.2793
  Calculation of matrix inversion                                 7.6274
  Symmetry generation of equivalent positions                     0.0043
--------------------------------------------------------------------------------
  Total CPU time                                                164.9525
--------------------------------------------------------------------------------


  Dump file written as Na3OCl.grs


  Job Finished at 16:41.03 26th November   2020                               

