********************************************************************************
*                       GENERAL UTILITY LATTICE PROGRAM                        *
*                                 Julian Gale                                  *
*                       Curtin Institute for Computation                       *
*                    School of Molecular and Life Sciences                     *
*                    Curtin University, Western Australia                      *
********************************************************************************
* Version = 5.2.0 * Last modified =  10th September 2020                       *
********************************************************************************
*  optimise     - perform optimisation run                                     *
*  conp         - constant pressure calculation                                *
*  property     - calculate properties for final geometry                      *
*  defect       - perform defect calculation after bulk run                    *
*  compare      - compare initial and final structures                         *
********************************************************************************

  Job Started  at 12:22.40  5th March      2021                               

  Number of CPUs =     1


  Total number of configurations input =      1

********************************************************************************
*  Input for Configuration =   1                                               *
********************************************************************************

  Formula = ClONa3                                                      

  Number of irreducible atoms/shells =       5


  Total number atoms/shells =       7

  Dimensionality = 3               :  Bulk   


  Symmetry :

  Crystal family                   :  Cubic       
  Crystal class  (Groth - 1921)    :  Cubic Hexakisoctahedral              

  Space group (centrosymmetric)    :  P M 3 M         

  Patterson group                  :  P m -3 m 

  Cartesian lattice vectors (Angstroms) :

        4.504000    0.000000    0.000000
        0.000000    4.504000    0.000000
        0.000000    0.000000    4.504000

  Cell parameters (Angstroms/Degrees):

  a =       4.5040    alpha =  90.0000
  b =       4.5040    beta  =  90.0000
  c =       4.5040    gamma =  90.0000

  Initial cell volume =          91.368216 Angs**3

  Temperature of configuration =   0.00     K 

  Pressure of configuration =         0.000 GPa 

  Fractional coordinates of asymmetric unit :

--------------------------------------------------------------------------------
   No.  Atomic       x           y          z         Charge      Occupancy
        Label      (Frac)      (Frac)     (Frac)        (e)         (Frac)  
--------------------------------------------------------------------------------
      1 Cl    c    0.000000    0.000000    0.000000     0.99600    1.000000    
      2 O     c    0.500000    0.500000    0.500000     1.44300    1.000000    
      3 Na    c    0.500000    0.500000    0.000000     1.00000    1.000000    
      4 Cl    s    0.000000    0.000000    0.000000    -1.99600    1.000000    
      5 O     s    0.500000    0.500000    0.500000    -3.44300    1.000000    
--------------------------------------------------------------------------------


  Constraints : 

--------------------------------------------------------------------------------
  Constraint no.      Unconstrained     Constrained    Coefficient    Offset
                         Variable         Variable
--------------------------------------------------------------------------------
           1              Strain 1        Strain 2       1.00000      0.0000
           2              Strain 1        Strain 3       1.00000      0.0000
--------------------------------------------------------------------------------


********************************************************************************
*  General input information                                                   *
********************************************************************************

  Species output for all configurations : 

--------------------------------------------------------------------------------
  Species    Type    Atomic    Atomic    Charge       Radii (Angs)     Library
                     Number     Mass       (e)     Cova   Ionic  VDW   Symbol
--------------------------------------------------------------------------------
    Na       Core       11      22.99   1.000000   0.970  0.000  2.300          
    O        Core        8      16.00   1.443000   0.730  0.000  1.360          
    O        Shell       8       0.00  -3.443000   0.730  0.000  1.360          
    Cl       Core       17      35.45   0.996000   0.990  0.000  1.650          
    Cl       Shell      17       0.00  -1.996000   0.990  0.000  1.650          
--------------------------------------------------------------------------------


  Lattice summation method               =    Ewald          (3-D)
                                         =    Parry          (2-D)
                                         =    Saunders et al (1-D)
  Accuracy factor for lattice sums       =   12.000


  Analytic derivatives to be used

  Time limit = Infinity

  Maximum range for interatomic potentials =    100000.000000 Angstroms

  General interatomic potentials :

--------------------------------------------------------------------------------
Atom  Types   Potential      Parameter       Value         Units   Cutoffs(Ang)
  1     2                                                            Min /  Max 
--------------------------------------------------------------------------------
O    c O    s Spring (c-s)  Spring k 2       20.486200    eV*Ang^-2 0.000  0.800
                            Spring k 4       0.0000000    eV*Ang^-4 
--------------------------------------------------------------------------------
Cl   c Cl   s Spring (c-s)  Spring k 2       10.001500    eV*Ang^-2 0.000  0.800
                            Spring k 4       0.0000000    eV*Ang^-4 
--------------------------------------------------------------------------------
Na   c Na   c Buckingham    Buckingham A     29281.710    eV        0.000 12.000
                            Buckingham rho  0.37200000E-01Ang       
                            Buckingham C     0.0000000    eV*Ang^6  
--------------------------------------------------------------------------------
Na   c O    s Buckingham    Buckingham A     602.40000    eV        0.000 12.000
                            Buckingham rho  0.34280000    Ang       
                            Buckingham C     0.0000000    eV*Ang^6  
--------------------------------------------------------------------------------
Na   c Cl   s Buckingham    Buckingham A     3515.6900    eV        0.000 12.000
                            Buckingham rho  0.27460000    Ang       
                            Buckingham C     0.0000000    eV*Ang^6  
--------------------------------------------------------------------------------
O    s O    s Buckingham    Buckingham A     25201.690    eV        0.000 12.000
                            Buckingham rho  0.16450000    Ang       
                            Buckingham C     13.190000    eV*Ang^6  
--------------------------------------------------------------------------------
O    s Cl   s Buckingham    Buckingham A     1105.8600    eV        0.000 12.000
                            Buckingham rho  0.31330000    Ang       
                            Buckingham C     62.200000    eV*Ang^6  
--------------------------------------------------------------------------------
Cl   s Cl   s Buckingham    Buckingham A     31408.750    eV        0.000 12.000
                            Buckingham rho  0.13660000    Ang       
                            Buckingham C     14.530000    eV*Ang^6  
--------------------------------------------------------------------------------

********************************************************************************
*  Output for configuration   1                                                *
********************************************************************************


  Components of energy : 

--------------------------------------------------------------------------------
  Interatomic potentials     =           5.33200327 eV    
  Monopole - monopole (real) =         -10.03624526 eV    
  Monopole - monopole (recip)=         -29.53581274 eV    
  Monopole - monopole (total)=         -39.57205800 eV    
--------------------------------------------------------------------------------
  Total lattice energy       =         -34.24005473 eV    
--------------------------------------------------------------------------------
  Total lattice energy       =           -3303.6419 kJ/(mole unit cells)
--------------------------------------------------------------------------------


  Number of variables =        1

  Maximum number of calculations  =          1000
  Maximum Hessian update interval =            10
  Maximum step size               =   1.000000000
  Maximum parameter tolerance     =   0.000010000
  Maximum function  tolerance     =   0.000010000
  Maximum gradient  tolerance     =   0.001000000
  Maximum gradient  component     =   0.010000000

  Symmetry constrained optimisation

  Symmetry used for second derivatives

  Cell parameters to be optimised using strains

  Newton-Raphson optimiser to be used

  BFGS hessian update to be used

  Lower half triangular hessian to be used

  Start of bulk optimisation :

  Cycle:      0 Energy:       -34.240055  Gnorm:      2.245244  CPU:    0.011
  ** Hessian calculated **
  Cycle:      1 Energy:       -34.252747  Gnorm:      0.013309  CPU:    0.014


  **** Optimisation achieved ****


  Final energy =     -34.25274716 eV
  Final Gnorm  =       0.00056121

  Components of energy : 

--------------------------------------------------------------------------------
  Interatomic potentials     =           5.76377683 eV    
  Monopole - monopole (real) =         -10.14897050 eV    
  Monopole - monopole (recip)=         -29.86755349 eV    
  Monopole - monopole (total)=         -40.01652399 eV    
--------------------------------------------------------------------------------
  Total lattice energy       =         -34.25274716 eV    
--------------------------------------------------------------------------------
  Total lattice energy       =           -3304.8665 kJ/(mole unit cells)
--------------------------------------------------------------------------------

  Final asymmetric unit coordinates :

--------------------------------------------------------------------------------
   No.  Atomic        x           y           z         Radius
        Label       (Frac)      (Frac)      (Frac)       (Angs) 
--------------------------------------------------------------------------------
     1  Cl    c     0.000000    0.000000    0.000000    0.000000
     2  O     c     0.500000    0.500000    0.500000    0.000000
     3  Na    c     0.500000    0.500000    0.000000    0.000000
     4  Cl    s     0.000000    0.000000    0.000000    0.000000
     5  O     s     0.500000    0.500000    0.500000    0.000000
--------------------------------------------------------------------------------

  Final Cartesian lattice vectors (Angstroms) :

        4.453974    0.000000    0.000000
        0.000000    4.453974    0.000000
        0.000000    0.000000    4.453974


  Final cell parameters and derivatives :

--------------------------------------------------------------------------------
       a            4.453974 Angstrom     dE/de1(xx)     0.000561 eV/strain
       b            4.453974 Angstrom     dE/de2(yy)     0.000000 eV/strain
       c            4.453974 Angstrom     dE/de3(zz)     0.000000 eV/strain
       alpha       90.000000 Degrees      dE/de4(yz)     0.000000 eV/strain
       beta        90.000000 Degrees      dE/de5(xz)     0.000000 eV/strain
       gamma       90.000000 Degrees      dE/de6(xy)     0.000000 eV/strain
--------------------------------------------------------------------------------

  Primitive cell volume =            88.357409 Angs**3

  Density of cell =      2.263141 g/cm**3

  Non-primitive cell volume =            88.357409 Angs**3


  Final internal derivatives :

--------------------------------------------------------------------------------
   No.  Atomic          a             b             c           Radius
        Label          (eV)          (eV)          (eV)        (eV/Angs)
--------------------------------------------------------------------------------
      1 Cl    c       0.000000      0.000000      0.000000      0.000000
      2 O     c       0.000000      0.000000      0.000000      0.000000
      3 Na    c       0.000000      0.000000      0.000000      0.000000
      4 Cl    s       0.000000      0.000000      0.000000      0.000000
      5 O     s       0.000000      0.000000      0.000000      0.000000
--------------------------------------------------------------------------------
  Maximum abs         0.000000      0.000000      0.000000      0.000000
--------------------------------------------------------------------------------

  Comparison of initial and final structures : 

--------------------------------------------------------------------------------
  Parameter   Initial value   Final value   Difference    Units      Percent
--------------------------------------------------------------------------------
    Volume        91.368216     88.357409    -3.010807    Angs**3     -3.30
    a              4.504000      4.453974    -0.050026    Angstroms   -1.11
    b              4.504000      4.453974    -0.050026    Angstroms   -1.11
    c              4.504000      4.453974    -0.050026    Angstroms   -1.11
    alpha         90.000000     90.000000     0.000000    Degrees      0.00
    beta          90.000000     90.000000     0.000000    Degrees      0.00
    gamma         90.000000     90.000000     0.000000    Degrees      0.00
      1 x          0.000000      0.000000     0.000000    Fractional   0.00
      1 y          0.000000      0.000000     0.000000    Fractional   0.00
      1 z          0.000000      0.000000     0.000000    Fractional   0.00
      2 x          0.500000      0.500000     0.000000    Fractional   0.00
      2 y          0.500000      0.500000     0.000000    Fractional   0.00
      2 z          0.500000      0.500000     0.000000    Fractional   0.00
      3 x          0.500000      0.500000     0.000000    Fractional   0.00
      3 y          0.500000      0.500000     0.000000    Fractional   0.00
      3 z          0.000000      0.000000     0.000000    Fractional   0.00
      4 x          0.000000      0.000000     0.000000    Fractional   0.00
      4 y          0.000000      0.000000     0.000000    Fractional   0.00
      4 z          0.000000      0.000000     0.000000    Fractional   0.00
      5 x          0.500000      0.500000     0.000000    Fractional   0.00
      5 y          0.500000      0.500000     0.000000    Fractional   0.00
      5 z          0.500000      0.500000     0.000000    Fractional   0.00
--------------------------------------------------------------------------------


  Born effective charge tensors : 

-------------------------------------------------------------------------------
  Atom             x           y             z
-------------------------------------------------------------------------------
    1 Cl    x      -1.4271      0.0000      0.0000
            y       0.0000     -1.4271      0.0000
            z       0.0000      0.0000     -1.4271
-------------------------------------------------------------------------------
    2 O     x      -1.6137     -0.0000     -0.0000
            y      -0.0000     -1.6137     -0.0000
            z      -0.0000     -0.0000     -1.6137
-------------------------------------------------------------------------------
    3 Na    x       0.8295     -0.0000     -0.0000
            y      -0.0000      0.8295      0.0000
            z      -0.0000      0.0000      1.3817
-------------------------------------------------------------------------------




  Elastic Constant Matrix: (Units=GPa)

-------------------------------------------------------------------------------
  Indices      1         2         3         4         5         6    
-------------------------------------------------------------------------------
       1     82.8226   21.5342   21.5342    0.0000   -0.0000   -0.0000
       2     21.5342   82.8226   21.5342   -0.0000    0.0000   -0.0000
       3     21.5342   21.5342   82.8226    0.0000    0.0000   -0.0000
       4      0.0000   -0.0000    0.0000   21.5346   -0.0000    0.0000
       5     -0.0000    0.0000    0.0000   -0.0000   21.5346    0.0000
       6     -0.0000   -0.0000   -0.0000    0.0000    0.0000   21.5346
-------------------------------------------------------------------------------


  Elastic Compliance Matrix: (Units=1/GPa)

-------------------------------------------------------------------------------
  Indices      1         2         3         4         5         6    
-------------------------------------------------------------------------------
       1    0.013525 -0.002791 -0.002791 -0.000000  0.000000  0.000000
       2   -0.002791  0.013525 -0.002791  0.000000 -0.000000  0.000000
       3   -0.002791 -0.002791  0.013525 -0.000000 -0.000000  0.000000
       4   -0.000000  0.000000 -0.000000  0.046437  0.000000 -0.000000
       5    0.000000 -0.000000 -0.000000  0.000000  0.046437 -0.000000
       6    0.000000  0.000000  0.000000 -0.000000 -0.000000  0.046437
-------------------------------------------------------------------------------

  Mechanical properties :

-------------------------------------------------------------------------------
  Convention :                    Reuss         Voigt         Hill
-------------------------------------------------------------------------------
  Bulk  Modulus (GPa)     =      41.96371      41.96371      41.96371
  Shear Modulus (GPa)     =      24.44079      25.17843      24.80961
-------------------------------------------------------------------------------
  Velocity S-wave (km/s)  =       3.28626       3.33548       3.31096
  Velocity P-wave (km/s)  =       5.73948       5.77721       5.75837
-------------------------------------------------------------------------------
  Compressibility (1/GPa) =    0.02383011
-------------------------------------------------------------------------------
  Stress axis :                     x             y             z
-------------------------------------------------------------------------------
  Youngs Moduli (GPa)     =      73.93539      73.93539      73.93539
-------------------------------------------------------------------------------
  Poissons Ratio (x)      =                     0.20635       0.20635
  Poissons Ratio (y)      =       0.20635                     0.20635
  Poissons Ratio (z)      =       0.20635       0.20635
-------------------------------------------------------------------------------


  Piezoelectric Strain Matrix: (Units=C/m**2)

-------------------------------------------------------------------------------
  Indices      1         2         3         4         5         6    
-------------------------------------------------------------------------------
       x     0.00000  -0.00000   0.00000   0.00000  -0.00000  -0.00000
       y    -0.00000  -0.00000  -0.00000  -0.00000   0.00000   0.00000
       z    -0.00000  -0.00000   0.00000   0.00000   0.00000   0.00000
-------------------------------------------------------------------------------


  Piezoelectric Stress Matrix: (Units=10**-11 C/N)

-------------------------------------------------------------------------------
  Indices      1         2         3         4         5         6    
-------------------------------------------------------------------------------
       x     0.00000  -0.00000  -0.00000   0.00000  -0.00000  -0.00000
       y    -0.00000   0.00000   0.00000  -0.00000   0.00000   0.00000
       z    -0.00000  -0.00000   0.00000   0.00000   0.00000   0.00000
-------------------------------------------------------------------------------


  Static dielectric constant tensor : 

-------------------------------------------------------------------------------
              x         y         z
-------------------------------------------------------------------------------
       x    28.60451  -0.00000  -0.00000
       y    -0.00000  28.60451  -0.00000
       z    -0.00000  -0.00000  28.60451
--------------------------------------------------------------------------------

  High frequency dielectric constant tensor : 

-------------------------------------------------------------------------------
              x         y         z
-------------------------------------------------------------------------------
       x     3.92296  -0.00000  -0.00000
       y    -0.00000   3.92296   0.00000
       z    -0.00000   0.00000   3.92296
-------------------------------------------------------------------------------

  Static refractive indices : 

-------------------------------------------------------------------------------
    1 =    5.34832      2 =    5.34832      3 =    5.34832
-------------------------------------------------------------------------------

  High frequency refractive indices : 

-------------------------------------------------------------------------------
    1 =    1.98065      2 =    1.98065      3 =    1.98065
-------------------------------------------------------------------------------


  Time to end of optimisation =       0.0211 seconds

********************************************************************************
*  Defect calculation for configuration   1 :                                  *
********************************************************************************

  Total number of defects =      1

  Total charge on defect  =  -1.00

  Defect centre is at   0.5000   0.5000   0.0000  Frac

  Region 1 radius =  15.0000      Number of ions =   1126

  Number of symmetry inequivalent region 1 ions  =    116

  Region 2 radius =  24.0000      Number of ions =   3472

  Number of symmetry inequivalent region 2a ions =    284

  Region 2a mode = 4 : screened electrostatics due to region 1 
                       neglect correction to region 1 forces from 2a
                       region 2a displacements based on defects only

  Region 2a ions will only interact with defects in region 1

  Vacancies:

--------------------------------------------------------------------------------
    Specification type     Symbol/Number         x          y          z
--------------------------------------------------------------------------------
    Fractional                               0.500000   0.500000   0.000000
--------------------------------------------------------------------------------


  Symmetry reduced region 1 (Relative to defect centre) :

--------------------------------------------------------------------------------
   No.   Atomic       x            y             z       Radius  Multiplicity   
         Label      (Angs)       (Angs)        (Angs)    (Angs)     
--------------------------------------------------------------------------------
     1  O     c      0.0000       0.0000      -2.2270 *  0.0000     2          
     2  Cl    c      2.2270 *     2.2270       0.0000    0.0000     4          
     3  Na    c      2.2270 *     0.0000      -2.2270 *  0.0000     8          
     4  Na    c      0.0000       0.0000       4.4540 *  0.0000     2          
     5  Na    c      0.0000      -4.4540 *     0.0000    0.0000     4          
     6  O     c      0.0000      -4.4540 *    -2.2270 *  0.0000     8          
     7  Cl    c      2.2270 *     2.2270       4.4540 *  0.0000     8          
     8  Na    c      2.2270 *    -4.4540 *    -2.2270 *  0.0000    16          
     9  Na    c      0.0000      -4.4540 *     4.4540 *  0.0000     8          
    10  Na    c     -4.4540 *    -4.4540       0.0000    0.0000     4          
    11  O     c     -4.4540 *    -4.4540      -2.2270 *  0.0000     8          
    12  O     c      0.0000       0.0000       6.6810 *  0.0000     2          
    13  Cl    c      2.2270 *     6.6810 *     0.0000    0.0000     8          
    14  Na    c      2.2270 *     0.0000       6.6810 *  0.0000     8          
    15  Na    c      6.6810 *     0.0000      -2.2270 *  0.0000     8          
    16  Na    c     -4.4540 *    -4.4540       4.4540 *  0.0000     8          
    17  O     c      0.0000      -4.4540 *     6.6810 *  0.0000     8          
    18  Cl    c      2.2270 *     6.6810 *     4.4540 *  0.0000    16          
    19  Na    c      2.2270 *     4.4540 *     6.6810 *  0.0000    16          
    20  Na    c      6.6810 *    -4.4540 *    -2.2270 *  0.0000    16          
    21  Na    c      0.0000       0.0000       8.9079 *  0.0000     2          
    22  Na    c      0.0000       8.9079 *     0.0000    0.0000     4          
    23  O     c      0.0000       8.9079 *    -2.2270 *  0.0000     8          
    24  O     c     -4.4540 *    -4.4540       6.6810 *  0.0000     8          
    25  Cl    c      2.2270 *     2.2270       8.9079 *  0.0000     8          
    26  Cl    c      6.6810 *     6.6810       0.0000    0.0000     4          
    27  Na    c      2.2270 *     8.9079 *    -2.2270 *  0.0000    16          
    28  Na    c      6.6810 *     0.0000       6.6810 *  0.0000     8          
    29  Na    c      0.0000       4.4540 *     8.9079 *  0.0000     8          
    30  Na    c      0.0000       8.9079 *     4.4540 *  0.0000     8          
    31  Na    c      4.4540 *     8.9079 *     0.0000    0.0000     8          
    32  O     c      4.4540 *     8.9079 *    -2.2270 *  0.0000    16          
    33  Cl    c      6.6810 *     6.6810       4.4540 *  0.0000     8          
    34  Na    c      6.6810 *     4.4540 *     6.6810 *  0.0000    16          
    35  Na    c     -4.4540 *    -4.4540       8.9079 *  0.0000     8          
    36  Na    c      4.4540 *     8.9079 *     4.4540 *  0.0000    16          
    37  O     c      0.0000       0.0000      11.1349 *  0.0000     2          
    38  O     c      0.0000       8.9079 *     6.6810 *  0.0000     8          
    39  Cl    c      2.2270 *     6.6810 *     8.9079 *  0.0000    16          
    40  Cl    c      2.2270 *    11.1349 *     0.0000    0.0000     8          
    41  Na    c      2.2270 *     0.0000      11.1349 *  0.0000     8          
    42  Na    c      2.2270 *     8.9079 *     6.6810 *  0.0000    16          
    43  Na    c      6.6810 *     8.9079 *    -2.2270 *  0.0000    16          
    44  Na    c     11.1349 *     0.0000      -2.2270 *  0.0000     8          
    45  O     c      0.0000      -4.4540 *    11.1349 *  0.0000     8          
    46  O     c      4.4540 *     8.9079 *     6.6810 *  0.0000    16          
    47  Cl    c      2.2270 *    11.1349 *     4.4540 *  0.0000    16          
    48  Na    c      2.2270 *    -4.4540 *    11.1349 *  0.0000    16          
    49  Na    c     11.1349 *    -4.4540 *    -2.2270 *  0.0000    16          
    50  Na    c      0.0000       8.9079 *     8.9079 *  0.0000     8          
    51  Na    c      8.9079 *     8.9079       0.0000    0.0000     4          
    52  O     c      4.4540 *     4.4540      11.1349 *  0.0000     8          
    53  O     c      8.9079 *     8.9079      -2.2270 *  0.0000     8          
    54  Cl    c      6.6810 *     6.6810       8.9079 *  0.0000     8          
    55  Cl    c      6.6810 *    11.1349 *     0.0000    0.0000     8          
    56  Na    c      6.6810 *     0.0000      11.1349 *  0.0000     8          
    57  Na    c      6.6810 *     8.9079 *     6.6810 *  0.0000    16          
    58  Na    c     11.1349 *     0.0000       6.6810 *  0.0000     8          
    59  Na    c      4.4540 *     8.9079 *     8.9079 *  0.0000    16          
    60  Na    c      8.9079 *     8.9079       4.4540 *  0.0000     8          
    61  Na    c      0.0000       0.0000      13.3619 *  0.0000     2          
    62  Na    c      0.0000      13.3619 *     0.0000    0.0000     4          
    63  O     c      0.0000      13.3619 *    -2.2270 *  0.0000     8          
    64  Cl    c      6.6810 *    11.1349 *     4.4540 *  0.0000    16          
    65  Na    c      6.6810 *     4.4540 *    11.1349 *  0.0000    16          
    66  Na    c     11.1349 *    -4.4540 *     6.6810 *  0.0000    16          
    67  Cl    c      2.2270 *     2.2270      13.3619 *  0.0000     8          
    68  Na    c      2.2270 *    13.3619 *    -2.2270 *  0.0000    16          
    69  Na    c      0.0000      13.3619 *     4.4540 *  0.0000     8          
    70  Na    c      0.0000      -4.4540 *    13.3619 *  0.0000     8          
    71  Na    c     13.3619 *    -4.4540 *     0.0000    0.0000     8          
    72  O     c      0.0000       8.9079 *    11.1349 *  0.0000     8          
    73  O     c      8.9079 *     8.9079       6.6810 *  0.0000     8          
    74  O     c     13.3619 *    -4.4540 *    -2.2270 *  0.0000    16          
    75  Na    c     11.1349 *     8.9079 *    -2.2270 *  0.0000    16          
    76  Cl    c      2.2270 *    11.1349 *     8.9079 *  0.0000    16          
    77  Na    c      2.2270 *     8.9079 *    11.1349 *  0.0000    16          
    78  Na    c     13.3619 *    -4.4540 *     4.4540 *  0.0000    16          
    79  Na    c      4.4540 *     4.4540      13.3619 *  0.0000     8          
    80  O     c      4.4540 *     8.9079 *    11.1349 *  0.0000    16          
    81  O     c      0.0000      13.3619 *     6.6810 *  0.0000     8          
    82  O     s      0.0000       0.0000      -2.2270 *  0.0000     2          
    83  Cl    s      2.2270 *     2.2270       0.0000    0.0000     4          
    84  O     s      0.0000      -4.4540 *    -2.2270 *  0.0000     8          
    85  Cl    s      2.2270 *     2.2270       4.4540 *  0.0000     8          
    86  O     s     -4.4540 *    -4.4540      -2.2270 *  0.0000     8          
    87  O     s      0.0000       0.0000       6.6810 *  0.0000     2          
    88  Cl    s      2.2270 *     6.6810 *     0.0000    0.0000     8          
    89  O     s      0.0000      -4.4540 *     6.6810 *  0.0000     8          
    90  Cl    s      2.2270 *     6.6810 *     4.4540 *  0.0000    16          
    91  O     s      0.0000       8.9079 *    -2.2270 *  0.0000     8          
    92  O     s     -4.4540 *    -4.4540       6.6810 *  0.0000     8          
    93  Cl    s      2.2270 *     2.2270       8.9079 *  0.0000     8          
    94  Cl    s      6.6810 *     6.6810       0.0000    0.0000     4          
    95  O     s      4.4540 *     8.9079 *    -2.2270 *  0.0000    16          
    96  Cl    s      6.6810 *     6.6810       4.4540 *  0.0000     8          
    97  O     s      0.0000       0.0000      11.1349 *  0.0000     2          
    98  O     s      0.0000       8.9079 *     6.6810 *  0.0000     8          
    99  Cl    s      2.2270 *     6.6810 *     8.9079 *  0.0000    16          
   100  Cl    s      2.2270 *    11.1349 *     0.0000    0.0000     8          
   101  O     s      0.0000      -4.4540 *    11.1349 *  0.0000     8          
   102  O     s      4.4540 *     8.9079 *     6.6810 *  0.0000    16          
   103  Cl    s      2.2270 *    11.1349 *     4.4540 *  0.0000    16          
   104  O     s      4.4540 *     4.4540      11.1349 *  0.0000     8          
   105  O     s      8.9079 *     8.9079      -2.2270 *  0.0000     8          
   106  Cl    s      6.6810 *     6.6810       8.9079 *  0.0000     8          
   107  Cl    s      6.6810 *    11.1349 *     0.0000    0.0000     8          
   108  O     s      0.0000      13.3619 *    -2.2270 *  0.0000     8          
   109  Cl    s      6.6810 *    11.1349 *     4.4540 *  0.0000    16          
   110  Cl    s      2.2270 *     2.2270      13.3619 *  0.0000     8          
   111  O     s      0.0000       8.9079 *    11.1349 *  0.0000     8          
   112  O     s      8.9079 *     8.9079       6.6810 *  0.0000     8          
   113  O     s     13.3619 *    -4.4540 *    -2.2270 *  0.0000    16          
   114  Cl    s      2.2270 *    11.1349 *     8.9079 *  0.0000    16          
   115  O     s      4.4540 *     8.9079 *    11.1349 *  0.0000    16          
   116  O     s      0.0000      13.3619 *     6.6810 *  0.0000     8          
--------------------------------------------------------------------------------


  Constraints on symmetry reduced coordinates :

--------------------------------------------------------------------------------
  Constraint no.      Unconstrained     Constrained    Coefficient    
                         Variable         Variable
--------------------------------------------------------------------------------
           1                 2 x             2 y         1.00000
           2                 7 x             7 y         1.00000
           3                10 x            10 y         1.00000
           4                11 x            11 y         1.00000
           5                16 x            16 y         1.00000
           6                24 x            24 y         1.00000
           7                25 x            25 y         1.00000
           8                26 x            26 y         1.00000
           9                33 x            33 y         1.00000
          10                35 x            35 y         1.00000
          11                51 x            51 y         1.00000
          12                52 x            52 y         1.00000
          13                53 x            53 y         1.00000
          14                54 x            54 y         1.00000
          15                60 x            60 y         1.00000
          16                67 x            67 y         1.00000
          17                73 x            73 y         1.00000
          18                79 x            79 y         1.00000
          19                83 x            83 y         1.00000
          20                85 x            85 y         1.00000
          21                86 x            86 y         1.00000
          22                92 x            92 y         1.00000
          23                93 x            93 y         1.00000
          24                94 x            94 y         1.00000
          25                96 x            96 y         1.00000
          26               104 x           104 y         1.00000
          27               105 x           105 y         1.00000
          28               106 x           106 y         1.00000
          29               110 x           110 y         1.00000
          30               112 x           112 y         1.00000
--------------------------------------------------------------------------------


  Components of defect energy : 

--------------------------------------------------------------------------------
  Region 1 - region 1                   =     31.96812659 eV
  Region 1 - region 2a (unrelaxed)      =    -23.49924242 eV
  Region 1 - 2a (relaxed - correction)  =     -0.35677805 eV
  Region 1 (Total)                      =      8.11210612 eV
  Region 2a                             =      0.17834925 eV
  Region 2b                             =     -0.28871589 eV
--------------------------------------------------------------------------------
  Total defect energy                   =      8.00173947 eV
--------------------------------------------------------------------------------

  Largest displacement in region 2 =   0.0124 Angstroms


  Number of variables =      250

  Maximum number of calculations  =        1000
  Maximum Hessian update interval =          10
  Maximum step size               =   1.0000000
  Maximum parameter tolerance     =   0.0000100
  Maximum function  tolerance     =   0.0000100
  Maximum gradient  tolerance     =   0.0010000

  Symmetry adapted optimisation

  Symmetry to be used for second derivatives

  Newton-Raphson optimiser to be used

  BFGS hessian update to be used

  Lower half triangular hessian to be used

  Start of defect optimisation :

  Cycle:      0 Defect Energy:   8.001739  Gnorm:     0.176891  CPU:    2.489
  ** Hessian calculated **
  Cycle:      1 Defect Energy:   6.351173  Gnorm:     0.128098  CPU:    5.090
  ** Hessian calculated **
  Cycle:      2 Defect Energy:   4.899121  Gnorm:     0.041361  CPU:    7.927
  Cycle:      3 Defect Energy:   4.747190  Gnorm:     0.017019  CPU:    9.808
  Cycle:      4 Defect Energy:   4.695991  Gnorm:     0.012917  CPU:   12.230
  Cycle:      5 Defect Energy:   4.676178  Gnorm:     0.009035  CPU:   12.713
  Cycle:      6 Defect Energy:   4.650799  Gnorm:     0.007739  CPU:   13.268
  Cycle:      7 Defect Energy:   4.616989  Gnorm:     0.007026  CPU:   13.726
  Cycle:      8 Defect Energy:   4.573436  Gnorm:     0.007273  CPU:   14.145
  Cycle:      9 Defect Energy:   4.518237  Gnorm:     0.007405  CPU:   14.564
  Cycle:     10 Defect Energy:   4.462679  Gnorm:     0.009246  CPU:   14.973
  Cycle:     11 Defect Energy:   4.425669  Gnorm:     0.008745  CPU:   15.393
  ** Hessian calculated **
  Cycle:     12 Defect Energy:   4.414261  Gnorm:     0.005928  CPU:   16.532
  Cycle:     13 Defect Energy:   4.399684  Gnorm:     0.005655  CPU:   17.015
  Cycle:     14 Defect Energy:   4.380179  Gnorm:     0.005087  CPU:   17.495
  Cycle:     15 Defect Energy:   4.352782  Gnorm:     0.005598  CPU:   17.970
  Cycle:     16 Defect Energy:   4.313811  Gnorm:     0.006510  CPU:   18.424
  Cycle:     17 Defect Energy:   4.256359  Gnorm:     0.008508  CPU:   18.905
  Cycle:     18 Defect Energy:   4.175581  Gnorm:     0.011932  CPU:   19.359
  Cycle:     19 Defect Energy:   4.076623  Gnorm:     0.015624  CPU:   19.809
  Cycle:     20 Defect Energy:   4.033603  Gnorm:     0.019197  CPU:   20.255
  Cycle:     21 Defect Energy:   3.998683  Gnorm:     0.018856  CPU:   21.886
  ** Hessian calculated **
  Cycle:     22 Defect Energy:   3.753744  Gnorm:     0.011592  CPU:   24.322
  Cycle:     23 Defect Energy:   3.713015  Gnorm:     0.007628  CPU:   24.734
  Cycle:     24 Defect Energy:   3.697439  Gnorm:     0.005354  CPU:   25.142
  Cycle:     25 Defect Energy:   3.689992  Gnorm:     0.003688  CPU:   25.559
  Cycle:     26 Defect Energy:   3.686377  Gnorm:     0.002610  CPU:   25.992
  Cycle:     27 Defect Energy:   3.684671  Gnorm:     0.001763  CPU:   26.397
  Cycle:     28 Defect Energy:   3.683844  Gnorm:     0.001252  CPU:   26.806
  Cycle:     29 Defect Energy:   3.683481  Gnorm:     0.000832  CPU:   27.214
  Cycle:     30 Defect Energy:   3.683313  Gnorm:     0.000589  CPU:   27.617
  Cycle:     31 Defect Energy:   3.683246  Gnorm:     0.000400  CPU:   28.026
  ** Hessian calculated **
  Cycle:     32 Defect Energy:   3.683219  Gnorm:     0.000280  CPU:   29.026
  Cycle:     33 Defect Energy:   3.683209  Gnorm:     0.000196  CPU:   29.430
  Cycle:     34 Defect Energy:   3.683206  Gnorm:     0.000137  CPU:   29.833


  **** Optimisation achieved ****


  Final defect energy  =        3.68320698
  Final defect Gnorm   =        0.00009601

  Components of defect energy : 

--------------------------------------------------------------------------------
  Region 1 - region 1                   =     28.36475558 eV
  Region 1 - region 2a (unrelaxed)      =    -24.24267368 eV
  Region 1 - 2a (relaxed - correction)  =     -0.30020091 eV
  Region 1 (Total)                      =      3.82188099 eV
  Region 2a                             =      0.15004188 eV
  Region 2b                             =     -0.28871589 eV
--------------------------------------------------------------------------------
  Total defect energy                   =      3.68320698 eV
--------------------------------------------------------------------------------

  Largest displacement in region 2 =   0.0124 Angstroms

  Final coordinates of region 1 :

--------------------------------------------------------------------------------
   No.  Atomic        x           y           z          Radius      Charge
        Label       (Angs)      (Angs)      (Angs)       (Angs)       (e) 
--------------------------------------------------------------------------------
     1  O     c     2.226987    2.226987   -2.197704    0.000000    1.443000
     2  O     c     2.226987    2.226987    2.197704    0.000000    1.443000
     3  Cl    c     4.568662    4.568662    0.000000    0.000000    0.996000
     4  Cl    c     4.568662   -0.114688    0.000000    0.000000    0.996000
     5  Cl    c    -0.114688    4.568662    0.000000    0.000000    0.996000
     6  Cl    c    -0.114688   -0.114688    0.000000    0.000000    0.996000
     7  Na    c     4.381138    2.226987   -1.784402    0.000000    1.000000
     8  Na    c     4.381138    2.226987    1.784402    0.000000    1.000000
     9  Na    c     0.072836    2.226987   -1.784402    0.000000    1.000000
    10  Na    c     0.072836    2.226987    1.784402    0.000000    1.000000
    11  Na    c     2.226987    4.381138   -1.784402    0.000000    1.000000
    12  Na    c     2.226987    4.381138    1.784402    0.000000    1.000000
    13  Na    c     2.226987    0.072836   -1.784402    0.000000    1.000000
    14  Na    c     2.226987    0.072836    1.784402    0.000000    1.000000
    15  Na    c     2.226987    2.226987    4.375773    0.000000    1.000000
    16  Na    c     2.226987    2.226987   -4.375773    0.000000    1.000000
    17  Na    c     2.226987   -2.627221    0.000000    0.000000    1.000000
    18  Na    c    -2.627221    2.226987    0.000000    0.000000    1.000000
    19  Na    c     2.226987    7.081195    0.000000    0.000000    1.000000
    20  Na    c     7.081195    2.226987    0.000000    0.000000    1.000000
    21  O     c     2.226987   -2.194329   -2.210617    0.000000    1.443000
    22  O     c     2.226987   -2.194329    2.210617    0.000000    1.443000
    23  O     c    -2.194329    2.226987   -2.210617    0.000000    1.443000
    24  O     c    -2.194329    2.226987    2.210617    0.000000    1.443000
    25  O     c     2.226987    6.648303   -2.210617    0.000000    1.443000
    26  O     c     2.226987    6.648303    2.210617    0.000000    1.443000
    27  O     c     6.648303    2.226987   -2.210617    0.000000    1.443000
    28  O     c     6.648303    2.226987    2.210617    0.000000    1.443000
    29  Cl    c     4.542180    4.542180    4.520885    0.000000    0.996000
    30  Cl    c     4.542180    4.542180   -4.520885    0.000000    0.996000
    31  Cl    c     4.542180   -0.088206    4.520885    0.000000    0.996000
    32  Cl    c     4.542180   -0.088206   -4.520885    0.000000    0.996000
    33  Cl    c    -0.088206    4.542180    4.520885    0.000000    0.996000
    34  Cl    c    -0.088206    4.542180   -4.520885    0.000000    0.996000
    35  Cl    c    -0.088206   -0.088206    4.520885    0.000000    0.996000
    36  Cl    c    -0.088206   -0.088206   -4.520885    0.000000    0.996000
    37  Na    c     4.450710   -2.210013   -2.222857    0.000000    1.000000
    38  Na    c     4.450710   -2.210013    2.222857    0.000000    1.000000
    39  Na    c     0.003264   -2.210013   -2.222857    0.000000    1.000000
    40  Na    c     0.003264   -2.210013    2.222857    0.000000    1.000000
    41  Na    c    -2.210013    4.450710   -2.222857    0.000000    1.000000
    42  Na    c    -2.210013    4.450710    2.222857    0.000000    1.000000
    43  Na    c    -2.210013    0.003264   -2.222857    0.000000    1.000000
    44  Na    c    -2.210013    0.003264    2.222857    0.000000    1.000000
    45  Na    c     4.450710    6.663987   -2.222857    0.000000    1.000000
    46  Na    c     4.450710    6.663987    2.222857    0.000000    1.000000
    47  Na    c     0.003264    6.663987   -2.222857    0.000000    1.000000
    48  Na    c     0.003264    6.663987    2.222857    0.000000    1.000000
    49  Na    c     6.663987    4.450710   -2.222857    0.000000    1.000000
    50  Na    c     6.663987    4.450710    2.222857    0.000000    1.000000
    51  Na    c     6.663987    0.003264   -2.222857    0.000000    1.000000
    52  Na    c     6.663987    0.003264    2.222857    0.000000    1.000000
    53  Na    c     2.226987   -1.759425    4.415758    0.000000    1.000000
    54  Na    c     2.226987   -1.759425   -4.415758    0.000000    1.000000
    55  Na    c    -1.759425    2.226987    4.415758    0.000000    1.000000
    56  Na    c    -1.759425    2.226987   -4.415758    0.000000    1.000000
    57  Na    c     2.226987    6.213399    4.415758    0.000000    1.000000
    58  Na    c     2.226987    6.213399   -4.415758    0.000000    1.000000
    59  Na    c     6.213399    2.226987    4.415758    0.000000    1.000000
    60  Na    c     6.213399    2.226987   -4.415758    0.000000    1.000000
    61  Na    c    -2.215468   -2.215468    0.000000    0.000000    1.000000
    62  Na    c     6.669442   -2.215468    0.000000    0.000000    1.000000
    63  Na    c    -2.215468    6.669442    0.000000    0.000000    1.000000
    64  Na    c     6.669442    6.669442    0.000000    0.000000    1.000000
    65  O     c    -2.233972   -2.233972   -2.227151    0.000000    1.443000
    66  O     c    -2.233972   -2.233972    2.227151    0.000000    1.443000
    67  O     c     6.687946   -2.233972   -2.227151    0.000000    1.443000
    68  O     c     6.687946   -2.233972    2.227151    0.000000    1.443000
    69  O     c    -2.233972    6.687946   -2.227151    0.000000    1.443000
    70  O     c    -2.233972    6.687946    2.227151    0.000000    1.443000
    71  O     c     6.687946    6.687946   -2.227151    0.000000    1.443000
    72  O     c     6.687946    6.687946    2.227151    0.000000    1.443000
    73  O     c     2.226987    2.226987    6.655279    0.000000    1.443000
    74  O     c     2.226987    2.226987   -6.655279    0.000000    1.443000
    75  Cl    c     4.505120    8.923590    0.000000    0.000000    0.996000
    76  Cl    c     4.505120   -4.469616    0.000000    0.000000    0.996000
    77  Cl    c     8.923590    4.505120    0.000000    0.000000    0.996000
    78  Cl    c     8.923590   -0.051146    0.000000    0.000000    0.996000
    79  Cl    c    -0.051146    8.923590    0.000000    0.000000    0.996000
    80  Cl    c    -0.051146   -4.469616    0.000000    0.000000    0.996000
    81  Cl    c    -4.469616    4.505120    0.000000    0.000000    0.996000
    82  Cl    c    -4.469616   -0.051146    0.000000    0.000000    0.996000
    83  Na    c     4.458147    2.226987    6.913457    0.000000    1.000000
    84  Na    c     4.458147    2.226987   -6.913457    0.000000    1.000000
    85  Na    c    -0.004173    2.226987    6.913457    0.000000    1.000000
    86  Na    c    -0.004173    2.226987   -6.913457    0.000000    1.000000
    87  Na    c     2.226987    4.458147    6.913457    0.000000    1.000000
    88  Na    c     2.226987    4.458147   -6.913457    0.000000    1.000000
    89  Na    c     2.226987   -0.004173    6.913457    0.000000    1.000000
    90  Na    c     2.226987   -0.004173   -6.913457    0.000000    1.000000
    91  Na    c     8.872782    2.226987   -2.649178    0.000000    1.000000
    92  Na    c     8.872782    2.226987    2.649178    0.000000    1.000000
    93  Na    c    -4.418808    2.226987   -2.649178    0.000000    1.000000
    94  Na    c    -4.418808    2.226987    2.649178    0.000000    1.000000
    95  Na    c     2.226987    8.872782   -2.649178    0.000000    1.000000
    96  Na    c     2.226987    8.872782    2.649178    0.000000    1.000000
    97  Na    c     2.226987   -4.418808   -2.649178    0.000000    1.000000
    98  Na    c     2.226987   -4.418808    2.649178    0.000000    1.000000
    99  Na    c    -2.221082   -2.221082    4.451105    0.000000    1.000000
   100  Na    c    -2.221082   -2.221082   -4.451105    0.000000    1.000000
   101  Na    c     6.675056    6.675056    4.451105    0.000000    1.000000
   102  Na    c     6.675056    6.675056   -4.451105    0.000000    1.000000
   103  Na    c     6.675056   -2.221082    4.451105    0.000000    1.000000
   104  Na    c     6.675056   -2.221082   -4.451105    0.000000    1.000000
   105  Na    c    -2.221082    6.675056    4.451105    0.000000    1.000000
   106  Na    c    -2.221082    6.675056   -4.451105    0.000000    1.000000
   107  O     c     2.226987   -2.237561    6.634093    0.000000    1.443000
   108  O     c     2.226987   -2.237561   -6.634093    0.000000    1.443000
   109  O     c    -2.237561    2.226987    6.634093    0.000000    1.443000
   110  O     c    -2.237561    2.226987   -6.634093    0.000000    1.443000
   111  O     c     2.226987    6.691534    6.634093    0.000000    1.443000
   112  O     c     2.226987    6.691534   -6.634093    0.000000    1.443000
   113  O     c     6.691534    2.226987    6.634093    0.000000    1.443000
   114  O     c     6.691534    2.226987   -6.634093    0.000000    1.443000
   115  Cl    c     4.517392    8.933699    4.454883    0.000000    0.996000
   116  Cl    c     4.517392    8.933699   -4.454883    0.000000    0.996000
   117  Cl    c     4.517392   -4.479725    4.454883    0.000000    0.996000
   118  Cl    c     4.517392   -4.479725   -4.454883    0.000000    0.996000
   119  Cl    c     8.933699    4.517392    4.454883    0.000000    0.996000
   120  Cl    c     8.933699    4.517392   -4.454883    0.000000    0.996000
   121  Cl    c     8.933699   -0.063418    4.454883    0.000000    0.996000
   122  Cl    c     8.933699   -0.063418   -4.454883    0.000000    0.996000
   123  Cl    c    -0.063418    8.933699    4.454883    0.000000    0.996000
   124  Cl    c    -0.063418    8.933699   -4.454883    0.000000    0.996000
   125  Cl    c    -0.063418   -4.479725    4.454883    0.000000    0.996000
   126  Cl    c    -0.063418   -4.479725   -4.454883    0.000000    0.996000
   127  Cl    c    -4.479725    4.517392    4.454883    0.000000    0.996000
   128  Cl    c    -4.479725    4.517392   -4.454883    0.000000    0.996000
   129  Cl    c    -4.479725   -0.063418    4.454883    0.000000    0.996000
   130  Cl    c    -4.479725   -0.063418   -4.454883    0.000000    0.996000
   131  Na    c     4.454453    6.671734    6.619985    0.000000    1.000000
   132  Na    c     4.454453    6.671734   -6.619985    0.000000    1.000000
   133  Na    c     4.454453   -2.217760    6.619985    0.000000    1.000000
   134  Na    c     4.454453   -2.217760   -6.619985    0.000000    1.000000
   135  Na    c    -0.000479    6.671734    6.619985    0.000000    1.000000
   136  Na    c    -0.000479    6.671734   -6.619985    0.000000    1.000000
   137  Na    c    -0.000479   -2.217760    6.619985    0.000000    1.000000
   138  Na    c    -0.000479   -2.217760   -6.619985    0.000000    1.000000
   139  Na    c     6.671734    4.454453    6.619985    0.000000    1.000000
   140  Na    c     6.671734    4.454453   -6.619985    0.000000    1.000000
   141  Na    c     6.671734   -0.000479    6.619985    0.000000    1.000000
   142  Na    c     6.671734   -0.000479   -6.619985    0.000000    1.000000
   143  Na    c    -2.217760    4.454453    6.619985    0.000000    1.000000
   144  Na    c    -2.217760    4.454453   -6.619985    0.000000    1.000000
   145  Na    c    -2.217760   -0.000479    6.619985    0.000000    1.000000
   146  Na    c    -2.217760   -0.000479   -6.619985    0.000000    1.000000
   147  Na    c     8.908265   -2.230894   -2.213518    0.000000    1.000000
   148  Na    c     8.908265   -2.230894    2.213518    0.000000    1.000000
   149  Na    c    -4.454291   -2.230894   -2.213518    0.000000    1.000000
   150  Na    c    -4.454291   -2.230894    2.213518    0.000000    1.000000
   151  Na    c    -2.230894    8.908265   -2.213518    0.000000    1.000000
   152  Na    c    -2.230894    8.908265    2.213518    0.000000    1.000000
   153  Na    c    -2.230894   -4.454291   -2.213518    0.000000    1.000000
   154  Na    c    -2.230894   -4.454291    2.213518    0.000000    1.000000
   155  Na    c     8.908265    6.684868   -2.213518    0.000000    1.000000
   156  Na    c     8.908265    6.684868    2.213518    0.000000    1.000000
   157  Na    c    -4.454291    6.684868   -2.213518    0.000000    1.000000
   158  Na    c    -4.454291    6.684868    2.213518    0.000000    1.000000
   159  Na    c     6.684868    8.908265   -2.213518    0.000000    1.000000
   160  Na    c     6.684868    8.908265    2.213518    0.000000    1.000000
   161  Na    c     6.684868   -4.454291   -2.213518    0.000000    1.000000
   162  Na    c     6.684868   -4.454291    2.213518    0.000000    1.000000
   163  Na    c     2.226987    2.226987    8.904272    0.000000    1.000000
   164  Na    c     2.226987    2.226987   -8.904272    0.000000    1.000000
   165  Na    c     2.226987   10.723985    0.000000    0.000000    1.000000
   166  Na    c     2.226987   -6.270011    0.000000    0.000000    1.000000
   167  Na    c    10.723985    2.226987    0.000000    0.000000    1.000000
   168  Na    c    -6.270011    2.226987    0.000000    0.000000    1.000000
   169  O     c     2.226987   11.101185   -2.226064    0.000000    1.443000
   170  O     c     2.226987   11.101185    2.226064    0.000000    1.443000
   171  O     c     2.226987   -6.647211   -2.226064    0.000000    1.443000
   172  O     c     2.226987   -6.647211    2.226064    0.000000    1.443000
   173  O     c    11.101185    2.226987   -2.226064    0.000000    1.443000
   174  O     c    11.101185    2.226987    2.226064    0.000000    1.443000
   175  O     c    -6.647211    2.226987   -2.226064    0.000000    1.443000
   176  O     c    -6.647211    2.226987    2.226064    0.000000    1.443000
   177  O     c    -2.234797   -2.234797    6.689144    0.000000    1.443000
   178  O     c    -2.234797   -2.234797   -6.689144    0.000000    1.443000
   179  O     c     6.688771    6.688771    6.689144    0.000000    1.443000
   180  O     c     6.688771    6.688771   -6.689144    0.000000    1.443000
   181  O     c     6.688771   -2.234797    6.689144    0.000000    1.443000
   182  O     c     6.688771   -2.234797   -6.689144    0.000000    1.443000
   183  O     c    -2.234797    6.688771    6.689144    0.000000    1.443000
   184  O     c    -2.234797    6.688771   -6.689144    0.000000    1.443000
   185  Cl    c     4.442358    4.442358    8.923557    0.000000    0.996000
   186  Cl    c     4.442358    4.442358   -8.923557    0.000000    0.996000
   187  Cl    c     4.442358    0.011615    8.923557    0.000000    0.996000
   188  Cl    c     4.442358    0.011615   -8.923557    0.000000    0.996000
   189  Cl    c     0.011615    4.442358    8.923557    0.000000    0.996000
   190  Cl    c     0.011615    4.442358   -8.923557    0.000000    0.996000
   191  Cl    c     0.011615    0.011615    8.923557    0.000000    0.996000
   192  Cl    c     0.011615    0.011615   -8.923557    0.000000    0.996000
   193  Cl    c     8.927688    8.927688    0.000000    0.000000    0.996000
   194  Cl    c     8.927688   -4.473715    0.000000    0.000000    0.996000
   195  Cl    c    -4.473715    8.927688    0.000000    0.000000    0.996000
   196  Cl    c    -4.473715   -4.473715    0.000000    0.000000    0.996000
   197  Na    c     4.450445   11.107465   -2.225150    0.000000    1.000000
   198  Na    c     4.450445   11.107465    2.225150    0.000000    1.000000
   199  Na    c     4.450445   -6.653492   -2.225150    0.000000    1.000000
   200  Na    c     4.450445   -6.653492    2.225150    0.000000    1.000000
   201  Na    c     0.003529   11.107465   -2.225150    0.000000    1.000000
   202  Na    c     0.003529   11.107465    2.225150    0.000000    1.000000
   203  Na    c     0.003529   -6.653492   -2.225150    0.000000    1.000000
   204  Na    c     0.003529   -6.653492    2.225150    0.000000    1.000000
   205  Na    c    11.107465    4.450445   -2.225150    0.000000    1.000000
   206  Na    c    11.107465    4.450445    2.225150    0.000000    1.000000
   207  Na    c    11.107465    0.003529   -2.225150    0.000000    1.000000
   208  Na    c    11.107465    0.003529    2.225150    0.000000    1.000000
   209  Na    c    -6.653492    4.450445   -2.225150    0.000000    1.000000
   210  Na    c    -6.653492    4.450445    2.225150    0.000000    1.000000
   211  Na    c    -6.653492    0.003529   -2.225150    0.000000    1.000000
   212  Na    c    -6.653492    0.003529    2.225150    0.000000    1.000000
   213  Na    c     8.900388    2.226987    6.267085    0.000000    1.000000
   214  Na    c     8.900388    2.226987   -6.267085    0.000000    1.000000
   215  Na    c    -4.446414    2.226987    6.267085    0.000000    1.000000
   216  Na    c    -4.446414    2.226987   -6.267085    0.000000    1.000000
   217  Na    c     2.226987    8.900388    6.267085    0.000000    1.000000
   218  Na    c     2.226987    8.900388   -6.267085    0.000000    1.000000
   219  Na    c     2.226987   -4.446414    6.267085    0.000000    1.000000
   220  Na    c     2.226987   -4.446414   -6.267085    0.000000    1.000000
   221  Na    c     2.226987    6.967431    8.864141    0.000000    1.000000
   222  Na    c     2.226987    6.967431   -8.864141    0.000000    1.000000
   223  Na    c     2.226987   -2.513457    8.864141    0.000000    1.000000
   224  Na    c     2.226987   -2.513457   -8.864141    0.000000    1.000000
   225  Na    c     6.967431    2.226987    8.864141    0.000000    1.000000
   226  Na    c     6.967431    2.226987   -8.864141    0.000000    1.000000
   227  Na    c    -2.513457    2.226987    8.864141    0.000000    1.000000
   228  Na    c    -2.513457    2.226987   -8.864141    0.000000    1.000000
   229  Na    c     2.226987   11.542496    4.434598    0.000000    1.000000
   230  Na    c     2.226987   11.542496   -4.434598    0.000000    1.000000
   231  Na    c     2.226987   -7.088522    4.434598    0.000000    1.000000
   232  Na    c     2.226987   -7.088522   -4.434598    0.000000    1.000000
   233  Na    c    11.542496    2.226987    4.434598    0.000000    1.000000
   234  Na    c    11.542496    2.226987   -4.434598    0.000000    1.000000
   235  Na    c    -7.088522    2.226987    4.434598    0.000000    1.000000
   236  Na    c    -7.088522    2.226987   -4.434598    0.000000    1.000000
   237  Na    c     6.692705   11.151215    0.000000    0.000000    1.000000
   238  Na    c     6.692705   -6.697241    0.000000    0.000000    1.000000
   239  Na    c    11.151215    6.692705    0.000000    0.000000    1.000000
   240  Na    c    11.151215   -2.238732    0.000000    0.000000    1.000000
   241  Na    c    -2.238732   11.151215    0.000000    0.000000    1.000000
   242  Na    c    -2.238732   -6.697241    0.000000    0.000000    1.000000
   243  Na    c    -6.697241    6.692705    0.000000    0.000000    1.000000
   244  Na    c    -6.697241   -2.238732    0.000000    0.000000    1.000000
   245  O     c     6.682590   11.138169   -2.225815    0.000000    1.443000
   246  O     c     6.682590   11.138169    2.225815    0.000000    1.443000
   247  O     c     6.682590   -6.684195   -2.225815    0.000000    1.443000
   248  O     c     6.682590   -6.684195    2.225815    0.000000    1.443000
   249  O     c    11.138169    6.682590   -2.225815    0.000000    1.443000
   250  O     c    11.138169    6.682590    2.225815    0.000000    1.443000
   251  O     c    11.138169   -2.228616   -2.225815    0.000000    1.443000
   252  O     c    11.138169   -2.228616    2.225815    0.000000    1.443000
   253  O     c    -2.228616   11.138169   -2.225815    0.000000    1.443000
   254  O     c    -2.228616   11.138169    2.225815    0.000000    1.443000
   255  O     c    -2.228616   -6.684195   -2.225815    0.000000    1.443000
   256  O     c    -2.228616   -6.684195    2.225815    0.000000    1.443000
   257  O     c    -6.684195    6.682590   -2.225815    0.000000    1.443000
   258  O     c    -6.684195    6.682590    2.225815    0.000000    1.443000
   259  O     c    -6.684195   -2.228616   -2.225815    0.000000    1.443000
   260  O     c    -6.684195   -2.228616    2.225815    0.000000    1.443000
   261  Cl    c     8.929178    8.929178    4.465522    0.000000    0.996000
   262  Cl    c     8.929178    8.929178   -4.465522    0.000000    0.996000
   263  Cl    c     8.929178   -4.475204    4.465522    0.000000    0.996000
   264  Cl    c     8.929178   -4.475204   -4.465522    0.000000    0.996000
   265  Cl    c    -4.475204    8.929178    4.465522    0.000000    0.996000
   266  Cl    c    -4.475204    8.929178   -4.465522    0.000000    0.996000
   267  Cl    c    -4.475204   -4.475204    4.465522    0.000000    0.996000
   268  Cl    c    -4.475204   -4.475204   -4.465522    0.000000    0.996000
   269  Na    c     8.910121    6.697680    6.665223    0.000000    1.000000
   270  Na    c     8.910121    6.697680   -6.665223    0.000000    1.000000
   271  Na    c     8.910121   -2.243706    6.665223    0.000000    1.000000
   272  Na    c     8.910121   -2.243706   -6.665223    0.000000    1.000000
   273  Na    c    -4.456147    6.697680    6.665223    0.000000    1.000000
   274  Na    c    -4.456147    6.697680   -6.665223    0.000000    1.000000
   275  Na    c    -4.456147   -2.243706    6.665223    0.000000    1.000000
   276  Na    c    -4.456147   -2.243706   -6.665223    0.000000    1.000000
   277  Na    c     6.697680    8.910121    6.665223    0.000000    1.000000
   278  Na    c     6.697680    8.910121   -6.665223    0.000000    1.000000
   279  Na    c     6.697680   -4.456147    6.665223    0.000000    1.000000
   280  Na    c     6.697680   -4.456147   -6.665223    0.000000    1.000000
   281  Na    c    -2.243706    8.910121    6.665223    0.000000    1.000000
   282  Na    c    -2.243706    8.910121   -6.665223    0.000000    1.000000
   283  Na    c    -2.243706   -4.456147    6.665223    0.000000    1.000000
   284  Na    c    -2.243706   -4.456147   -6.665223    0.000000    1.000000
   285  Na    c    -2.254421   -2.254421    8.903133    0.000000    1.000000
   286  Na    c    -2.254421   -2.254421   -8.903133    0.000000    1.000000
   287  Na    c     6.708395   -2.254421    8.903133    0.000000    1.000000
   288  Na    c     6.708395   -2.254421   -8.903133    0.000000    1.000000
   289  Na    c    -2.254421    6.708395    8.903133    0.000000    1.000000
   290  Na    c    -2.254421    6.708395   -8.903133    0.000000    1.000000
   291  Na    c     6.708395    6.708395    8.903133    0.000000    1.000000
   292  Na    c     6.708395    6.708395   -8.903133    0.000000    1.000000
   293  Na    c     6.688416   11.129942    4.452451    0.000000    1.000000
   294  Na    c     6.688416   11.129942   -4.452451    0.000000    1.000000
   295  Na    c     6.688416   -6.675969    4.452451    0.000000    1.000000
   296  Na    c     6.688416   -6.675969   -4.452451    0.000000    1.000000
   297  Na    c    11.129942    6.688416    4.452451    0.000000    1.000000
   298  Na    c    11.129942    6.688416   -4.452451    0.000000    1.000000
   299  Na    c    11.129942   -2.234442    4.452451    0.000000    1.000000
   300  Na    c    11.129942   -2.234442   -4.452451    0.000000    1.000000
   301  Na    c    -2.234442   11.129942    4.452451    0.000000    1.000000
   302  Na    c    -2.234442   11.129942   -4.452451    0.000000    1.000000
   303  Na    c    -2.234442   -6.675969    4.452451    0.000000    1.000000
   304  Na    c    -2.234442   -6.675969   -4.452451    0.000000    1.000000
   305  Na    c    -6.675969    6.688416    4.452451    0.000000    1.000000
   306  Na    c    -6.675969    6.688416   -4.452451    0.000000    1.000000
   307  Na    c    -6.675969   -2.234442    4.452451    0.000000    1.000000
   308  Na    c    -6.675969   -2.234442   -4.452451    0.000000    1.000000
   309  O     c     2.226987    2.226987   11.130267    0.000000    1.443000
   310  O     c     2.226987    2.226987  -11.130267    0.000000    1.443000
   311  O     c     2.226987   11.118621    6.651536    0.000000    1.443000
   312  O     c     2.226987   11.118621   -6.651536    0.000000    1.443000
   313  O     c     2.226987   -6.664647    6.651536    0.000000    1.443000
   314  O     c     2.226987   -6.664647   -6.651536    0.000000    1.443000
   315  O     c    11.118621    2.226987    6.651536    0.000000    1.443000
   316  O     c    11.118621    2.226987   -6.651536    0.000000    1.443000
   317  O     c    -6.664647    2.226987    6.651536    0.000000    1.443000
   318  O     c    -6.664647    2.226987   -6.651536    0.000000    1.443000
   319  Cl    c     4.478273    8.921251    8.931623    0.000000    0.996000
   320  Cl    c     4.478273    8.921251   -8.931623    0.000000    0.996000
   321  Cl    c     4.478273   -4.467277    8.931623    0.000000    0.996000
   322  Cl    c     4.478273   -4.467277   -8.931623    0.000000    0.996000
   323  Cl    c     8.921251    4.478273    8.931623    0.000000    0.996000
   324  Cl    c     8.921251    4.478273   -8.931623    0.000000    0.996000
   325  Cl    c     8.921251   -0.024299    8.931623    0.000000    0.996000
   326  Cl    c     8.921251   -0.024299   -8.931623    0.000000    0.996000
   327  Cl    c    -0.024299    8.921251    8.931623    0.000000    0.996000
   328  Cl    c    -0.024299    8.921251   -8.931623    0.000000    0.996000
   329  Cl    c    -0.024299   -4.467277    8.931623    0.000000    0.996000
   330  Cl    c    -0.024299   -4.467277   -8.931623    0.000000    0.996000
   331  Cl    c    -4.467277    4.478273    8.931623    0.000000    0.996000
   332  Cl    c    -4.467277    4.478273   -8.931623    0.000000    0.996000
   333  Cl    c    -4.467277   -0.024299    8.931623    0.000000    0.996000
   334  Cl    c    -4.467277   -0.024299   -8.931623    0.000000    0.996000
   335  Cl    c     4.480285   13.374433    0.000000    0.000000    0.996000
   336  Cl    c     4.480285   -8.920459    0.000000    0.000000    0.996000
   337  Cl    c    13.374433    4.480285    0.000000    0.000000    0.996000
   338  Cl    c    13.374433   -0.026312    0.000000    0.000000    0.996000
   339  Cl    c    -0.026312   13.374433    0.000000    0.000000    0.996000
   340  Cl    c    -0.026312   -8.920459    0.000000    0.000000    0.996000
   341  Cl    c    -8.920459    4.480285    0.000000    0.000000    0.996000
   342  Cl    c    -8.920459   -0.026312    0.000000    0.000000    0.996000
   343  Na    c     4.462686    2.226987   10.978100    0.000000    1.000000
   344  Na    c     4.462686    2.226987  -10.978100    0.000000    1.000000
   345  Na    c    -0.008713    2.226987   10.978100    0.000000    1.000000
   346  Na    c    -0.008713    2.226987  -10.978100    0.000000    1.000000
   347  Na    c     2.226987    4.462686   10.978100    0.000000    1.000000
   348  Na    c     2.226987    4.462686  -10.978100    0.000000    1.000000
   349  Na    c     2.226987   -0.008713   10.978100    0.000000    1.000000
   350  Na    c     2.226987   -0.008713  -10.978100    0.000000    1.000000
   351  Na    c     4.451263   11.108957    6.654473    0.000000    1.000000
   352  Na    c     4.451263   11.108957   -6.654473    0.000000    1.000000
   353  Na    c     4.451263   -6.654983    6.654473    0.000000    1.000000
   354  Na    c     4.451263   -6.654983   -6.654473    0.000000    1.000000
   355  Na    c     0.002711   11.108957    6.654473    0.000000    1.000000
   356  Na    c     0.002711   11.108957   -6.654473    0.000000    1.000000
   357  Na    c     0.002711   -6.654983    6.654473    0.000000    1.000000
   358  Na    c     0.002711   -6.654983   -6.654473    0.000000    1.000000
   359  Na    c    11.108957    4.451263    6.654473    0.000000    1.000000
   360  Na    c    11.108957    4.451263   -6.654473    0.000000    1.000000
   361  Na    c    11.108957    0.002711    6.654473    0.000000    1.000000
   362  Na    c    11.108957    0.002711   -6.654473    0.000000    1.000000
   363  Na    c    -6.654983    4.451263    6.654473    0.000000    1.000000
   364  Na    c    -6.654983    4.451263   -6.654473    0.000000    1.000000
   365  Na    c    -6.654983    0.002711    6.654473    0.000000    1.000000
   366  Na    c    -6.654983    0.002711   -6.654473    0.000000    1.000000
   367  Na    c     8.909148   11.129228   -2.224957    0.000000    1.000000
   368  Na    c     8.909148   11.129228    2.224957    0.000000    1.000000
   369  Na    c     8.909148   -6.675255   -2.224957    0.000000    1.000000
   370  Na    c     8.909148   -6.675255    2.224957    0.000000    1.000000
   371  Na    c    -4.455175   11.129228   -2.224957    0.000000    1.000000
   372  Na    c    -4.455175   11.129228    2.224957    0.000000    1.000000
   373  Na    c    -4.455175   -6.675255   -2.224957    0.000000    1.000000
   374  Na    c    -4.455175   -6.675255    2.224957    0.000000    1.000000
   375  Na    c    11.129228    8.909148   -2.224957    0.000000    1.000000
   376  Na    c    11.129228    8.909148    2.224957    0.000000    1.000000
   377  Na    c    11.129228   -4.455175   -2.224957    0.000000    1.000000
   378  Na    c    11.129228   -4.455175    2.224957    0.000000    1.000000
   379  Na    c    -6.675255    8.909148   -2.224957    0.000000    1.000000
   380  Na    c    -6.675255    8.909148    2.224957    0.000000    1.000000
   381  Na    c    -6.675255   -4.455175   -2.224957    0.000000    1.000000
   382  Na    c    -6.675255   -4.455175    2.224957    0.000000    1.000000
   383  Na    c    13.330685    2.226987   -1.887379    0.000000    1.000000
   384  Na    c    13.330685    2.226987    1.887379    0.000000    1.000000
   385  Na    c    -8.876711    2.226987   -1.887379    0.000000    1.000000
   386  Na    c    -8.876711    2.226987    1.887379    0.000000    1.000000
   387  Na    c     2.226987   13.330685   -1.887379    0.000000    1.000000
   388  Na    c     2.226987   13.330685    1.887379    0.000000    1.000000
   389  Na    c     2.226987   -8.876711   -1.887379    0.000000    1.000000
   390  Na    c     2.226987   -8.876711    1.887379    0.000000    1.000000
   391  O     c     2.226987   -2.233734   11.106522    0.000000    1.443000
   392  O     c     2.226987   -2.233734  -11.106522    0.000000    1.443000
   393  O     c    -2.233734    2.226987   11.106522    0.000000    1.443000
   394  O     c    -2.233734    2.226987  -11.106522    0.000000    1.443000
   395  O     c     2.226987    6.687708   11.106522    0.000000    1.443000
   396  O     c     2.226987    6.687708  -11.106522    0.000000    1.443000
   397  O     c     6.687708    2.226987   11.106522    0.000000    1.443000
   398  O     c     6.687708    2.226987  -11.106522    0.000000    1.443000
   399  O     c     6.680588   11.137457    6.683097    0.000000    1.443000
   400  O     c     6.680588   11.137457   -6.683097    0.000000    1.443000
   401  O     c     6.680588   -6.683483    6.683097    0.000000    1.443000
   402  O     c     6.680588   -6.683483   -6.683097    0.000000    1.443000
   403  O     c    11.137457    6.680588    6.683097    0.000000    1.443000
   404  O     c    11.137457    6.680588   -6.683097    0.000000    1.443000
   405  O     c    11.137457   -2.226614    6.683097    0.000000    1.443000
   406  O     c    11.137457   -2.226614   -6.683097    0.000000    1.443000
   407  O     c    -2.226614   11.137457    6.683097    0.000000    1.443000
   408  O     c    -2.226614   11.137457   -6.683097    0.000000    1.443000
   409  O     c    -2.226614   -6.683483    6.683097    0.000000    1.443000
   410  O     c    -2.226614   -6.683483   -6.683097    0.000000    1.443000
   411  O     c    -6.683483    6.680588    6.683097    0.000000    1.443000
   412  O     c    -6.683483    6.680588   -6.683097    0.000000    1.443000
   413  O     c    -6.683483   -2.226614    6.683097    0.000000    1.443000
   414  O     c    -6.683483   -2.226614   -6.683097    0.000000    1.443000
   415  Cl    c     4.489212   13.383900    4.449691    0.000000    0.996000
   416  Cl    c     4.489212   13.383900   -4.449691    0.000000    0.996000
   417  Cl    c     4.489212   -8.929926    4.449691    0.000000    0.996000
   418  Cl    c     4.489212   -8.929926   -4.449691    0.000000    0.996000
   419  Cl    c    13.383900    4.489212    4.449691    0.000000    0.996000
   420  Cl    c    13.383900    4.489212   -4.449691    0.000000    0.996000
   421  Cl    c    13.383900   -0.035239    4.449691    0.000000    0.996000
   422  Cl    c    13.383900   -0.035239   -4.449691    0.000000    0.996000
   423  Cl    c    -0.035239   13.383900    4.449691    0.000000    0.996000
   424  Cl    c    -0.035239   13.383900   -4.449691    0.000000    0.996000
   425  Cl    c    -0.035239   -8.929926    4.449691    0.000000    0.996000
   426  Cl    c    -0.035239   -8.929926   -4.449691    0.000000    0.996000
   427  Cl    c    -8.929926    4.489212    4.449691    0.000000    0.996000
   428  Cl    c    -8.929926    4.489212   -4.449691    0.000000    0.996000
   429  Cl    c    -8.929926   -0.035239    4.449691    0.000000    0.996000
   430  Cl    c    -8.929926   -0.035239   -4.449691    0.000000    0.996000
   431  Na    c     4.450219   -2.240032   11.099468    0.000000    1.000000
   432  Na    c     4.450219   -2.240032  -11.099468    0.000000    1.000000
   433  Na    c     0.003755   -2.240032   11.099468    0.000000    1.000000
   434  Na    c     0.003755   -2.240032  -11.099468    0.000000    1.000000
   435  Na    c    -2.240032    4.450219   11.099468    0.000000    1.000000
   436  Na    c    -2.240032    4.450219  -11.099468    0.000000    1.000000
   437  Na    c    -2.240032    0.003755   11.099468    0.000000    1.000000
   438  Na    c    -2.240032    0.003755  -11.099468    0.000000    1.000000
   439  Na    c     4.450219    6.694006   11.099468    0.000000    1.000000
   440  Na    c     4.450219    6.694006  -11.099468    0.000000    1.000000
   441  Na    c     0.003755    6.694006   11.099468    0.000000    1.000000
   442  Na    c     0.003755    6.694006  -11.099468    0.000000    1.000000
   443  Na    c     6.694006    4.450219   11.099468    0.000000    1.000000
   444  Na    c     6.694006    4.450219  -11.099468    0.000000    1.000000
   445  Na    c     6.694006    0.003755   11.099468    0.000000    1.000000
   446  Na    c     6.694006    0.003755  -11.099468    0.000000    1.000000
   447  Na    c    13.361804   -2.232009   -2.244518    0.000000    1.000000
   448  Na    c    13.361804   -2.232009    2.244518    0.000000    1.000000
   449  Na    c    -8.907831   -2.232009   -2.244518    0.000000    1.000000
   450  Na    c    -8.907831   -2.232009    2.244518    0.000000    1.000000
   451  Na    c    -2.232009   13.361804   -2.244518    0.000000    1.000000
   452  Na    c    -2.232009   13.361804    2.244518    0.000000    1.000000
   453  Na    c    -2.232009   -8.907831   -2.244518    0.000000    1.000000
   454  Na    c    -2.232009   -8.907831    2.244518    0.000000    1.000000
   455  Na    c    13.361804    6.685982   -2.244518    0.000000    1.000000
   456  Na    c    13.361804    6.685982    2.244518    0.000000    1.000000
   457  Na    c    -8.907831    6.685982   -2.244518    0.000000    1.000000
   458  Na    c    -8.907831    6.685982    2.244518    0.000000    1.000000
   459  Na    c     6.685982   13.361804   -2.244518    0.000000    1.000000
   460  Na    c     6.685982   13.361804    2.244518    0.000000    1.000000
   461  Na    c     6.685982   -8.907831   -2.244518    0.000000    1.000000
   462  Na    c     6.685982   -8.907831    2.244518    0.000000    1.000000
   463  Na    c     2.226987   10.849775    8.887647    0.000000    1.000000
   464  Na    c     2.226987   10.849775   -8.887647    0.000000    1.000000
   465  Na    c     2.226987   -6.395802    8.887647    0.000000    1.000000
   466  Na    c     2.226987   -6.395802   -8.887647    0.000000    1.000000
   467  Na    c    10.849775    2.226987    8.887647    0.000000    1.000000
   468  Na    c    10.849775    2.226987   -8.887647    0.000000    1.000000
   469  Na    c    -6.395802    2.226987    8.887647    0.000000    1.000000
   470  Na    c    -6.395802    2.226987   -8.887647    0.000000    1.000000
   471  Na    c    11.129955   11.129955    0.000000    0.000000    1.000000
   472  Na    c    11.129955   -6.675981    0.000000    0.000000    1.000000
   473  Na    c    -6.675981   11.129955    0.000000    0.000000    1.000000
   474  Na    c    -6.675981   -6.675981    0.000000    0.000000    1.000000
   475  O     c     6.677195    6.677195   11.131469    0.000000    1.443000
   476  O     c     6.677195    6.677195  -11.131469    0.000000    1.443000
   477  O     c     6.677195   -2.223221   11.131469    0.000000    1.443000
   478  O     c     6.677195   -2.223221  -11.131469    0.000000    1.443000
   479  O     c    -2.223221    6.677195   11.131469    0.000000    1.443000
   480  O     c    -2.223221    6.677195  -11.131469    0.000000    1.443000
   481  O     c    -2.223221   -2.223221   11.131469    0.000000    1.443000
   482  O     c    -2.223221   -2.223221  -11.131469    0.000000    1.443000
   483  O     c    11.136219   11.136219   -2.227454    0.000000    1.443000
   484  O     c    11.136219   11.136219    2.227454    0.000000    1.443000
   485  O     c    11.136219   -6.682245   -2.227454    0.000000    1.443000
   486  O     c    11.136219   -6.682245    2.227454    0.000000    1.443000
   487  O     c    -6.682245   11.136219   -2.227454    0.000000    1.443000
   488  O     c    -6.682245   11.136219    2.227454    0.000000    1.443000
   489  O     c    -6.682245   -6.682245   -2.227454    0.000000    1.443000
   490  O     c    -6.682245   -6.682245    2.227454    0.000000    1.443000
   491  Cl    c     8.915708    8.915708    8.919614    0.000000    0.996000
   492  Cl    c     8.915708    8.915708   -8.919614    0.000000    0.996000
   493  Cl    c     8.915708   -4.461734    8.919614    0.000000    0.996000
   494  Cl    c     8.915708   -4.461734   -8.919614    0.000000    0.996000
   495  Cl    c    -4.461734    8.915708    8.919614    0.000000    0.996000
   496  Cl    c    -4.461734    8.915708   -8.919614    0.000000    0.996000
   497  Cl    c    -4.461734   -4.461734    8.919614    0.000000    0.996000
   498  Cl    c    -4.461734   -4.461734   -8.919614    0.000000    0.996000
   499  Cl    c     8.914446   13.370709    0.000000    0.000000    0.996000
   500  Cl    c     8.914446   -8.916736    0.000000    0.000000    0.996000
   501  Cl    c    13.370709    8.914446    0.000000    0.000000    0.996000
   502  Cl    c    13.370709   -4.460472    0.000000    0.000000    0.996000
   503  Cl    c    -4.460472   13.370709    0.000000    0.000000    0.996000
   504  Cl    c    -4.460472   -8.916736    0.000000    0.000000    0.996000
   505  Cl    c    -8.916736    8.914446    0.000000    0.000000    0.996000
   506  Cl    c    -8.916736   -4.460472    0.000000    0.000000    0.996000
   507  Na    c     8.902492    2.226987   11.338719    0.000000    1.000000
   508  Na    c     8.902492    2.226987  -11.338719    0.000000    1.000000
   509  Na    c    -4.448518    2.226987   11.338719    0.000000    1.000000
   510  Na    c    -4.448518    2.226987  -11.338719    0.000000    1.000000
[...]
     36 y         11.134934     11.129942    -0.004992    Cartesian   -0.04
     36 z          4.453974      4.452451    -0.001522    Cartesian   -0.03
     37 x          2.226987      2.226987     0.000000    Cartesian    0.00
     37 y          2.226987      2.226987     0.000000    Cartesian    0.00
     37 z         11.134934     11.130267    -0.004668    Cartesian   -0.04
     38 x          2.226987      2.226987     0.000000    Cartesian    0.00
     38 y         11.134934     11.118621    -0.016314    Cartesian   -0.15
     38 z          6.680961      6.651536    -0.029424    Cartesian   -0.44
     39 x          4.453974      4.478273     0.024299    Cartesian    0.55
     39 y          8.907948      8.921251     0.013304    Cartesian    0.15
     39 z          8.907948      8.931623     0.023676    Cartesian    0.27
     40 x          4.453974      4.480285     0.026312    Cartesian    0.59
     40 y         13.361921     13.374433     0.012512    Cartesian    0.09
     40 z          0.000000      0.000000     0.000000    Cartesian    0.00
     41 x          4.453974      4.462686     0.008713    Cartesian    0.20
     41 y          2.226987      2.226987     0.000000    Cartesian    0.00
     41 z         11.134934     10.978100    -0.156834    Cartesian   -1.41
     42 x          4.453974      4.451263    -0.002711    Cartesian   -0.06
     42 y         11.134934     11.108957    -0.025977    Cartesian   -0.23
     42 z          6.680961      6.654473    -0.026488    Cartesian   -0.40
     43 x          8.907948      8.909148     0.001201    Cartesian    0.01
     43 y         11.134934     11.129228    -0.005706    Cartesian   -0.05
     43 z         -2.226987     -2.224957     0.002030    Cartesian   -0.09
     44 x         13.361921     13.330685    -0.031237    Cartesian   -0.23
     44 y          2.226987      2.226987     0.000000    Cartesian    0.00
     44 z         -2.226987     -1.887379     0.339608    Cartesian  -15.25
     45 x          2.226987      2.226987     0.000000    Cartesian    0.00
     45 y         -2.226987     -2.233734    -0.006747    Cartesian    0.30
     45 z         11.134934     11.106522    -0.028412    Cartesian   -0.26
     46 x          6.680961      6.680588    -0.000373    Cartesian   -0.01
     46 y         11.134934     11.137457     0.002523    Cartesian    0.02
     46 z          6.680961      6.683097     0.002136    Cartesian    0.03
     47 x          4.453974      4.489212     0.035239    Cartesian    0.79
     47 y         13.361921     13.383900     0.021979    Cartesian    0.16
     47 z          4.453974      4.449691    -0.004283    Cartesian   -0.10
     48 x          4.453974      4.450219    -0.003755    Cartesian   -0.08
     48 y         -2.226987     -2.240032    -0.013046    Cartesian    0.59
     48 z         11.134934     11.099468    -0.035467    Cartesian   -0.32
     49 x         13.361921     13.361804    -0.000117    Cartesian   -0.00
     49 y         -2.226987     -2.232009    -0.005022    Cartesian    0.23
     49 z         -2.226987     -2.244518    -0.017531    Cartesian    0.79
     50 x          2.226987      2.226987     0.000000    Cartesian    0.00
     50 y         11.134934     10.849775    -0.285159    Cartesian   -2.56
     50 z          8.907948      8.887647    -0.020301    Cartesian   -0.23
     51 x         11.134934     11.129955    -0.004979    Cartesian   -0.04
     51 y         11.134934     11.129955    -0.004979    Cartesian   -0.04
     51 z          0.000000      0.000000     0.000000    Cartesian    0.00
     52 x          6.680961      6.677195    -0.003766    Cartesian   -0.06
     52 y          6.680961      6.677195    -0.003766    Cartesian   -0.06
     52 z         11.134934     11.131469    -0.003465    Cartesian   -0.03
     53 x         11.134934     11.136219     0.001284    Cartesian    0.01
     53 y         11.134934     11.136219     0.001284    Cartesian    0.01
     53 z         -2.226987     -2.227454    -0.000467    Cartesian    0.02
     54 x          8.907948      8.915708     0.007760    Cartesian    0.09
     54 y          8.907948      8.915708     0.007760    Cartesian    0.09
     54 z          8.907948      8.919614     0.011666    Cartesian    0.13
     55 x          8.907948      8.914446     0.006498    Cartesian    0.07
     55 y         13.361921     13.370709     0.008788    Cartesian    0.07
     55 z          0.000000      0.000000     0.000000    Cartesian    0.00
     56 x          8.907948      8.902492    -0.005455    Cartesian   -0.06
     56 y          2.226987      2.226987     0.000000    Cartesian    0.00
     56 z         11.134934     11.338719     0.203784    Cartesian    1.83
     57 x          8.907948      8.909170     0.001222    Cartesian    0.01
     57 y         11.134934     11.141395     0.006461    Cartesian    0.06
     57 z          6.680961      6.674716    -0.006245    Cartesian   -0.09
     58 x         13.361921     13.339630    -0.022291    Cartesian   -0.17
     58 y          2.226987      2.226987     0.000000    Cartesian    0.00
     58 z          6.680961      6.952975     0.272014    Cartesian    4.07
     59 x          6.680961      6.691661     0.010701    Cartesian    0.16
     59 y         11.134934     11.119650    -0.015284    Cartesian   -0.14
     59 z          8.907948      8.907880    -0.000068    Cartesian   -0.00
     60 x         11.134934     11.132630    -0.002304    Cartesian   -0.02
     60 y         11.134934     11.132630    -0.002304    Cartesian   -0.02
     60 z          4.453974      4.453920    -0.000054    Cartesian   -0.00
     61 x          2.226987      2.226987     0.000000    Cartesian    0.00
     61 y          2.226987      2.226987     0.000000    Cartesian    0.00
     61 z         13.361921     13.343007    -0.018915    Cartesian   -0.14
     62 x          2.226987      2.226987     0.000000    Cartesian    0.00
     62 y         15.588908     15.762486     0.173578    Cartesian    1.11
     62 z          0.000000      0.000000     0.000000    Cartesian    0.00
     63 x          2.226987      2.226987     0.000000    Cartesian    0.00
     63 y         15.588908     15.564832    -0.024076    Cartesian   -0.15
     63 z         -2.226987     -2.217049     0.009938    Cartesian   -0.45
     64 x          8.907948      8.915929     0.007981    Cartesian    0.09
     64 y         13.361921     13.369367     0.007446    Cartesian    0.06
     64 z          4.453974      4.456637     0.002663    Cartesian    0.06
     65 x          8.907948      8.906318    -0.001629    Cartesian   -0.02
     65 y          6.680961      6.680986     0.000025    Cartesian    0.00
     65 z         11.134934     11.151576     0.016641    Cartesian    0.15
     66 x         13.361921     13.361403    -0.000518    Cartesian   -0.00
     66 y         -2.226987     -2.213551     0.013436    Cartesian   -0.60
     66 z          6.680961      6.686104     0.005143    Cartesian    0.08
     67 x          4.453974      4.460290     0.006316    Cartesian    0.14
     67 y          4.453974      4.460290     0.006316    Cartesian    0.14
     67 z         13.361921     13.390439     0.028518    Cartesian    0.21
     68 x          4.453974      4.451277    -0.002696    Cartesian   -0.06
     68 y         15.588908     15.566431    -0.022477    Cartesian   -0.14
     68 z         -2.226987     -2.233552    -0.006565    Cartesian    0.29
     69 x          2.226987      2.226987     0.000000    Cartesian    0.00
     69 y         15.588908     15.434314    -0.154594    Cartesian   -0.99
     69 z          4.453974      4.448750    -0.005224    Cartesian   -0.12
     70 x          2.226987      2.226987     0.000000    Cartesian    0.00
     70 y         -2.226987     -2.116659     0.110328    Cartesian   -4.95
     70 z         13.361921     13.349334    -0.012587    Cartesian   -0.09
     71 x         15.588908     15.574815    -0.014094    Cartesian   -0.09
     71 y         -2.226987     -2.222752     0.004235    Cartesian   -0.19
     71 z          0.000000      0.000000     0.000000    Cartesian    0.00
     72 x          2.226987      2.226987     0.000000    Cartesian    0.00
     72 y         11.134934     11.127277    -0.007657    Cartesian   -0.07
     72 z         11.134934     11.122354    -0.012581    Cartesian   -0.11
     73 x         11.134934     11.137855     0.002921    Cartesian    0.03
     73 y         11.134934     11.137855     0.002921    Cartesian    0.03
     73 z          6.680961      6.683574     0.002613    Cartesian    0.04
     74 x         15.588908     15.591478     0.002570    Cartesian    0.02
     74 y         -2.226987     -2.227855    -0.000868    Cartesian    0.04
     74 z         -2.226987     -2.226878     0.000109    Cartesian   -0.00
     75 x         13.361921     13.360048    -0.001873    Cartesian   -0.01
     75 y         11.134934     11.128019    -0.006916    Cartesian   -0.06
     75 z         -2.226987     -2.224804     0.002183    Cartesian   -0.10
     76 x          4.453974      4.463649     0.009676    Cartesian    0.22
     76 y         13.361921     13.382370     0.020448    Cartesian    0.15
     76 z          8.907948      8.922814     0.014867    Cartesian    0.17
     77 x          4.453974      4.451449    -0.002525    Cartesian   -0.06
     77 y         11.134934     11.125075    -0.009859    Cartesian   -0.09
     77 z         11.134934     11.111403    -0.023531    Cartesian   -0.21
     78 x         15.588908     15.583188    -0.005720    Cartesian   -0.04
     78 y         -2.226987     -2.223784     0.003202    Cartesian   -0.14
     78 z          4.453974      4.453954    -0.000019    Cartesian   -0.00
     79 x          6.680961      6.651701    -0.029259    Cartesian   -0.44
     79 y          6.680961      6.651701    -0.029259    Cartesian   -0.44
     79 z         13.361921     13.358897    -0.003024    Cartesian   -0.02
     80 x          6.680961      6.681623     0.000662    Cartesian    0.01
     80 y         11.134934     11.136938     0.002004    Cartesian    0.02
     80 z         11.134934     11.137625     0.002690    Cartesian    0.02
     81 x          2.226987      2.226987     0.000000    Cartesian    0.00
     81 y         15.588908     15.569755    -0.019154    Cartesian   -0.12
     81 z          6.680961      6.679113    -0.001847    Cartesian   -0.03
     82 x          2.226987      2.226987     0.000000    Cartesian    0.00
     82 y          2.226987      2.226987     0.000000    Cartesian    0.00
     82 z         -2.226987     -2.248197    -0.021211    Cartesian    0.95
     83 x          4.453974      4.562390     0.108416    Cartesian    2.43
     83 y          4.453974      4.562390     0.108416    Cartesian    2.43
     83 z          0.000000      0.000000     0.000000    Cartesian    0.00
     84 x          2.226987      2.226987     0.000000    Cartesian    0.00
     84 y         -2.226987     -2.208878     0.018109    Cartesian   -0.81
     84 z         -2.226987     -2.217693     0.009294    Cartesian   -0.42
     85 x          4.453974      4.566799     0.112825    Cartesian    2.53
     85 y          4.453974      4.566799     0.112825    Cartesian    2.53
     85 z          4.453974      4.539742     0.085768    Cartesian    1.93
     86 x         -2.226987     -2.237463    -0.010476    Cartesian    0.47
     86 y         -2.226987     -2.237463    -0.010476    Cartesian    0.47
     86 z         -2.226987     -2.226153     0.000834    Cartesian   -0.04
     87 x          2.226987      2.226987     0.000000    Cartesian    0.00
     87 y          2.226987      2.226987     0.000000    Cartesian    0.00
     87 z          6.680961      6.729419     0.048459    Cartesian    0.73
     88 x          4.453974      4.490167     0.036193    Cartesian    0.81
     88 y          8.907948      8.929439     0.021491    Cartesian    0.24
     88 z          0.000000      0.000000     0.000000    Cartesian    0.00
     89 x          2.226987      2.226987     0.000000    Cartesian    0.00
     89 y         -2.226987     -2.228722    -0.001736    Cartesian    0.08
     89 z          6.680961      6.636457    -0.044503    Cartesian   -0.67
     90 x          4.453974      4.503872     0.049898    Cartesian    1.12
     90 y          8.907948      8.938911     0.030963    Cartesian    0.35
     90 z          4.453974      4.458000     0.004026    Cartesian    0.09
     91 x          2.226987      2.226987     0.000000    Cartesian    0.00
     91 y         11.134934     11.111772    -0.023163    Cartesian   -0.21
     91 z         -2.226987     -2.231250    -0.004263    Cartesian    0.19
     92 x         -2.226987     -2.240913    -0.013926    Cartesian    0.63
     92 y         -2.226987     -2.240913    -0.013926    Cartesian    0.63
     92 z          6.680961      6.687400     0.006440    Cartesian    0.10
     93 x          4.453974      4.422211    -0.031763    Cartesian   -0.71
     93 y          4.453974      4.422211    -0.031763    Cartesian   -0.71
     93 z          8.907948      8.924718     0.016770    Cartesian    0.19
     94 x          8.907948      8.932002     0.024055    Cartesian    0.27
     94 y          8.907948      8.932002     0.024055    Cartesian    0.27
     94 z          0.000000      0.000000     0.000000    Cartesian    0.00
     95 x          6.680961      6.686545     0.005584    Cartesian    0.08
     95 y         11.134934     11.138603     0.003668    Cartesian    0.03
     95 z         -2.226987     -2.225829     0.001158    Cartesian   -0.05
     96 x          8.907948      8.933222     0.025275    Cartesian    0.28
     96 y          8.907948      8.933222     0.025275    Cartesian    0.28
     96 z          4.453974      4.469712     0.015738    Cartesian    0.35
     97 x          2.226987      2.226987     0.000000    Cartesian    0.00
     97 y          2.226987      2.226987     0.000000    Cartesian    0.00
     97 z         11.134934     11.096915    -0.038020    Cartesian   -0.34
     98 x          2.226987      2.226987     0.000000    Cartesian    0.00
     98 y         11.134934     11.130887    -0.004048    Cartesian   -0.04
     98 z          6.680961      6.650781    -0.030180    Cartesian   -0.45
     99 x          4.453974      4.469045     0.015072    Cartesian    0.34
     99 y          8.907948      8.925756     0.017809    Cartesian    0.20
     99 z          8.907948      8.941966     0.034019    Cartesian    0.38
    100 x          4.453974      4.464657     0.010684    Cartesian    0.24
    100 y         13.361921     13.381531     0.019609    Cartesian    0.15
    100 z          0.000000      0.000000     0.000000    Cartesian    0.00
    101 x          2.226987      2.226987     0.000000    Cartesian    0.00
    101 y         -2.226987     -2.244360    -0.017373    Cartesian    0.78
    101 z         11.134934     11.118730    -0.016205    Cartesian   -0.15
    102 x          6.680961      6.682577     0.001616    Cartesian    0.02
    102 y         11.134934     11.135650     0.000715    Cartesian    0.01
    102 z          6.680961      6.682151     0.001190    Cartesian    0.02
    103 x          4.453974      4.483771     0.029798    Cartesian    0.67
    103 y         13.361921     13.380986     0.019065    Cartesian    0.14
    103 z          4.453974      4.449259    -0.004715    Cartesian   -0.11
    104 x          6.680961      6.678107    -0.002854    Cartesian   -0.04
    104 y          6.680961      6.678107    -0.002854    Cartesian   -0.04
    104 z         11.134934     11.130317    -0.004617    Cartesian   -0.04
    105 x         11.134934     11.135950     0.001016    Cartesian    0.01
    105 y         11.134934     11.135950     0.001016    Cartesian    0.01
    105 z         -2.226987     -2.227190    -0.000203    Cartesian    0.01
    106 x          8.907948      8.915765     0.007818    Cartesian    0.09
    106 y          8.907948      8.915765     0.007818    Cartesian    0.09
    106 z          8.907948      8.921475     0.013527    Cartesian    0.15
    107 x          8.907948      8.915852     0.007904    Cartesian    0.09
    107 y         13.361921     13.371976     0.010054    Cartesian    0.08
    107 z          0.000000      0.000000     0.000000    Cartesian    0.00
    108 x          2.226987      2.226987     0.000000    Cartesian    0.00
    108 y         15.588908     15.573749    -0.015159    Cartesian   -0.10
    108 z         -2.226987     -2.196265     0.030722    Cartesian   -1.38
    109 x          8.907948      8.917268     0.009321    Cartesian    0.10
    109 y         13.361921     13.370570     0.008648    Cartesian    0.06
    109 z          4.453974      4.456424     0.002450    Cartesian    0.06
    110 x          4.453974      4.465071     0.011098    Cartesian    0.25
    110 y          4.453974      4.465071     0.011098    Cartesian    0.25
    110 z         13.361921     13.404504     0.042583    Cartesian    0.32
    111 x          2.226987      2.226987     0.000000    Cartesian    0.00
    111 y         11.134934     11.111309    -0.023625    Cartesian   -0.21
    111 z         11.134934     11.141557     0.006622    Cartesian    0.06
    112 x         11.134934     11.139392     0.004457    Cartesian    0.04
    112 y         11.134934     11.139392     0.004457    Cartesian    0.04
    112 z          6.680961      6.684360     0.003399    Cartesian    0.05
    113 x         15.588908     15.590317     0.001409    Cartesian    0.01
    113 y         -2.226987     -2.229464    -0.002478    Cartesian    0.11
    113 z         -2.226987     -2.228452    -0.001465    Cartesian    0.07
    114 x          4.453974      4.459617     0.005643    Cartesian    0.13
    114 y         13.361921     13.392796     0.030874    Cartesian    0.23
    114 z          8.907948      8.917811     0.009864    Cartesian    0.11
    115 x          6.680961      6.683928     0.002967    Cartesian    0.04
    115 y         11.134934     11.137220     0.002285    Cartesian    0.02
    115 z         11.134934     11.138884     0.003950    Cartesian    0.04
    116 x          2.226987      2.226987     0.000000    Cartesian    0.00
    116 y         15.588908     15.566141    -0.022767    Cartesian   -0.15
    116 z          6.680961      6.699132     0.018172    Cartesian    0.27
--------------------------------------------------------------------------------


  Time to end of optimisation  =       30.2467 seconds


  Peak dynamic memory used =     216.94 MB 


  Timing analysis for GULP :

--------------------------------------------------------------------------------
  Task / Subroutine                                          Time (Seconds)
--------------------------------------------------------------------------------
  Calculation of reciprocal space energy and derivatives          0.0005
  Calculation of reciprocal space energy using symmetry           0.0007
  Calculation of real space energy and derivatives                0.0030
  Calculation of real space energy using symmetry                 0.0073
  Calculation for region 1 energy and derivatives (2-b)          14.6530
  Calculation for region 2a energy                               14.6483
  Calculation for region 2b energy                                0.0002
  Calculation and manipulation of Hessian matrix                  0.6540
  Calculation of matrix inversion                                 0.0349
  Symmetry generation of equivalent positions                     0.0035
--------------------------------------------------------------------------------
  Total CPU time                                                 30.2467
--------------------------------------------------------------------------------


  Dump file written as Na3OCl.grs


  Job Finished at 12:23.10  5th March      2021                               

