********************************************************************************
*                       GENERAL UTILITY LATTICE PROGRAM                        *
*                                 Julian Gale                                  *
*                       Curtin Institute for Computation                       *
*                    School of Molecular and Life Sciences                     *
*                    Curtin University, Western Australia                      *
********************************************************************************
* Version = 5.2.0 * Last modified =  10th September 2020                       *
********************************************************************************
*  optimise     - perform optimisation run                                     *
*  conp         - constant pressure calculation                                *
*  property     - calculate properties for final geometry                      *
*  defect       - perform defect calculation after bulk run                    *
*  compare      - compare initial and final structures                         *
********************************************************************************

  Job Started  at 22:14.34 19th November   2020                               

  Number of CPUs =     1


  Total number of configurations input =      1

********************************************************************************
*  Input for Configuration =   1                                               *
********************************************************************************

  Formula = ClONa3                                                      

  Number of irreducible atoms/shells =       5


  Total number atoms/shells =       7

  Dimensionality = 3               :  Bulk   


  Symmetry :

  Crystal family                   :  Cubic       
  Crystal class  (Groth - 1921)    :  Cubic Hexakisoctahedral              

  Space group (centrosymmetric)    :  P M 3 M         

  Patterson group                  :  P m -3 m 

  Cartesian lattice vectors (Angstroms) :

        4.504000    0.000000    0.000000
        0.000000    4.504000    0.000000
        0.000000    0.000000    4.504000

  Cell parameters (Angstroms/Degrees):

  a =       4.5040    alpha =  90.0000
  b =       4.5040    beta  =  90.0000
  c =       4.5040    gamma =  90.0000

  Initial cell volume =          91.368216 Angs**3

  Temperature of configuration =   0.00     K 

  Pressure of configuration =         0.000 GPa 

  Fractional coordinates of asymmetric unit :

--------------------------------------------------------------------------------
   No.  Atomic       x           y          z         Charge      Occupancy
        Label      (Frac)      (Frac)     (Frac)        (e)         (Frac)  
--------------------------------------------------------------------------------
      1 Cl    c    0.000000    0.000000    0.000000     1.48500    1.000000    
      2 O     c    0.500000    0.500000    0.500000     0.18300    1.000000    
      3 Na    c    0.500000    0.500000    0.000000     1.00000    1.000000    
      4 Cl    s    0.000000    0.000000    0.000000    -2.48500    1.000000    
      5 O     s    0.500000    0.500000    0.500000    -2.18300    1.000000    
--------------------------------------------------------------------------------


  Constraints : 

--------------------------------------------------------------------------------
  Constraint no.      Unconstrained     Constrained    Coefficient    Offset
                         Variable         Variable
--------------------------------------------------------------------------------
           1              Strain 1        Strain 2       1.00000      0.0000
           2              Strain 1        Strain 3       1.00000      0.0000
--------------------------------------------------------------------------------


********************************************************************************
*  General input information                                                   *
********************************************************************************

  Species output for all configurations : 

--------------------------------------------------------------------------------
  Species    Type    Atomic    Atomic    Charge       Radii (Angs)     Library
                     Number     Mass       (e)     Cova   Ionic  VDW   Symbol
--------------------------------------------------------------------------------
    Na       Core       11      22.99   1.000000   0.970  0.000  2.300          
    O        Core        8      16.00   0.183000   0.730  0.000  1.360          
    O        Shell       8       0.00  -2.183000   0.730  0.000  1.360          
    Cl       Core       17      35.45   1.485000   0.990  0.000  1.650          
    Cl       Shell      17       0.00  -2.485000   0.990  0.000  1.650          
--------------------------------------------------------------------------------


  Lattice summation method               =    Ewald          (3-D)
                                         =    Parry          (2-D)
                                         =    Saunders et al (1-D)
  Accuracy factor for lattice sums       =   12.000


  Analytic derivatives to be used

  Time limit = Infinity

  Maximum range for interatomic potentials =    100000.000000 Angstroms

  General interatomic potentials :

--------------------------------------------------------------------------------
Atom  Types   Potential      Parameter       Value         Units   Cutoffs(Ang)
  1     2                                                            Min /  Max 
--------------------------------------------------------------------------------
O    c O    s Spring (c-s)  Spring k 2       593.72000    eV*Ang^-2 0.000  0.800
                            Spring k 4       0.0000000    eV*Ang^-4 
--------------------------------------------------------------------------------
Cl   c Cl   s Spring (c-s)  Spring k 2       29.380000    eV*Ang^-2 0.000  0.800
                            Spring k 4       0.0000000    eV*Ang^-4 
--------------------------------------------------------------------------------
Na   c Na   c Buckingham    Buckingham A     1788.1900    eV        0.000 12.000
                            Buckingham rho  0.15900000    Ang       
                            Buckingham C     0.0000000    eV*Ang^6  
--------------------------------------------------------------------------------
Na   c O    s Buckingham    Buckingham A     1226.8400    eV        0.000 12.000
                            Buckingham rho  0.30700000    Ang       
                            Buckingham C     0.0000000    eV*Ang^6  
--------------------------------------------------------------------------------
Na   c Cl   s Buckingham    Buckingham A     2314.7000    eV        0.000 12.000
                            Buckingham rho  0.29000000    Ang       
                            Buckingham C     0.0000000    eV*Ang^6  
--------------------------------------------------------------------------------
O    s O    s Buckingham    Buckingham A     22764.300    eV        0.000 12.000
                            Buckingham rho  0.14900000    Ang       
                            Buckingham C     13.190000    eV*Ang^6  
--------------------------------------------------------------------------------
O    s Cl   s Buckingham    Buckingham A     8286.9100    eV        0.000 12.000
                            Buckingham rho  0.25900000    Ang       
                            Buckingham C     62.200000    eV*Ang^6  
--------------------------------------------------------------------------------
Cl   s Cl   s Buckingham    Buckingham A     1227.2000    eV        0.000 12.000
                            Buckingham rho  0.32100000    Ang       
                            Buckingham C     14.530000    eV*Ang^6  
--------------------------------------------------------------------------------

********************************************************************************
*  Output for configuration   1                                                *
********************************************************************************


  Components of energy : 

--------------------------------------------------------------------------------
  Interatomic potentials     =           5.13022605 eV    
  Monopole - monopole (real) =         -10.03624526 eV    
  Monopole - monopole (recip)=         -29.53581274 eV    
  Monopole - monopole (total)=         -39.57205800 eV    
--------------------------------------------------------------------------------
  Total lattice energy       =         -34.44183194 eV    
--------------------------------------------------------------------------------
  Total lattice energy       =           -3323.1103 kJ/(mole unit cells)
--------------------------------------------------------------------------------


  Number of variables =        1

  Maximum number of calculations  =          1000
  Maximum Hessian update interval =            10
  Maximum step size               =   1.000000000
  Maximum parameter tolerance     =   0.000010000
  Maximum function  tolerance     =   0.000010000
  Maximum gradient  tolerance     =   0.001000000
  Maximum gradient  component     =   0.010000000

  Symmetry constrained optimisation

  Symmetry used for second derivatives

  Cell parameters to be optimised using strains

  Newton-Raphson optimiser to be used

  BFGS hessian update to be used

  Lower half triangular hessian to be used

  Start of bulk optimisation :

  Cycle:      0 Energy:       -34.441832  Gnorm:      0.196570  CPU:    0.006
  ** Hessian calculated **
  Cycle:      1 Energy:       -34.441914  Gnorm:      0.000103  CPU:    0.007


  **** Optimisation achieved ****


  Final energy =     -34.44191447 eV
  Final Gnorm  =       0.00000000

  Components of energy : 

--------------------------------------------------------------------------------
  Interatomic potentials     =           5.09689708 eV    
  Monopole - monopole (real) =         -10.02781331 eV    
  Monopole - monopole (recip)=         -29.51099824 eV    
  Monopole - monopole (total)=         -39.53881155 eV    
--------------------------------------------------------------------------------
  Total lattice energy       =         -34.44191447 eV    
--------------------------------------------------------------------------------
  Total lattice energy       =           -3323.1183 kJ/(mole unit cells)
--------------------------------------------------------------------------------

  Final asymmetric unit coordinates :

--------------------------------------------------------------------------------
   No.  Atomic        x           y           z         Radius
        Label       (Frac)      (Frac)      (Frac)       (Angs) 
--------------------------------------------------------------------------------
     1  Cl    c     0.000000    0.000000    0.000000    0.000000
     2  O     c     0.500000    0.500000    0.500000    0.000000
     3  Na    c     0.500000    0.500000    0.000000    0.000000
     4  Cl    s     0.000000    0.000000    0.000000    0.000000
     5  O     s     0.500000    0.500000    0.500000    0.000000
--------------------------------------------------------------------------------

  Final Cartesian lattice vectors (Angstroms) :

        4.507787    0.000000    0.000000
        0.000000    4.507787    0.000000
        0.000000    0.000000    4.507787


  Final cell parameters and derivatives :

--------------------------------------------------------------------------------
       a            4.507787 Angstrom     dE/de1(xx)     0.000000 eV/strain
       b            4.507787 Angstrom     dE/de2(yy)     0.000000 eV/strain
       c            4.507787 Angstrom     dE/de3(zz)     0.000000 eV/strain
       alpha       90.000000 Degrees      dE/de4(yz)     0.000000 eV/strain
       beta        90.000000 Degrees      dE/de5(xz)     0.000000 eV/strain
       gamma       90.000000 Degrees      dE/de6(xy)     0.000000 eV/strain
--------------------------------------------------------------------------------

  Primitive cell volume =            91.598892 Angs**3

  Density of cell =      2.183054 g/cm**3

  Non-primitive cell volume =            91.598892 Angs**3


  Final internal derivatives :

--------------------------------------------------------------------------------
   No.  Atomic          a             b             c           Radius
        Label          (eV)          (eV)          (eV)        (eV/Angs)
--------------------------------------------------------------------------------
      1 Cl    c       0.000000      0.000000      0.000000      0.000000
      2 O     c       0.000000      0.000000      0.000000      0.000000
      3 Na    c       0.000000      0.000000      0.000000      0.000000
      4 Cl    s       0.000000      0.000000      0.000000      0.000000
      5 O     s       0.000000      0.000000      0.000000      0.000000
--------------------------------------------------------------------------------
  Maximum abs         0.000000      0.000000      0.000000      0.000000
--------------------------------------------------------------------------------

  Comparison of initial and final structures : 

--------------------------------------------------------------------------------
  Parameter   Initial value   Final value   Difference    Units      Percent
--------------------------------------------------------------------------------
    Volume        91.368216     91.598892     0.230676    Angs**3      0.25
    a              4.504000      4.507787     0.003787    Angstroms    0.08
    b              4.504000      4.507787     0.003787    Angstroms    0.08
    c              4.504000      4.507787     0.003787    Angstroms    0.08
    alpha         90.000000     90.000000     0.000000    Degrees      0.00
    beta          90.000000     90.000000     0.000000    Degrees      0.00
    gamma         90.000000     90.000000     0.000000    Degrees      0.00
      1 x          0.000000      0.000000     0.000000    Fractional   0.00
      1 y          0.000000      0.000000     0.000000    Fractional   0.00
      1 z          0.000000      0.000000     0.000000    Fractional   0.00
      2 x          0.500000      0.500000     0.000000    Fractional   0.00
      2 y          0.500000      0.500000     0.000000    Fractional   0.00
      2 z          0.500000      0.500000     0.000000    Fractional   0.00
      3 x          0.500000      0.500000     0.000000    Fractional   0.00
      3 y          0.500000      0.500000     0.000000    Fractional   0.00
      3 z          0.000000      0.000000     0.000000    Fractional   0.00
      4 x          0.000000      0.000000     0.000000    Fractional   0.00
      4 y          0.000000      0.000000     0.000000    Fractional   0.00
      4 z          0.000000      0.000000     0.000000    Fractional   0.00
      5 x          0.500000      0.500000     0.000000    Fractional   0.00
      5 y          0.500000      0.500000     0.000000    Fractional   0.00
      5 z          0.500000      0.500000     0.000000    Fractional   0.00
--------------------------------------------------------------------------------


  Born effective charge tensors : 

-------------------------------------------------------------------------------
  Atom             x           y             z
-------------------------------------------------------------------------------
    1 Cl    x      -1.0181     -0.0000      0.0000
            y      -0.0000     -1.0181      0.0000
            z       0.0000      0.0000     -1.0181
-------------------------------------------------------------------------------
    2 O     x      -2.2647      0.0000     -0.0000
            y       0.0000     -2.2647     -0.0000
            z      -0.0000     -0.0000     -2.2647
-------------------------------------------------------------------------------
    3 Na    x       1.2258     -0.0000      0.0000
            y      -0.0000      1.2258     -0.0000
            z       0.0000     -0.0000      0.8313
-------------------------------------------------------------------------------




  Elastic Constant Matrix: (Units=GPa)

-------------------------------------------------------------------------------
  Indices      1         2         3         4         5         6    
-------------------------------------------------------------------------------
       1     95.8177   20.0737   20.0737   -0.0000   -0.0000    0.0000
       2     20.0737   95.8177   20.0737   -0.0000   -0.0000    0.0000
       3     20.0737   20.0737   95.8177   -0.0000   -0.0000    0.0000
       4     -0.0000   -0.0000   -0.0000   20.0737   -0.0000    0.0000
       5     -0.0000   -0.0000   -0.0000   -0.0000   20.0737    0.0000
       6      0.0000    0.0000    0.0000    0.0000    0.0000   20.0737
-------------------------------------------------------------------------------


  Elastic Compliance Matrix: (Units=1/GPa)

-------------------------------------------------------------------------------
  Indices      1         2         3         4         5         6    
-------------------------------------------------------------------------------
       1    0.011253 -0.001949 -0.001949  0.000000  0.000000 -0.000000
       2   -0.001949  0.011253 -0.001949  0.000000  0.000000  0.000000
       3   -0.001949 -0.001949  0.011253  0.000000  0.000000 -0.000000
       4    0.000000  0.000000  0.000000  0.049816  0.000000 -0.000000
       5    0.000000  0.000000  0.000000  0.000000  0.049816 -0.000000
       6   -0.000000  0.000000 -0.000000 -0.000000 -0.000000  0.049816
-------------------------------------------------------------------------------

  Mechanical properties :

-------------------------------------------------------------------------------
  Convention :                    Reuss         Voigt         Hill
-------------------------------------------------------------------------------
  Bulk  Modulus (GPa)     =      45.32174      45.32174      45.32174
  Shear Modulus (GPa)     =      24.72085      27.19304      25.95695
-------------------------------------------------------------------------------
  Velocity S-wave (km/s)  =       3.36511       3.52937       3.44822
  Velocity P-wave (km/s)  =       5.98827       6.11304       6.05098
-------------------------------------------------------------------------------
  Compressibility (1/GPa) =    0.02206447
-------------------------------------------------------------------------------
  Stress axis :                     x             y             z
-------------------------------------------------------------------------------
  Youngs Moduli (GPa)     =      88.86373      88.86373      88.86373
-------------------------------------------------------------------------------
  Poissons Ratio (x)      =                     0.17321       0.17321
  Poissons Ratio (y)      =       0.17321                     0.17321
  Poissons Ratio (z)      =       0.17321       0.17321
-------------------------------------------------------------------------------


  Piezoelectric Strain Matrix: (Units=C/m**2)

-------------------------------------------------------------------------------
  Indices      1         2         3         4         5         6    
-------------------------------------------------------------------------------
       x    -0.00000  -0.00000  -0.00000   0.00000  -0.00000  -0.00000
       y    -0.00000  -0.00000   0.00000  -0.00000   0.00000   0.00000
       z    -0.00000  -0.00000  -0.00000  -0.00000   0.00000   0.00000
-------------------------------------------------------------------------------


  Piezoelectric Stress Matrix: (Units=10**-11 C/N)

-------------------------------------------------------------------------------
  Indices      1         2         3         4         5         6    
-------------------------------------------------------------------------------
       x    -0.00000   0.00000   0.00000   0.00000  -0.00000  -0.00000
       y    -0.00000  -0.00000   0.00000  -0.00000   0.00000   0.00000
       z     0.00000   0.00000  -0.00000  -0.00000   0.00000   0.00000
-------------------------------------------------------------------------------


  Static dielectric constant tensor : 

-------------------------------------------------------------------------------
              x         y         z
-------------------------------------------------------------------------------
       x    22.84729   0.00000   0.00000
       y     0.00000  22.84729  -0.00000
       z     0.00000  -0.00000  22.84729
--------------------------------------------------------------------------------

  High frequency dielectric constant tensor : 

-------------------------------------------------------------------------------
              x         y         z
-------------------------------------------------------------------------------
       x     1.47557   0.00000  -0.00000
       y     0.00000   1.47557  -0.00000
       z    -0.00000  -0.00000   1.47557
-------------------------------------------------------------------------------

  Static refractive indices : 

-------------------------------------------------------------------------------
    1 =    4.77988      2 =    4.77988      3 =    4.77988
-------------------------------------------------------------------------------

  High frequency refractive indices : 

-------------------------------------------------------------------------------
    1 =    1.21473      2 =    1.21473      3 =    1.21473
-------------------------------------------------------------------------------


  Time to end of optimisation =       0.0105 seconds

********************************************************************************
*  Defect calculation for configuration   1 :                                  *
********************************************************************************

  Total number of defects =      3

  Total charge on defect  =  -1.00

  Defect centre is at   0.5000   0.2500   0.2500  Frac

  Region 1 radius =  20.0000      Number of ions =   2609

  Number of symmetry inequivalent region 1 ions  =    774

  Region 2 radius =  24.0000      Number of ions =   1816

  Number of symmetry inequivalent region 2a ions =    505

  Region 2a mode = 4 : screened electrostatics due to region 1 
                       neglect correction to region 1 forces from 2a
                       region 2a displacements based on defects only

  Region 2a ions will only interact with defects in region 1

  Vacancies:

--------------------------------------------------------------------------------
    Specification type     Symbol/Number         x          y          z
--------------------------------------------------------------------------------
    Fractional                               0.500000   0.500000   0.000000
    Fractional                               0.500000   0.000000   0.500000
--------------------------------------------------------------------------------

  Interstitials:

--------------------------------------------------------------------------------
    Specification type     Symbol/Number         x          y          z
--------------------------------------------------------------------------------
    Atom/Fractional         Na               0.500000   0.250000   0.250000
--------------------------------------------------------------------------------


  Symmetry reduced region 1 (Relative to defect centre) :

--------------------------------------------------------------------------------
   No.   Atomic       x            y             z       Radius  Multiplicity   
         Label      (Angs)       (Angs)        (Angs)    (Angs)     
--------------------------------------------------------------------------------
     1  Na    c      0.0000       0.0000       0.0000    0.0000     1    Defect
     2  O     c      0.0000       1.1269 *     1.1269    0.0000     1          
     3  Cl    c      2.2539 *    -1.1269 *    -1.1269    0.0000     2          
     4  Na    c      2.2539 *     1.1269 *     1.1269    0.0000     2          
     5  O     c      0.0000       1.1269 *    -3.3808 *  0.0000     2          
     6  Na    c      0.0000       1.1269 *     3.3808 *  0.0000     2          
     7  Na    c      0.0000      -3.3808 *    -1.1269 *  0.0000     2          
     8  Cl    c      2.2539 *    -1.1269 *     3.3808 *  0.0000     4          
     9  Na    c      2.2539 *     1.1269 *    -3.3808 *  0.0000     4          
    10  O     c     -4.5078 *     1.1269 *     1.1269    0.0000     2          
    11  Na    c     -4.5078 *     1.1269 *    -1.1269 *  0.0000     4          
    12  O     c      0.0000      -3.3808 *    -3.3808    0.0000     1          
    13  Na    c      0.0000      -3.3808 *     3.3808 *  0.0000     2          
    14  Cl    c      2.2539 *     3.3808 *     3.3808    0.0000     2          
    15  Na    c      2.2539 *    -3.3808 *    -3.3808    0.0000     2          
    16  O     c      0.0000       1.1269 *     5.6347 *  0.0000     2          
    17  Na    c      0.0000       1.1269 *    -5.6347 *  0.0000     2          
    18  Na    c      0.0000       5.6347 *    -1.1269 *  0.0000     2          
    19  O     c     -4.5078 *     1.1269 *    -3.3808 *  0.0000     4          
    20  Na    c     -4.5078 *     1.1269 *     3.3808 *  0.0000     4          
    21  Na    c     -4.5078 *    -3.3808 *    -1.1269 *  0.0000     4          
    22  Cl    c      2.2539 *    -1.1269 *    -5.6347 *  0.0000     4          
    23  Na    c      2.2539 *     1.1269 *     5.6347 *  0.0000     4          
    24  O     c      0.0000       5.6347 *    -3.3808 *  0.0000     2          
    25  Na    c      0.0000       5.6347 *     3.3808 *  0.0000     2          
    26  Na    c      0.0000      -3.3808 *    -5.6347 *  0.0000     2          
    27  O     c      4.5078 *    -3.3808 *    -3.3808    0.0000     2          
    28  Na    c      4.5078 *    -3.3808 *     3.3808 *  0.0000     4          
    29  Cl    c      2.2539 *     3.3808 *    -5.6347 *  0.0000     4          
    30  Na    c      2.2539 *     5.6347 *    -3.3808 *  0.0000     4          
    31  Cl    c      6.7617 *    -1.1269 *    -1.1269    0.0000     2          
    32  Na    c      6.7617 *     1.1269 *     1.1269    0.0000     2          
    33  O     c     -4.5078 *     1.1269 *     5.6347 *  0.0000     4          
    34  Na    c     -4.5078 *     1.1269 *    -5.6347 *  0.0000     4          
    35  Na    c     -4.5078 *    -1.1269 *     5.6347 *  0.0000     4          
    36  Cl    c      6.7617 *    -1.1269 *     3.3808 *  0.0000     4          
    37  Na    c      6.7617 *     1.1269 *    -3.3808 *  0.0000     4          
    38  O     c      0.0000       5.6347 *     5.6347    0.0000     1          
    39  Na    c      0.0000       5.6347 *    -5.6347 *  0.0000     2          
    40  O     c     -4.5078 *    -3.3808 *     5.6347 *  0.0000     4          
    41  Na    c     -4.5078 *    -3.3808 *    -5.6347 *  0.0000     4          
    42  Na    c     -4.5078 *     3.3808 *     5.6347 *  0.0000     4          
    43  O     c      0.0000       1.1269 *    -7.8886 *  0.0000     2          
    44  Na    c      0.0000       1.1269 *     7.8886 *  0.0000     2          
    45  Na    c      0.0000      -7.8886 *    -1.1269 *  0.0000     2          
    46  Cl    c      2.2539 *    -5.6347 *    -5.6347    0.0000     2          
    47  Na    c      2.2539 *     5.6347 *     5.6347    0.0000     2          
    48  Cl    c      2.2539 *    -1.1269 *     7.8886 *  0.0000     4          
    49  Na    c      2.2539 *     1.1269 *    -7.8886 *  0.0000     4          
    50  Cl    c      6.7617 *     3.3808 *     3.3808    0.0000     2          
    51  Na    c      6.7617 *    -3.3808 *    -3.3808    0.0000     2          
    52  O     c      0.0000      -3.3808 *    -7.8886 *  0.0000     2          
    53  Na    c      0.0000      -3.3808 *     7.8886 *  0.0000     2          
    54  Na    c      0.0000      -7.8886 *     3.3808 *  0.0000     2          
    55  Cl    c      2.2539 *     3.3808 *     7.8886 *  0.0000     4          
    56  Cl    c      6.7617 *    -1.1269 *    -5.6347 *  0.0000     4          
    57  Na    c      2.2539 *    -3.3808 *    -7.8886 *  0.0000     4          
    58  Na    c      6.7617 *     1.1269 *     5.6347 *  0.0000     4          
    59  O     c      4.5078 *     5.6347 *     5.6347    0.0000     2          
    60  O     c      4.5078 *    -7.8886 *     1.1269 *  0.0000     4          
    61  O     c      9.0156 *     1.1269 *     1.1269    0.0000     2          
    62  Na    c      4.5078 *     5.6347 *    -5.6347 *  0.0000     4          
    63  Na    c      4.5078 *    -7.8886 *    -1.1269 *  0.0000     4          
    64  Na    c      9.0156 *     1.1269 *    -1.1269 *  0.0000     4          
    65  Na    c     -4.5078 *     1.1269 *     7.8886 *  0.0000     4          
    66  Cl    c      6.7617 *     3.3808 *    -5.6347 *  0.0000     4          
    67  Na    c      6.7617 *    -3.3808 *     5.6347 *  0.0000     4          
    68  O     c      0.0000       5.6347 *    -7.8886 *  0.0000     2          
    69  O     c      9.0156 *    -3.3808 *     1.1269 *  0.0000     4          
    70  O     c     -4.5078 *    -3.3808 *    -7.8886 *  0.0000     4          
    71  Na    c      0.0000       5.6347 *     7.8886 *  0.0000     2          
    72  Na    c      0.0000      -7.8886 *    -5.6347 *  0.0000     2          
    73  Na    c      9.0156 *    -3.3808 *    -1.1269 *  0.0000     4          
    74  Na    c     -4.5078 *    -3.3808 *     7.8886 *  0.0000     4          
    75  Na    c      9.0156 *     3.3808 *     1.1269 *  0.0000     4          
    76  Na    c     -4.5078 *     3.3808 *    -7.8886 *  0.0000     4          
    77  Cl    c      2.2539 *     7.8886 *    -5.6347 *  0.0000     4          
    78  Na    c      2.2539 *     5.6347 *    -7.8886 *  0.0000     4          
    79  O     c      0.0000      10.1425 *     1.1269 *  0.0000     2          
    80  Na    c      0.0000      10.1425 *    -1.1269 *  0.0000     2          
    81  Na    c      0.0000     -10.1425 *     1.1269 *  0.0000     2          
    82  O     c      9.0156 *    -3.3808 *    -3.3808    0.0000     2          
    83  Na    c      9.0156 *    -3.3808 *     3.3808 *  0.0000     4          
    84  Cl    c      6.7617 *    -5.6347 *    -5.6347    0.0000     2          
    85  Na    c      6.7617 *     5.6347 *     5.6347    0.0000     2          
    86  Cl    c      2.2539 *    -1.1269 *   -10.1425 *  0.0000     4          
    87  Cl    c      6.7617 *    -1.1269 *     7.8886 *  0.0000     4          
    88  Na    c      2.2539 *     1.1269 *    10.1425 *  0.0000     4          
    89  Na    c      6.7617 *     1.1269 *    -7.8886 *  0.0000     4          
    90  O     c      4.5078 *     5.6347 *    -7.8886 *  0.0000     4          
    91  O     c      9.0156 *     1.1269 *     5.6347 *  0.0000     4          
    92  Na    c      4.5078 *     5.6347 *     7.8886 *  0.0000     4          
    93  Na    c      4.5078 *    -7.8886 *    -5.6347 *  0.0000     4          
    94  Na    c      9.0156 *     1.1269 *    -5.6347 *  0.0000     4          
    95  Na    c      9.0156 *     5.6347 *    -1.1269 *  0.0000     4          
    96  O     c      0.0000      10.1425 *    -3.3808 *  0.0000     2          
    97  Na    c      0.0000      10.1425 *     3.3808 *  0.0000     2          
    98  Na    c      0.0000      -3.3808 *   -10.1425 *  0.0000     2          
    99  Cl    c      2.2539 *     3.3808 *   -10.1425 *  0.0000     4          
   100  Cl    c      6.7617 *     7.8886 *     3.3808 *  0.0000     4          
   101  Na    c      2.2539 *    10.1425 *    -3.3808 *  0.0000     4          
   102  Na    c      6.7617 *    -7.8886 *    -3.3808 *  0.0000     4          
   103  O     c      9.0156 *    -3.3808 *     5.6347 *  0.0000     4          
   104  O     c     -4.5078 *    10.1425 *     1.1269 *  0.0000     4          
   105  Na    c      9.0156 *    -3.3808 *    -5.6347 *  0.0000     4          
   106  Na    c     -4.5078 *    10.1425 *    -1.1269 *  0.0000     4          
   107  Na    c      9.0156 *     3.3808 *     5.6347 *  0.0000     4          
   108  Na    c     -4.5078 *   -10.1425 *     1.1269 *  0.0000     4          
   109  O     c      0.0000      -7.8886 *    -7.8886    0.0000     1          
   110  Na    c      0.0000      -7.8886 *     7.8886 *  0.0000     2          
   111  Cl    c     11.2695 *    -1.1269 *    -1.1269    0.0000     2          
   112  Na    c     11.2695 *     1.1269 *     1.1269    0.0000     2          
   113  Cl    c      2.2539 *     7.8886 *     7.8886    0.0000     2          
   114  Na    c      2.2539 *    -7.8886 *    -7.8886    0.0000     2          
   115  O     c      0.0000       5.6347 *    10.1425 *  0.0000     2          
   116  O     c     -4.5078 *    10.1425 *    -3.3808 *  0.0000     4          
   117  Na    c      0.0000       5.6347 *   -10.1425 *  0.0000     2          
   118  Na    c      0.0000      10.1425 *    -5.6347 *  0.0000     2          
   119  Na    c     -4.5078 *    10.1425 *     3.3808 *  0.0000     4          
   120  Na    c     -4.5078 *   -10.1425 *    -3.3808 *  0.0000     4          
   121  Cl    c     11.2695 *    -1.1269 *     3.3808 *  0.0000     4          
   122  Na    c     11.2695 *     1.1269 *    -3.3808 *  0.0000     4          
   123  Cl    c      2.2539 *    -5.6347 *   -10.1425 *  0.0000     4          
   124  Cl    c      6.7617 *     7.8886 *    -5.6347 *  0.0000     4          
   125  Na    c      2.2539 *     5.6347 *    10.1425 *  0.0000     4          
   126  Na    c      6.7617 *    -7.8886 *     5.6347 *  0.0000     4          
   127  O     c      9.0156 *     5.6347 *     5.6347    0.0000     2          
   128  O     c      9.0156 *    -7.8886 *     1.1269 *  0.0000     4          
   129  Na    c      9.0156 *     5.6347 *    -5.6347 *  0.0000     4          
   130  Na    c      9.0156 *    -7.8886 *    -1.1269 *  0.0000     4          
   131  Na    c      9.0156 *     7.8886 *     1.1269 *  0.0000     4          
   132  O     c      4.5078 *    -7.8886 *    -7.8886    0.0000     2          
   133  Na    c      4.5078 *    -7.8886 *     7.8886 *  0.0000     4          
   134  Cl    c     11.2695 *     3.3808 *     3.3808    0.0000     2          
   135  Na    c     11.2695 *    -3.3808 *    -3.3808    0.0000     2          
   136  Cl    c      6.7617 *   -10.1425 *    -1.1269 *  0.0000     4          
   137  Na    c      6.7617 *    10.1425 *     1.1269 *  0.0000     4          
   138  O     c      0.0000       1.1269 *   -12.3964 *  0.0000     2          
   139  O     c      9.0156 *    -7.8886 *    -3.3808 *  0.0000     4          
   140  O     c     -4.5078 *    10.1425 *     5.6347 *  0.0000     4          
   141  Na    c      0.0000       1.1269 *    12.3964 *  0.0000     2          
   142  Na    c      0.0000     -12.3964 *    -1.1269 *  0.0000     2          
   143  Na    c      9.0156 *    -7.8886 *     3.3808 *  0.0000     4          
   144  Na    c     -4.5078 *    10.1425 *    -5.6347 *  0.0000     4          
   145  Na    c      9.0156 *     7.8886 *    -3.3808 *  0.0000     4          
   146  Na    c     -4.5078 *   -10.1425 *     5.6347 *  0.0000     4          
   147  Cl    c     11.2695 *    -1.1269 *    -5.6347 *  0.0000     4          
   148  Na    c     11.2695 *     1.1269 *     5.6347 *  0.0000     4          
   149  Cl    c      2.2539 *    -1.1269 *    12.3964 *  0.0000     4          
   150  Cl    c      6.7617 *   -10.1425 *     3.3808 *  0.0000     4          
   151  Na    c      2.2539 *     1.1269 *   -12.3964 *  0.0000     4          
   152  Na    c      6.7617 *    10.1425 *    -3.3808 *  0.0000     4          
   153  O     c      0.0000      -3.3808 *   -12.3964 *  0.0000     2          
   154  Na    c      0.0000      -3.3808 *    12.3964 *  0.0000     2          
   155  Na    c      0.0000     -12.3964 *     3.3808 *  0.0000     2          
   156  O     c      0.0000      10.1425 *    -7.8886 *  0.0000     2          
   157  Na    c      0.0000      10.1425 *     7.8886 *  0.0000     2          
   158  Na    c      0.0000      -7.8886 *   -10.1425 *  0.0000     2          
   159  Cl    c     11.2695 *     3.3808 *    -5.6347 *  0.0000     4          
   160  Na    c     11.2695 *     5.6347 *    -3.3808 *  0.0000     4          
   161  Cl    c      2.2539 *     3.3808 *    12.3964 *  0.0000     4          
   162  Na    c      2.2539 *    -3.3808 *   -12.3964 *  0.0000     4          
   163  Cl    c      2.2539 *     7.8886 *   -10.1425 *  0.0000     4          
   164  Cl    c      6.7617 *     7.8886 *     7.8886    0.0000     2          
   165  Na    c      2.2539 *    10.1425 *    -7.8886 *  0.0000     4          
   166  Na    c      6.7617 *    -7.8886 *    -7.8886    0.0000     2          
   167  O     c      4.5078 *   -12.3964 *     1.1269 *  0.0000     4          
   168  O     c      9.0156 *    -7.8886 *     5.6347 *  0.0000     4          
   169  Na    c      4.5078 *   -12.3964 *    -1.1269 *  0.0000     4          
   170  Na    c      9.0156 *    -7.8886 *    -5.6347 *  0.0000     4          
   171  Na    c     -4.5078 *     1.1269 *    12.3964 *  0.0000     4          
   172  Na    c      9.0156 *     7.8886 *     5.6347 *  0.0000     4          
   173  Cl    c      6.7617 *   -10.1425 *    -5.6347 *  0.0000     4          
   174  Na    c      6.7617 *    10.1425 *     5.6347 *  0.0000     4          
   175  O     c      0.0000       5.6347 *   -12.3964 *  0.0000     2          
   176  O     c      4.5078 *   -12.3964 *    -3.3808 *  0.0000     4          
   177  Na    c      0.0000       5.6347 *    12.3964 *  0.0000     2          
   178  Na    c      0.0000     -12.3964 *    -5.6347 *  0.0000     2          
   179  Na    c      4.5078 *   -12.3964 *     3.3808 *  0.0000     4          
   180  Na    c      4.5078 *    12.3964 *    -3.3808 *  0.0000     4          
   181  O     c      4.5078 *    10.1425 *    -7.8886 *  0.0000     4          
   182  O     c      9.0156 *     1.1269 *    10.1425 *  0.0000     4          
   183  O     c     13.5234 *     1.1269 *     1.1269    0.0000     2          
   184  Na    c      4.5078 *    10.1425 *     7.8886 *  0.0000     4          
   185  Na    c      4.5078 *    -7.8886 *   -10.1425 *  0.0000     4          
   186  Na    c      9.0156 *     1.1269 *   -10.1425 *  0.0000     4          
   187  Na    c      9.0156 *    10.1425 *    -1.1269 *  0.0000     4          
   188  Na    c     13.5234 *     1.1269 *    -1.1269 *  0.0000     4          
   189  Cl    c     11.2695 *    -5.6347 *    -5.6347    0.0000     2          
   190  Na    c     11.2695 *     5.6347 *     5.6347    0.0000     2          
   191  Cl    c      2.2539 *    12.3964 *    -5.6347 *  0.0000     4          
   192  Cl    c     11.2695 *    -1.1269 *     7.8886 *  0.0000     4          
   193  Na    c      2.2539 *     5.6347 *   -12.3964 *  0.0000     4          
   194  Na    c     11.2695 *     1.1269 *    -7.8886 *  0.0000     4          
   195  O     c      9.0156 *    10.1425 *    -3.3808 *  0.0000     4          
   196  O     c     13.5234 *     1.1269 *    -3.3808 *  0.0000     4          
   197  Na    c      9.0156 *    10.1425 *     3.3808 *  0.0000     4          
   198  Na    c      9.0156 *    -3.3808 *   -10.1425 *  0.0000     4          
   199  Na    c     13.5234 *     1.1269 *     3.3808 *  0.0000     4          
   200  Na    c     13.5234 *    -3.3808 *    -1.1269 *  0.0000     4          
   201  Cl    c      6.7617 *    12.3964 *    -1.1269 *  0.0000     4          
   202  Cl    c     11.2695 *     3.3808 *     7.8886 *  0.0000     4          
   203  Na    c      6.7617 *   -12.3964 *     1.1269 *  0.0000     4          
   204  Na    c     11.2695 *    -3.3808 *    -7.8886 *  0.0000     4          
   205  O     c      4.5078 *   -12.3964 *     5.6347 *  0.0000     4          
   206  Na    c      4.5078 *   -12.3964 *    -5.6347 *  0.0000     4          
   207  Na    c      4.5078 *    12.3964 *     5.6347 *  0.0000     4          
   208  O     c      0.0000      10.1425 *    10.1425    0.0000     1          
   209  O     c      9.0156 *    -7.8886 *    -7.8886    0.0000     2          
   210  O     c     13.5234 *    -3.3808 *    -3.3808    0.0000     2          
   211  Na    c      0.0000      10.1425 *   -10.1425 *  0.0000     2          
   212  Na    c      9.0156 *    -7.8886 *     7.8886 *  0.0000     4          
   213  Na    c     13.5234 *    -3.3808 *     3.3808 *  0.0000     4          
   214  Cl    c      6.7617 *    12.3964 *     3.3808 *  0.0000     4          
   215  Na    c      6.7617 *   -12.3964 *    -3.3808 *  0.0000     4          
   216  Cl    c      2.2539 *   -10.1425 *   -10.1425    0.0000     2          
   217  Cl    c      6.7617 *     7.8886 *   -10.1425 *  0.0000     4          
   218  Na    c      2.2539 *    10.1425 *    10.1425    0.0000     2          
   219  Na    c      6.7617 *    10.1425 *    -7.8886 *  0.0000     4          
   220  O     c      0.0000       1.1269 *    14.6503 *  0.0000     2          
   221  Na    c      0.0000       1.1269 *   -14.6503 *  0.0000     2          
   222  Na    c      0.0000      14.6503 *    -1.1269 *  0.0000     2          
   223  O     c      0.0000      -7.8886 *   -12.3964 *  0.0000     2          
   224  O     c      9.0156 *     5.6347 *    10.1425 *  0.0000     4          
   225  O     c     13.5234 *     1.1269 *     5.6347 *  0.0000     4          
   226  Na    c      0.0000      -7.8886 *    12.3964 *  0.0000     2          
   227  Na    c      0.0000     -12.3964 *     7.8886 *  0.0000     2          
   228  Na    c      9.0156 *     5.6347 *   -10.1425 *  0.0000     4          
   229  Na    c      9.0156 *    10.1425 *    -5.6347 *  0.0000     4          
   230  Na    c     13.5234 *     1.1269 *    -5.6347 *  0.0000     4          
   231  Na    c     13.5234 *     5.6347 *    -1.1269 *  0.0000     4          
   232  Cl    c      2.2539 *    -1.1269 *   -14.6503 *  0.0000     4          
   233  Cl    c     11.2695 *     7.8886 *    -5.6347 *  0.0000     4          
   234  Na    c      2.2539 *     1.1269 *    14.6503 *  0.0000     4          
   235  Na    c     11.2695 *     5.6347 *    -7.8886 *  0.0000     4          
   236  Cl    c      2.2539 *     7.8886 *    12.3964 *  0.0000     4          
   237  Na    c      2.2539 *    -7.8886 *   -12.3964 *  0.0000     4          
   238  O     c      0.0000      14.6503 *    -3.3808 *  0.0000     2          
   239  Na    c      0.0000      14.6503 *     3.3808 *  0.0000     2          
   240  Na    c      0.0000      -3.3808 *   -14.6503 *  0.0000     2          
   241  O     c      4.5078 *    10.1425 *    10.1425    0.0000     2          
   242  O     c     13.5234 *     5.6347 *    -3.3808 *  0.0000     4          
   243  Na    c      4.5078 *    10.1425 *   -10.1425 *  0.0000     4          
   244  Na    c     13.5234 *     5.6347 *     3.3808 *  0.0000     4          
   245  Na    c     13.5234 *    -3.3808 *    -5.6347 *  0.0000     4          
   246  Cl    c      2.2539 *     3.3808 *   -14.6503 *  0.0000     4          
   247  Cl    c      6.7617 *    12.3964 *    -5.6347 *  0.0000     4          
   248  Cl    c     11.2695 *    -1.1269 *   -10.1425 *  0.0000     4          
   249  Na    c      2.2539 *    14.6503 *    -3.3808 *  0.0000     4          
   250  Na    c      6.7617 *   -12.3964 *     5.6347 *  0.0000     4          
   251  Na    c     11.2695 *     1.1269 *    10.1425 *  0.0000     4          
   252  O     c      4.5078 *    14.6503 *     1.1269 *  0.0000     4          
   253  Na    c      4.5078 *    14.6503 *    -1.1269 *  0.0000     4          
   254  Na    c     -4.5078 *     1.1269 *   -14.6503 *  0.0000     4          
   255  O     c      4.5078 *    -7.8886 *   -12.3964 *  0.0000     4          
   256  O     c      9.0156 *     1.1269 *   -12.3964 *  0.0000     4          
   257  Na    c      4.5078 *    -7.8886 *    12.3964 *  0.0000     4          
   258  Na    c      4.5078 *   -12.3964 *     7.8886 *  0.0000     4          
   259  Na    c      9.0156 *     1.1269 *    12.3964 *  0.0000     4          
   260  Na    c      9.0156 *   -12.3964 *    -1.1269 *  0.0000     4          
   261  Cl    c     11.2695 *     3.3808 *   -10.1425 *  0.0000     4          
   262  Na    c     11.2695 *    10.1425 *    -3.3808 *  0.0000     4          
   263  O     c      0.0000       5.6347 *    14.6503 *  0.0000     2          
   264  O     c      4.5078 *    14.6503 *    -3.3808 *  0.0000     4          
   265  Na    c      0.0000       5.6347 *   -14.6503 *  0.0000     2          
   266  Na    c      0.0000      14.6503 *    -5.6347 *  0.0000     2          
   267  Na    c      4.5078 *    14.6503 *     3.3808 *  0.0000     4          
   268  Na    c      4.5078 *   -14.6503 *    -3.3808 *  0.0000     4          
   269  O     c      9.0156 *    -3.3808 *   -12.3964 *  0.0000     4          
   270  O     c      9.0156 *    -7.8886 *    10.1425 *  0.0000     4          
   271  O     c     13.5234 *     5.6347 *     5.6347    0.0000     2          
   272  Na    c      9.0156 *    -3.3808 *    12.3964 *  0.0000     4          
   273  Na    c      9.0156 *    -7.8886 *   -10.1425 *  0.0000     4          
   274  Na    c      9.0156 *   -12.3964 *     3.3808 *  0.0000     4          
   275  Na    c     13.5234 *     5.6347 *    -5.6347 *  0.0000     4          
   276  Na    c      9.0156 *     7.8886 *    10.1425 *  0.0000     4          
   277  O     c     13.5234 *     1.1269 *    -7.8886 *  0.0000     4          
   278  Na    c     13.5234 *     1.1269 *     7.8886 *  0.0000     4          
   279  Na    c     13.5234 *    -7.8886 *    -1.1269 *  0.0000     4          
   280  Cl    c    -15.7773 *    -1.1269 *    -1.1269    0.0000     2          
   281  Na    c    -15.7773 *     1.1269 *     1.1269    0.0000     2          
   282  Cl    c      2.2539 *    -5.6347 *   -14.6503 *  0.0000     4          
   283  Na    c      2.2539 *     5.6347 *    14.6503 *  0.0000     4          
   284  Cl    c      6.7617 *   -10.1425 *   -10.1425    0.0000     2          
   285  Cl    c     11.2695 *     7.8886 *     7.8886    0.0000     2          
   286  Na    c      6.7617 *    10.1425 *    10.1425    0.0000     2          
   287  Na    c     11.2695 *    -7.8886 *    -7.8886    0.0000     2          
   288  O     c      0.0000      10.1425 *   -12.3964 *  0.0000     2          
   289  O     c     13.5234 *    -3.3808 *    -7.8886 *  0.0000     4          
   290  Na    c      0.0000      10.1425 *    12.3964 *  0.0000     2          
   291  Na    c      0.0000     -12.3964 *   -10.1425 *  0.0000     2          
   292  Na    c     13.5234 *    -3.3808 *     7.8886 *  0.0000     4          
   293  Na    c     13.5234 *     3.3808 *    -7.8886 *  0.0000     4          
   294  Cl    c      2.2539 *    12.3964 *   -10.1425 *  0.0000     4          
   295  Cl    c      6.7617 *    -1.1269 *   -14.6503 *  0.0000     4          
   296  Cl    c      6.7617 *     7.8886 *    12.3964 *  0.0000     4          
   297  Cl    c     11.2695 *    -5.6347 *   -10.1425 *  0.0000     4          
   298  Cl    c    -15.7773 *    -1.1269 *     3.3808 *  0.0000     4          
   299  Na    c      2.2539 *    10.1425 *   -12.3964 *  0.0000     4          
   300  Na    c      6.7617 *     1.1269 *    14.6503 *  0.0000     4          
   301  Na    c      6.7617 *    -7.8886 *   -12.3964 *  0.0000     4          
   302  Na    c     11.2695 *     5.6347 *    10.1425 *  0.0000     4          
   303  Na    c    -15.7773 *     1.1269 *    -3.3808 *  0.0000     4          
   304  O     c      4.5078 *     5.6347 *    14.6503 *  0.0000     4          
   305  O     c      9.0156 *     5.6347 *   -12.3964 *  0.0000     4          
   306  Na    c      4.5078 *     5.6347 *   -14.6503 *  0.0000     4          
   307  Na    c      4.5078 *    14.6503 *    -5.6347 *  0.0000     4          
   308  Na    c      9.0156 *     5.6347 *    12.3964 *  0.0000     4          
   309  Na    c      9.0156 *   -12.3964 *    -5.6347 *  0.0000     4          
   310  Cl    c      6.7617 *   -14.6503 *     3.3808 *  0.0000     4          
   311  Cl    c    -15.7773 *     3.3808 *     3.3808    0.0000     2          
   312  Na    c      6.7617 *    14.6503 *    -3.3808 *  0.0000     4          
   313  Na    c    -15.7773 *    -3.3808 *    -3.3808    0.0000     2          
   314  O     c      0.0000      14.6503 *    -7.8886 *  0.0000     2          
   315  O     c      4.5078 *    10.1425 *   -12.3964 *  0.0000     4          
   316  O     c     13.5234 *     5.6347 *    -7.8886 *  0.0000     4          
   317  Na    c      0.0000      14.6503 *     7.8886 *  0.0000     2          
   318  Na    c      0.0000      -7.8886 *   -14.6503 *  0.0000     2          
   319  Na    c      4.5078 *    10.1425 *    12.3964 *  0.0000     4          
   320  Na    c      4.5078 *   -12.3964 *   -10.1425 *  0.0000     4          
   321  Na    c     13.5234 *     5.6347 *     7.8886 *  0.0000     4          
   322  Na    c     13.5234 *    -5.6347 *    -7.8886 *  0.0000     4          
   323  Cl    c      2.2539 *     7.8886 *   -14.6503 *  0.0000     4          
   324  Cl    c     11.2695 *    -1.1269 *    12.3964 *  0.0000     4          
   325  Cl    c    -15.7773 *    -1.1269 *    -5.6347 *  0.0000     4          
   326  Na    c      2.2539 *    14.6503 *    -7.8886 *  0.0000     4          
   327  Na    c     11.2695 *     1.1269 *   -12.3964 *  0.0000     4          
   328  Na    c    -15.7773 *     1.1269 *     5.6347 *  0.0000     4          
   329  O     c      0.0000       1.1269 *   -16.9042 *  0.0000     2          
   330  O     c     13.5234 *    10.1425 *     1.1269 *  0.0000     4          
   331  Na    c      0.0000       1.1269 *    16.9042 *  0.0000     2          
   332  Na    c      0.0000     -16.9042 *    -1.1269 *  0.0000     2          
   333  Na    c     13.5234 *    10.1425 *    -1.1269 *  0.0000     4          
   334  Na    c     13.5234 *   -10.1425 *     1.1269 *  0.0000     4          
   335  O     c      9.0156 *    10.1425 *    10.1425    0.0000     2          
   336  Na    c      9.0156 *    10.1425 *   -10.1425 *  0.0000     4          
   337  Cl    c      6.7617 *   -14.6503 *    -5.6347 *  0.0000     4          
   338  Cl    c     11.2695 *     3.3808 *    12.3964 *  0.0000     4          
   339  Cl    c     11.2695 *   -10.1425 *     7.8886 *  0.0000     4          
   340  Cl    c    -15.7773 *     3.3808 *    -5.6347 *  0.0000     4          
   341  Na    c      6.7617 *    14.6503 *     5.6347 *  0.0000     4          
   342  Na    c     11.2695 *    10.1425 *    -7.8886 *  0.0000     4          
   343  Na    c     11.2695 *    -3.3808 *   -12.3964 *  0.0000     4          
   344  Na    c    -15.7773 *     5.6347 *    -3.3808 *  0.0000     4          
   345  Cl    c      2.2539 *    -1.1269 *    16.9042 *  0.0000     4          
   346  Na    c      2.2539 *     1.1269 *   -16.9042 *  0.0000     4          
   347  O     c      0.0000      -3.3808 *   -16.9042 *  0.0000     2          
   348  O     c      4.5078 *    14.6503 *    -7.8886 *  0.0000     4          
   349  O     c      9.0156 *     1.1269 *    14.6503 *  0.0000     4          
   350  O     c      9.0156 *    -7.8886 *   -12.3964 *  0.0000     4          
   351  O     c     13.5234 *    10.1425 *    -3.3808 *  0.0000     4          
   352  Na    c      0.0000      -3.3808 *    16.9042 *  0.0000     2          
   353  Na    c      0.0000     -16.9042 *     3.3808 *  0.0000     2          
   354  Na    c      4.5078 *    14.6503 *     7.8886 *  0.0000     4          
   355  Na    c      4.5078 *    -7.8886 *   -14.6503 *  0.0000     4          
   356  Na    c      9.0156 *     1.1269 *   -14.6503 *  0.0000     4          
   357  Na    c      9.0156 *    14.6503 *    -1.1269 *  0.0000     4          
   358  Na    c      9.0156 *    -7.8886 *    12.3964 *  0.0000     4          
   359  Na    c      9.0156 *   -12.3964 *     7.8886 *  0.0000     4          
   360  Na    c     13.5234 *    10.1425 *     3.3808 *  0.0000     4          
   361  Na    c     13.5234 *    -3.3808 *   -10.1425 *  0.0000     4          
   362  Cl    c      6.7617 *    12.3964 *   -10.1425 *  0.0000     4          
   363  Na    c      6.7617 *    10.1425 *   -12.3964 *  0.0000     4          
   364  Cl    c      2.2539 *     3.3808 *    16.9042 *  0.0000     4          
   365  Na    c      2.2539 *    -3.3808 *   -16.9042 *  0.0000     4          
   366  O     c      0.0000     -12.3964 *   -12.3964    0.0000     1          
   367  O     c      4.5078 *     1.1269 *   -16.9042 *  0.0000     4          
   368  O     c      9.0156 *    14.6503 *    -3.3808 *  0.0000     4          
   369  Na    c      0.0000     -12.3964 *    12.3964 *  0.0000     2          
   370  Na    c      4.5078 *     1.1269 *    16.9042 *  0.0000     4          
   371  Na    c      4.5078 *   -16.9042 *    -1.1269 *  0.0000     4          
   372  Na    c      9.0156 *    14.6503 *     3.3808 *  0.0000     4          
   373  Na    c      9.0156 *    -3.3808 *   -14.6503 *  0.0000     4          
   374  O     c     13.5234 *    -7.8886 *    -7.8886    0.0000     2          
   375  Na    c     13.5234 *    -7.8886 *     7.8886 *  0.0000     4          
   376  Cl    c     11.2695 *    12.3964 *    -5.6347 *  0.0000     4          
   377  Cl    c    -15.7773 *    -1.1269 *     7.8886 *  0.0000     4          
   378  Cl    c    -15.7773 *    -5.6347 *    -5.6347    0.0000     2          
   379  Na    c     11.2695 *     5.6347 *   -12.3964 *  0.0000     4          
   380  Na    c    -15.7773 *     1.1269 *    -7.8886 *  0.0000     4          
   381  Na    c    -15.7773 *     5.6347 *     5.6347    0.0000     2          
   382  Cl    c      2.2539 *    12.3964 *    12.3964    0.0000     2          
   383  Na    c      2.2539 *   -12.3964 *   -12.3964    0.0000     2          
   384  O     c      0.0000       5.6347 *   -16.9042 *  0.0000     2          
   385  O     c      0.0000      10.1425 *    14.6503 *  0.0000     2          
   386  O     c      4.5078 *    -3.3808 *   -16.9042 *  0.0000     4          
   387  O     c     13.5234 *     5.6347 *    10.1425 *  0.0000     4          
   388  Na    c      0.0000       5.6347 *    16.9042 *  0.0000     2          
   389  Na    c      0.0000      10.1425 *   -14.6503 *  0.0000     2          
   390  Na    c      0.0000      14.6503 *   -10.1425 *  0.0000     2          
   391  Na    c      0.0000     -16.9042 *    -5.6347 *  0.0000     2          
   392  Na    c      4.5078 *    -3.3808 *    16.9042 *  0.0000     4          
   393  Na    c      4.5078 *   -16.9042 *     3.3808 *  0.0000     4          
   394  Na    c     13.5234 *     5.6347 *   -10.1425 *  0.0000     4          
   395  Na    c     13.5234 *    10.1425 *    -5.6347 *  0.0000     4          
   396  Cl    c      2.2539 *   -10.1425 *   -14.6503 *  0.0000     4          
   397  Cl    c      6.7617 *     7.8886 *   -14.6503 *  0.0000     4          
   398  Cl    c    -15.7773 *     3.3808 *     7.8886 *  0.0000     4          
   399  Na    c      2.2539 *    10.1425 *    14.6503 *  0.0000     4          
   400  Na    c      6.7617 *    14.6503 *    -7.8886 *  0.0000     4          
   401  Na    c    -15.7773 *    -3.3808 *    -7.8886 *  0.0000     4          
   402  Cl    c      2.2539 *    16.9042 *    -5.6347 *  0.0000     4          
   403  Na    c      2.2539 *     5.6347 *   -16.9042 *  0.0000     4          
   404  O     c      4.5078 *   -12.3964 *   -12.3964    0.0000     2          
   405  O     c      9.0156 *     5.6347 *    14.6503 *  0.0000     4          
   406  O     c     18.0311 *     1.1269 *     1.1269    0.0000     2          
   407  Na    c      4.5078 *   -12.3964 *    12.3964 *  0.0000     4          
   408  Na    c      9.0156 *     5.6347 *   -14.6503 *  0.0000     4          
   409  Na    c      9.0156 *    14.6503 *    -5.6347 *  0.0000     4          
   410  Na    c     18.0311 *     1.1269 *    -1.1269 *  0.0000     4          
   411  Cl    c      6.7617 *    -1.1269 *    16.9042 *  0.0000     4          
   412  Cl    c     11.2695 *   -10.1425 *   -10.1425    0.0000     2          
   413  Na    c      6.7617 *     1.1269 *   -16.9042 *  0.0000     4          
   414  Na    c     11.2695 *    10.1425 *    10.1425    0.0000     2          
   415  O     c      4.5078 *     5.6347 *   -16.9042 *  0.0000     4          
   416  O     c      4.5078 *    10.1425 *    14.6503 *  0.0000     4          
   417  O     c      9.0156 *    10.1425 *   -12.3964 *  0.0000     4          
   418  O     c     13.5234 *     1.1269 *   -12.3964 *  0.0000     4          
   419  O     c     18.0311 *     1.1269 *    -3.3808 *  0.0000     4          
   420  Na    c      4.5078 *     5.6347 *    16.9042 *  0.0000     4          
   421  Na    c      4.5078 *    10.1425 *   -14.6503 *  0.0000     4          
   422  Na    c      4.5078 *    14.6503 *   -10.1425 *  0.0000     4          
   423  Na    c      4.5078 *   -16.9042 *    -5.6347 *  0.0000     4          
   424  Na    c      9.0156 *    10.1425 *    12.3964 *  0.0000     4          
   425  Na    c      9.0156 *   -12.3964 *   -10.1425 *  0.0000     4          
   426  Na    c     13.5234 *     1.1269 *    12.3964 *  0.0000     4          
   427  Na    c     18.0311 *     1.1269 *     3.3808 *  0.0000     4          
   428  Na    c     18.0311 *    -3.3808 *    -1.1269 *  0.0000     4          
   429  Na    c     13.5234 *    -1.1269 *   -12.3964 *  0.0000     4          
   430  Cl    c     11.2695 *    -1.1269 *   -14.6503 *  0.0000     4          
   431  Cl    c     11.2695 *     7.8886 *    12.3964 *  0.0000     4          
   432  Cl    c    -15.7773 *     7.8886 *    -5.6347 *  0.0000     4          
   433  Na    c     11.2695 *     1.1269 *    14.6503 *  0.0000     4          
   434  Na    c     11.2695 *    -7.8886 *   -12.3964 *  0.0000     4          
   435  Na    c    -15.7773 *     5.6347 *    -7.8886 *  0.0000     4          
   436  Cl    c      6.7617 *     3.3808 *    16.9042 *  0.0000     4          
   437  Na    c      6.7617 *    -3.3808 *   -16.9042 *  0.0000     4          
   438  O     c      0.0000      -7.8886 *   -16.9042 *  0.0000     2          
   439  O     c     13.5234 *    10.1425 *    -7.8886 *  0.0000     4          
   440  O     c     18.0311 *    -3.3808 *    -3.3808    0.0000     2          
   441  Na    c      0.0000      -7.8886 *    16.9042 *  0.0000     2          
   442  Na    c      0.0000     -16.9042 *     7.8886 *  0.0000     2          
   443  Na    c     13.5234 *    10.1425 *     7.8886 *  0.0000     4          
   444  Na    c     18.0311 *    -3.3808 *     3.3808 *  0.0000     4          
   445  Na    c     13.5234 *   -10.1425 *    -7.8886 *  0.0000     4          
   446  O     c     13.5234 *    -3.3808 *   -12.3964 *  0.0000     4          
   447  Na    c     13.5234 *    -3.3808 *    12.3964 *  0.0000     4          
   448  Na    c     13.5234 *   -12.3964 *     3.3808 *  0.0000     4          
   449  Cl    c     11.2695 *     3.3808 *   -14.6503 *  0.0000     4          
   450  Cl    c    -15.7773 *    -1.1269 *   -10.1425 *  0.0000     4          
   451  Na    c     11.2695 *    14.6503 *    -3.3808 *  0.0000     4          
   452  Na    c    -15.7773 *     1.1269 *    10.1425 *  0.0000     4          
   453  Cl    c      2.2539 *     7.8886 *    16.9042 *  0.0000     4          
   454  Cl    c      6.7617 *    12.3964 *    12.3964    0.0000     2          
   455  Na    c      2.2539 *    -7.8886 *   -16.9042 *  0.0000     4          
   456  Na    c      6.7617 *   -12.3964 *   -12.3964    0.0000     2          
   457  O     c      9.0156 *    14.6503 *    -7.8886 *  0.0000     4          
   458  O     c     18.0311 *     1.1269 *     5.6347 *  0.0000     4          
   459  Na    c      9.0156 *    14.6503 *     7.8886 *  0.0000     4          
   460  Na    c      9.0156 *    -7.8886 *   -14.6503 *  0.0000     4          
   461  Na    c     18.0311 *     1.1269 *    -5.6347 *  0.0000     4          
   462  Na    c     18.0311 *     5.6347 *    -1.1269 *  0.0000     4          
   463  Cl    c      6.7617 *   -10.1425 *   -14.6503 *  0.0000     4          
   464  Cl    c    -15.7773 *     3.3808 *   -10.1425 *  0.0000     4          
   465  Na    c      6.7617 *    10.1425 *    14.6503 *  0.0000     4          
   466  Na    c    -15.7773 *    10.1425 *    -3.3808 *  0.0000     4          
   467  Cl    c      6.7617 *    16.9042 *    -5.6347 *  0.0000     4          
   468  Na    c      6.7617 *     5.6347 *   -16.9042 *  0.0000     4          
   469  O     c      0.0000       1.1269 *    19.1581 *  0.0000     2          
   470  Na    c      0.0000       1.1269 *   -19.1581 *  0.0000     2          
   471  Na    c      0.0000      19.1581 *    -1.1269 *  0.0000     2          
   472  O     c      0.0000      14.6503 *   -12.3964 *  0.0000     2          
   473  O     c      4.5078 *   -16.9042 *    -7.8886 *  0.0000     4          
   474  O     c      9.0156 *   -16.9042 *     1.1269 *  0.0000     4          
   475  O     c     18.0311 *     5.6347 *    -3.3808 *  0.0000     4          
   476  Na    c      0.0000      14.6503 *    12.3964 *  0.0000     2          
   477  Na    c      0.0000     -12.3964 *   -14.6503 *  0.0000     2          
   478  Na    c      4.5078 *   -16.9042 *     7.8886 *  0.0000     4          
   479  Na    c      9.0156 *   -16.9042 *    -1.1269 *  0.0000     4          
   480  Na    c     18.0311 *     5.6347 *     3.3808 *  0.0000     4          
   481  Na    c     18.0311 *    -3.3808 *    -5.6347 *  0.0000     4          
   482  Na    c      4.5078 *    16.9042 *    -7.8886 *  0.0000     4          
   483  Na    c      9.0156 *    16.9042 *     1.1269 *  0.0000     4          
   484  O     c     13.5234 *     5.6347 *   -12.3964 *  0.0000     4          
   485  Na    c     13.5234 *     5.6347 *    12.3964 *  0.0000     4          
   486  Na    c     13.5234 *   -12.3964 *    -5.6347 *  0.0000     4          
   487  Cl    c      2.2539 *    -1.1269 *   -19.1581 *  0.0000     4          
   488  Cl    c     11.2695 *    -5.6347 *   -14.6503 *  0.0000     4          
   489  Cl    c    -15.7773 *     7.8886 *     7.8886    0.0000     2          
   490  Na    c      2.2539 *     1.1269 *    19.1581 *  0.0000     4          
   491  Na    c     11.2695 *     5.6347 *    14.6503 *  0.0000     4          
   492  Na    c    -15.7773 *    -7.8886 *    -7.8886    0.0000     2          
   493  Cl    c      2.2539 *    12.3964 *   -14.6503 *  0.0000     4          
   494  Na    c      2.2539 *    14.6503 *   -12.3964 *  0.0000     4          
   495  O     c      0.0000      19.1581 *    -3.3808 *  0.0000     2          
   496  Na    c      0.0000      19.1581 *     3.3808 *  0.0000     2          
   497  Na    c      0.0000      -3.3808 *   -19.1581 *  0.0000     2          
   498  O     c      9.0156 *    -3.3808 *   -16.9042 *  0.0000     4          
   499  Na    c      9.0156 *    -3.3808 *    16.9042 *  0.0000     4          
   500  Na    c      9.0156 *   -16.9042 *     3.3808 *  0.0000     4          
   501  Cl    c      2.2539 *     3.3808 *   -19.1581 *  0.0000     4          
   502  Cl    c     11.2695 *    12.3964 *   -10.1425 *  0.0000     4          
   503  Cl    c    -15.7773 *    -5.6347 *   -10.1425 *  0.0000     4          
   504  Na    c      2.2539 *    19.1581 *    -3.3808 *  0.0000     4          
   505  Na    c     11.2695 *    10.1425 *   -12.3964 *  0.0000     4          
   506  Na    c    -15.7773 *     5.6347 *    10.1425 *  0.0000     4          
   507  O     c      4.5078 *     1.1269 *    19.1581 *  0.0000     4          
   508  Na    c      4.5078 *     1.1269 *   -19.1581 *  0.0000     4          
   509  Na    c      4.5078 *    19.1581 *    -1.1269 *  0.0000     4          
   510  O     c      4.5078 *    14.6503 *   -12.3964 *  0.0000     4          
   511  O     c     18.0311 *     1.1269 *    -7.8886 *  0.0000     4          
   512  O     c     18.0311 *     5.6347 *     5.6347    0.0000     2          
   513  Na    c      4.5078 *    14.6503 *    12.3964 *  0.0000     4          
   514  Na    c      4.5078 *   -12.3964 *   -14.6503 *  0.0000     4          
   515  Na    c     18.0311 *     1.1269 *     7.8886 *  0.0000     4          
   516  Na    c     18.0311 *     5.6347 *    -5.6347 *  0.0000     4          
   517  Na    c     18.0311 *    -7.8886 *    -1.1269 *  0.0000     4          
   518  O     c      0.0000      10.1425 *   -16.9042 *  0.0000     2          
   519  O     c      9.0156 *   -12.3964 *   -12.3964    0.0000     2          
   520  O     c     13.5234 *    10.1425 *    10.1425    0.0000     2          
   521  Na    c      0.0000      10.1425 *    16.9042 *  0.0000     2          
   522  Na    c      0.0000     -16.9042 *   -10.1425 *  0.0000     2          
   523  Na    c      9.0156 *   -12.3964 *    12.3964 *  0.0000     4          
   524  Na    c     13.5234 *    10.1425 *   -10.1425 *  0.0000     4          
   525  Cl    c      2.2539 *    16.9042 *   -10.1425 *  0.0000     4          
   526  Cl    c      6.7617 *     7.8886 *    16.9042 *  0.0000     4          
   527  Na    c      2.2539 *    10.1425 *   -16.9042 *  0.0000     4          
   528  Na    c      6.7617 *    -7.8886 *   -16.9042 *  0.0000     4          
   529  O     c      0.0000       5.6347 *    19.1581 *  0.0000     2          
   530  O     c      4.5078 *    19.1581 *    -3.3808 *  0.0000     4          
   531  Na    c      0.0000       5.6347 *   -19.1581 *  0.0000     2          
   532  Na    c      0.0000      19.1581 *    -5.6347 *  0.0000     2          
   533  Na    c      4.5078 *    19.1581 *     3.3808 *  0.0000     4          
   534  Na    c      4.5078 *    -3.3808 *   -19.1581 *  0.0000     4          
   535  O     c      9.0156 *     5.6347 *   -16.9042 *  0.0000     4          
   536  O     c      9.0156 *    10.1425 *    14.6503 *  0.0000     4          
   537  O     c     13.5234 *     1.1269 *    14.6503 *  0.0000     4          
   538  O     c     18.0311 *    -3.3808 *    -7.8886 *  0.0000     4          
   539  Na    c      9.0156 *     5.6347 *    16.9042 *  0.0000     4          
   540  Na    c      9.0156 *    10.1425 *   -14.6503 *  0.0000     4          
   541  Na    c      9.0156 *    14.6503 *   -10.1425 *  0.0000     4          
   542  Na    c      9.0156 *   -16.9042 *    -5.6347 *  0.0000     4          
   543  Na    c     13.5234 *     1.1269 *   -14.6503 *  0.0000     4          
   544  Na    c     18.0311 *    -3.3808 *     7.8886 *  0.0000     4          
   545  Na    c     18.0311 *    -7.8886 *     3.3808 *  0.0000     4          
   546  Na    c     13.5234 *    -1.1269 *    14.6503 *  0.0000     4          
   547  O     c     13.5234 *    -7.8886 *   -12.3964 *  0.0000     4          
   548  Na    c     13.5234 *    -7.8886 *    12.3964 *  0.0000     4          
   549  Na    c     13.5234 *   -12.3964 *     7.8886 *  0.0000     4          
   550  O     s      0.0000       1.1269 *     1.1269    0.0000     1          
   551  Cl    s      2.2539 *    -1.1269 *    -1.1269    0.0000     2          
   552  O     s      0.0000       1.1269 *    -3.3808 *  0.0000     2          
   553  Cl    s      2.2539 *    -1.1269 *     3.3808 *  0.0000     4          
   554  O     s     -4.5078 *     1.1269 *     1.1269    0.0000     2          
   555  O     s      0.0000      -3.3808 *    -3.3808    0.0000     1          
   556  Cl    s      2.2539 *     3.3808 *     3.3808    0.0000     2          
   557  O     s      0.0000       1.1269 *     5.6347 *  0.0000     2          
   558  O     s     -4.5078 *     1.1269 *    -3.3808 *  0.0000     4          
   559  Cl    s      2.2539 *    -1.1269 *    -5.6347 *  0.0000     4          
   560  O     s      0.0000       5.6347 *    -3.3808 *  0.0000     2          
   561  O     s      4.5078 *    -3.3808 *    -3.3808    0.0000     2          
   562  Cl    s      2.2539 *     3.3808 *    -5.6347 *  0.0000     4          
   563  Cl    s      6.7617 *    -1.1269 *    -1.1269    0.0000     2          
   564  O     s     -4.5078 *     1.1269 *     5.6347 *  0.0000     4          
   565  Cl    s      6.7617 *    -1.1269 *     3.3808 *  0.0000     4          
   566  O     s      0.0000       5.6347 *     5.6347    0.0000     1          
   567  O     s     -4.5078 *    -3.3808 *     5.6347 *  0.0000     4          
   568  O     s      0.0000       1.1269 *    -7.8886 *  0.0000     2          
   569  Cl    s      2.2539 *    -5.6347 *    -5.6347    0.0000     2          
   570  Cl    s      2.2539 *    -1.1269 *     7.8886 *  0.0000     4          
   571  Cl    s      6.7617 *     3.3808 *     3.3808    0.0000     2          
   572  O     s      0.0000      -3.3808 *    -7.8886 *  0.0000     2          
   573  Cl    s      2.2539 *     3.3808 *     7.8886 *  0.0000     4          
   574  Cl    s      6.7617 *    -1.1269 *    -5.6347 *  0.0000     4          
   575  O     s      4.5078 *     5.6347 *     5.6347    0.0000     2          
   576  O     s      4.5078 *    -7.8886 *     1.1269 *  0.0000     4          
   577  O     s      9.0156 *     1.1269 *     1.1269    0.0000     2          
   578  Cl    s      6.7617 *     3.3808 *    -5.6347 *  0.0000     4          
   579  O     s      0.0000       5.6347 *    -7.8886 *  0.0000     2          
   580  O     s      9.0156 *    -3.3808 *     1.1269 *  0.0000     4          
   581  O     s     -4.5078 *    -3.3808 *    -7.8886 *  0.0000     4          
   582  Cl    s      2.2539 *     7.8886 *    -5.6347 *  0.0000     4          
   583  O     s      0.0000      10.1425 *     1.1269 *  0.0000     2          
   584  O     s      9.0156 *    -3.3808 *    -3.3808    0.0000     2          
   585  Cl    s      6.7617 *    -5.6347 *    -5.6347    0.0000     2          
   586  Cl    s      2.2539 *    -1.1269 *   -10.1425 *  0.0000     4          
   587  Cl    s      6.7617 *    -1.1269 *     7.8886 *  0.0000     4          
   588  O     s      4.5078 *     5.6347 *    -7.8886 *  0.0000     4          
   589  O     s      9.0156 *     1.1269 *     5.6347 *  0.0000     4          
   590  O     s      0.0000      10.1425 *    -3.3808 *  0.0000     2          
   591  Cl    s      2.2539 *     3.3808 *   -10.1425 *  0.0000     4          
   592  Cl    s      6.7617 *     7.8886 *     3.3808 *  0.0000     4          
   593  O     s      9.0156 *    -3.3808 *     5.6347 *  0.0000     4          
   594  O     s     -4.5078 *    10.1425 *     1.1269 *  0.0000     4          
   595  O     s      0.0000      -7.8886 *    -7.8886    0.0000     1          
   596  Cl    s     11.2695 *    -1.1269 *    -1.1269    0.0000     2          
   597  Cl    s      2.2539 *     7.8886 *     7.8886    0.0000     2          
   598  O     s      0.0000       5.6347 *    10.1425 *  0.0000     2          
   599  O     s     -4.5078 *    10.1425 *    -3.3808 *  0.0000     4          
   600  Cl    s     11.2695 *    -1.1269 *     3.3808 *  0.0000     4          
   601  Cl    s      2.2539 *    -5.6347 *   -10.1425 *  0.0000     4          
   602  Cl    s      6.7617 *     7.8886 *    -5.6347 *  0.0000     4          
   603  O     s      9.0156 *     5.6347 *     5.6347    0.0000     2          
   604  O     s      9.0156 *    -7.8886 *     1.1269 *  0.0000     4          
   605  O     s      4.5078 *    -7.8886 *    -7.8886    0.0000     2          
   606  Cl    s     11.2695 *     3.3808 *     3.3808    0.0000     2          
   607  Cl    s      6.7617 *   -10.1425 *    -1.1269 *  0.0000     4          
   608  O     s      0.0000       1.1269 *   -12.3964 *  0.0000     2          
   609  O     s      9.0156 *    -7.8886 *    -3.3808 *  0.0000     4          
   610  O     s     -4.5078 *    10.1425 *     5.6347 *  0.0000     4          
   611  Cl    s     11.2695 *    -1.1269 *    -5.6347 *  0.0000     4          
   612  Cl    s      2.2539 *    -1.1269 *    12.3964 *  0.0000     4          
   613  Cl    s      6.7617 *   -10.1425 *     3.3808 *  0.0000     4          
   614  O     s      0.0000      -3.3808 *   -12.3964 *  0.0000     2          
   615  O     s      0.0000      10.1425 *    -7.8886 *  0.0000     2          
   616  Cl    s     11.2695 *     3.3808 *    -5.6347 *  0.0000     4          
   617  Cl    s      2.2539 *     3.3808 *    12.3964 *  0.0000     4          
   618  Cl    s      2.2539 *     7.8886 *   -10.1425 *  0.0000     4          
   619  Cl    s      6.7617 *     7.8886 *     7.8886    0.0000     2          
   620  O     s      4.5078 *   -12.3964 *     1.1269 *  0.0000     4          
   621  O     s      9.0156 *    -7.8886 *     5.6347 *  0.0000     4          
   622  Cl    s      6.7617 *   -10.1425 *    -5.6347 *  0.0000     4          
   623  O     s      0.0000       5.6347 *   -12.3964 *  0.0000     2          
   624  O     s      4.5078 *   -12.3964 *    -3.3808 *  0.0000     4          
   625  O     s      4.5078 *    10.1425 *    -7.8886 *  0.0000     4          
   626  O     s      9.0156 *     1.1269 *    10.1425 *  0.0000     4          
   627  O     s     13.5234 *     1.1269 *     1.1269    0.0000     2          
   628  Cl    s     11.2695 *    -5.6347 *    -5.6347    0.0000     2          
   629  Cl    s      2.2539 *    12.3964 *    -5.6347 *  0.0000     4          
   630  Cl    s     11.2695 *    -1.1269 *     7.8886 *  0.0000     4          
   631  O     s      9.0156 *    10.1425 *    -3.3808 *  0.0000     4          
   632  O     s     13.5234 *     1.1269 *    -3.3808 *  0.0000     4          
   633  Cl    s      6.7617 *    12.3964 *    -1.1269 *  0.0000     4          
   634  Cl    s     11.2695 *     3.3808 *     7.8886 *  0.0000     4          
   635  O     s      4.5078 *   -12.3964 *     5.6347 *  0.0000     4          
   636  O     s      0.0000      10.1425 *    10.1425    0.0000     1          
   637  O     s      9.0156 *    -7.8886 *    -7.8886    0.0000     2          
   638  O     s     13.5234 *    -3.3808 *    -3.3808    0.0000     2          
   639  Cl    s      6.7617 *    12.3964 *     3.3808 *  0.0000     4          
   640  Cl    s      2.2539 *   -10.1425 *   -10.1425    0.0000     2          
   641  Cl    s      6.7617 *     7.8886 *   -10.1425 *  0.0000     4          
   642  O     s      0.0000       1.1269 *    14.6503 *  0.0000     2          
   643  O     s      0.0000      -7.8886 *   -12.3964 *  0.0000     2          
   644  O     s      9.0156 *     5.6347 *    10.1425 *  0.0000     4          
   645  O     s     13.5234 *     1.1269 *     5.6347 *  0.0000     4          
   646  Cl    s      2.2539 *    -1.1269 *   -14.6503 *  0.0000     4          
   647  Cl    s     11.2695 *     7.8886 *    -5.6347 *  0.0000     4          
   648  Cl    s      2.2539 *     7.8886 *    12.3964 *  0.0000     4          
   649  O     s      0.0000      14.6503 *    -3.3808 *  0.0000     2          
   650  O     s      4.5078 *    10.1425 *    10.1425    0.0000     2          
   651  O     s     13.5234 *     5.6347 *    -3.3808 *  0.0000     4          
   652  Cl    s      2.2539 *     3.3808 *   -14.6503 *  0.0000     4          
   653  Cl    s      6.7617 *    12.3964 *    -5.6347 *  0.0000     4          
   654  Cl    s     11.2695 *    -1.1269 *   -10.1425 *  0.0000     4          
   655  O     s      4.5078 *    14.6503 *     1.1269 *  0.0000     4          
   656  O     s      4.5078 *    -7.8886 *   -12.3964 *  0.0000     4          
   657  O     s      9.0156 *     1.1269 *   -12.3964 *  0.0000     4          
   658  Cl    s     11.2695 *     3.3808 *   -10.1425 *  0.0000     4          
   659  O     s      0.0000       5.6347 *    14.6503 *  0.0000     2          
   660  O     s      4.5078 *    14.6503 *    -3.3808 *  0.0000     4          
   661  O     s      9.0156 *    -3.3808 *   -12.3964 *  0.0000     4          
   662  O     s      9.0156 *    -7.8886 *    10.1425 *  0.0000     4          
   663  O     s     13.5234 *     5.6347 *     5.6347    0.0000     2          
   664  O     s     13.5234 *     1.1269 *    -7.8886 *  0.0000     4          
   665  Cl    s    -15.7773 *    -1.1269 *    -1.1269    0.0000     2          
   666  Cl    s      2.2539 *    -5.6347 *   -14.6503 *  0.0000     4          
   667  Cl    s      6.7617 *   -10.1425 *   -10.1425    0.0000     2          
   668  Cl    s     11.2695 *     7.8886 *     7.8886    0.0000     2          
   669  O     s      0.0000      10.1425 *   -12.3964 *  0.0000     2          
   670  O     s     13.5234 *    -3.3808 *    -7.8886 *  0.0000     4          
   671  Cl    s      2.2539 *    12.3964 *   -10.1425 *  0.0000     4          
   672  Cl    s      6.7617 *    -1.1269 *   -14.6503 *  0.0000     4          
   673  Cl    s      6.7617 *     7.8886 *    12.3964 *  0.0000     4          
   674  Cl    s     11.2695 *    -5.6347 *   -10.1425 *  0.0000     4          
   675  Cl    s    -15.7773 *    -1.1269 *     3.3808 *  0.0000     4          
   676  O     s      4.5078 *     5.6347 *    14.6503 *  0.0000     4          
   677  O     s      9.0156 *     5.6347 *   -12.3964 *  0.0000     4          
   678  Cl    s      6.7617 *   -14.6503 *     3.3808 *  0.0000     4          
   679  Cl    s    -15.7773 *     3.3808 *     3.3808    0.0000     2          
   680  O     s      0.0000      14.6503 *    -7.8886 *  0.0000     2          
   681  O     s      4.5078 *    10.1425 *   -12.3964 *  0.0000     4          
   682  O     s     13.5234 *     5.6347 *    -7.8886 *  0.0000     4          
   683  Cl    s      2.2539 *     7.8886 *   -14.6503 *  0.0000     4          
   684  Cl    s     11.2695 *    -1.1269 *    12.3964 *  0.0000     4          
   685  Cl    s    -15.7773 *    -1.1269 *    -5.6347 *  0.0000     4          
   686  O     s      0.0000       1.1269 *   -16.9042 *  0.0000     2          
   687  O     s     13.5234 *    10.1425 *     1.1269 *  0.0000     4          
   688  O     s      9.0156 *    10.1425 *    10.1425    0.0000     2          
   689  Cl    s      6.7617 *   -14.6503 *    -5.6347 *  0.0000     4          
   690  Cl    s     11.2695 *     3.3808 *    12.3964 *  0.0000     4          
   691  Cl    s     11.2695 *   -10.1425 *     7.8886 *  0.0000     4          
   692  Cl    s    -15.7773 *     3.3808 *    -5.6347 *  0.0000     4          
   693  Cl    s      2.2539 *    -1.1269 *    16.9042 *  0.0000     4          
   694  O     s      0.0000      -3.3808 *   -16.9042 *  0.0000     2          
   695  O     s      4.5078 *    14.6503 *    -7.8886 *  0.0000     4          
   696  O     s      9.0156 *     1.1269 *    14.6503 *  0.0000     4          
   697  O     s      9.0156 *    -7.8886 *   -12.3964 *  0.0000     4          
   698  O     s     13.5234 *    10.1425 *    -3.3808 *  0.0000     4          
   699  Cl    s      6.7617 *    12.3964 *   -10.1425 *  0.0000     4          
[...]
    694 y         -2.253894     -2.239207     0.014687    Cartesian   -0.65
    694 z        -15.777255    -15.741456     0.035799    Cartesian   -0.23
    695 x          6.761681      6.764560     0.002879    Cartesian    0.04
    695 y         15.777255     15.745979    -0.031276    Cartesian   -0.20
    695 z         -6.761681     -6.768446    -0.006765    Cartesian    0.10
    696 x         11.269468     11.271740     0.002272    Cartesian    0.02
    696 y          2.253894      2.257432     0.003538    Cartesian    0.16
    696 z         15.777255     15.768354    -0.008901    Cartesian   -0.06
    697 x         11.269468     11.242916    -0.026552    Cartesian   -0.24
    697 y         -6.761681     -6.750727     0.010953    Cartesian   -0.16
    697 z        -11.269468    -11.263960     0.005508    Cartesian   -0.05
    698 x         15.777255     15.769968    -0.007287    Cartesian   -0.05
    698 y         11.269468     11.270403     0.000935    Cartesian    0.01
    698 z         -2.253894     -2.241759     0.012135    Cartesian   -0.54
    699 x          9.015574      9.020527     0.004952    Cartesian    0.05
    699 y         13.523362     13.564641     0.041280    Cartesian    0.31
    699 z         -9.015574     -9.028629    -0.013054    Cartesian    0.14
    700 x          4.507787      4.510261     0.002473    Cartesian    0.05
    700 y          4.507787      4.516627     0.008840    Cartesian    0.20
    700 z         18.031149     18.077086     0.045937    Cartesian    0.25
    701 x          2.253894      2.253894     0.000000    Cartesian    0.00
    701 y        -11.269468    -11.273146    -0.003678    Cartesian    0.03
    701 z        -11.269468    -11.273146    -0.003678    Cartesian    0.03
    702 x          6.761681      6.759329    -0.002352    Cartesian   -0.03
    702 y          2.253894      2.261969     0.008075    Cartesian    0.36
    702 z        -15.777255    -15.746123     0.031132    Cartesian   -0.20
    703 x         11.269468     11.261327    -0.008141    Cartesian   -0.07
    703 y         15.777255     15.766531    -0.010725    Cartesian   -0.07
    703 z         -2.253894     -2.252164     0.001729    Cartesian   -0.08
    704 x         15.777255     15.734470    -0.042785    Cartesian   -0.27
    704 y         -6.761681     -6.762957    -0.001276    Cartesian    0.02
    704 z         -6.761681     -6.762957    -0.001276    Cartesian    0.02
    705 x         13.523362     13.560302     0.036940    Cartesian    0.27
    705 y         13.523362     13.540119     0.016757    Cartesian    0.12
    705 z         -4.507787     -4.481795     0.025992    Cartesian   -0.58
    706 x        -13.523362    -13.541179    -0.017817    Cartesian    0.13
    706 y          0.000000      0.013858     0.013858    Cartesian    0.00
    706 z          9.015574      9.030175     0.014601    Cartesian    0.16
    707 x        -13.523362    -13.553970    -0.030608    Cartesian    0.23
    707 y         -4.507787     -4.537949    -0.030162    Cartesian    0.67
    707 z         -4.507787     -4.537949    -0.030162    Cartesian    0.67
    708 x          4.507787      4.493086    -0.014701    Cartesian   -0.33
    708 y         13.523362     13.536071     0.012710    Cartesian    0.09
    708 z         13.523362     13.536071     0.012710    Cartesian    0.09
    709 x          2.253894      2.253894     0.000000    Cartesian    0.00
    709 y          6.761681      6.751339    -0.010342    Cartesian   -0.15
    709 z        -15.777255    -15.753504     0.023751    Cartesian   -0.15
    710 x          2.253894      2.253894     0.000000    Cartesian    0.00
    710 y         11.269468     11.269924     0.000455    Cartesian    0.00
    710 z         15.777255     15.775933    -0.001323    Cartesian   -0.01
    711 x          6.761681      6.767554     0.005873    Cartesian    0.09
    711 y         -2.253894     -2.254964    -0.001070    Cartesian    0.05
    711 z        -15.777255    -15.755315     0.021940    Cartesian   -0.14
    712 x         15.777255     15.741896    -0.035359    Cartesian   -0.22
    712 y          6.761681      6.765027     0.003346    Cartesian    0.05
    712 z         11.269468     11.276402     0.006934    Cartesian    0.06
    713 x          4.507787      4.494839    -0.012948    Cartesian   -0.29
    713 y         -9.015574     -9.043668    -0.028094    Cartesian    0.31
    713 z        -13.523362    -13.531625    -0.008263    Cartesian    0.06
    714 x          9.015574      9.041996     0.026422    Cartesian    0.29
    714 y          9.015574      9.019363     0.003789    Cartesian    0.04
    714 z        -13.523362    -13.526194    -0.002832    Cartesian    0.02
    715 x        -13.523362    -13.566234    -0.042873    Cartesian    0.32
    715 y          4.507787      4.531806     0.024019    Cartesian    0.53
    715 z          9.015574      9.046686     0.031111    Cartesian    0.35
    716 x          4.507787      4.519462     0.011675    Cartesian    0.26
    716 y         18.031149     18.069834     0.038685    Cartesian    0.21
    716 z         -4.507787     -4.529468    -0.021680    Cartesian    0.48
    717 x          6.761681      6.742882    -0.018799    Cartesian   -0.28
    717 y        -11.269468    -11.255653     0.013815    Cartesian   -0.12
    717 z        -11.269468    -11.255653     0.013815    Cartesian   -0.12
    718 x         11.269468     11.240060    -0.029408    Cartesian   -0.26
    718 y          6.761681      6.760213    -0.001468    Cartesian   -0.02
    718 z         15.777255     15.778460     0.001204    Cartesian    0.01
    719 x         20.285042     20.272875    -0.012168    Cartesian   -0.06
    719 y          2.253894      2.271993     0.018100    Cartesian    0.80
    719 z          2.253894      2.271993     0.018100    Cartesian    0.80
    720 x          9.015574      9.046522     0.030947    Cartesian    0.34
    720 y          0.000000      0.011780     0.011780    Cartesian    0.00
    720 z         18.031149     18.053980     0.022831    Cartesian    0.13
    721 x         13.523362     13.535619     0.012257    Cartesian    0.09
    721 y         -9.015574     -9.063000    -0.047426    Cartesian    0.53
    721 z         -9.015574     -9.063000    -0.047426    Cartesian    0.53
    722 x          6.761681      6.766707     0.005026    Cartesian    0.07
    722 y          6.761681      6.728041    -0.033640    Cartesian   -0.50
    722 z        -15.777255    -15.765823     0.011432    Cartesian   -0.07
    723 x          6.761681      6.741530    -0.020151    Cartesian   -0.30
    723 y         11.269468     11.252651    -0.016817    Cartesian   -0.15
    723 z         15.777255     15.773431    -0.003825    Cartesian   -0.02
    724 x         11.269468     11.266533    -0.002935    Cartesian   -0.03
    724 y         11.269468     11.263932    -0.005536    Cartesian   -0.05
    724 z        -11.269468    -11.242231     0.027237    Cartesian   -0.24
    725 x         15.777255     15.774396    -0.002859    Cartesian   -0.02
    725 y          2.253894      2.263666     0.009772    Cartesian    0.43
    725 z        -11.269468    -11.250555     0.018913    Cartesian   -0.17
    726 x         20.285042     20.270815    -0.014228    Cartesian   -0.07
    726 y          2.253894      2.234662    -0.019231    Cartesian   -0.85
    726 z         -2.253894     -2.271615    -0.017721    Cartesian    0.79
    727 x         13.523362     13.519863    -0.003499    Cartesian   -0.03
    727 y          0.000000     -0.017764    -0.017764    Cartesian    0.00
    727 z        -13.523362    -13.525906    -0.002544    Cartesian    0.02
    728 x         13.523362     13.533051     0.009689    Cartesian    0.07
    728 y          9.015574      9.056606     0.041032    Cartesian    0.46
    728 z         13.523362     13.577862     0.054500    Cartesian    0.40
    729 x        -13.523362    -13.556456    -0.033095    Cartesian    0.24
    729 y          9.015574      9.037676     0.022101    Cartesian    0.25
    729 z         -4.507787     -4.511643    -0.003856    Cartesian    0.09
    730 x          9.015574      8.998633    -0.016941    Cartesian   -0.19
    730 y          4.507787      4.514148     0.006361    Cartesian    0.14
    730 z         18.031149     18.055826     0.024678    Cartesian    0.14
    731 x          2.253894      2.253894     0.000000    Cartesian    0.00
    731 y         -6.761681     -6.743453     0.018228    Cartesian   -0.27
    731 z        -15.777255    -15.770636     0.006619    Cartesian   -0.04
    732 x         15.777255     15.776155    -0.001100    Cartesian   -0.01
    732 y         11.269468     11.247140    -0.022328    Cartesian   -0.20
    732 z         -6.761681     -6.773751    -0.012070    Cartesian    0.18
    733 x         20.285042     20.274764    -0.010279    Cartesian   -0.05
    733 y         -2.253894     -2.235703     0.018190    Cartesian   -0.81
    733 z         -2.253894     -2.235703     0.018190    Cartesian   -0.81
    734 x         15.777255     15.756292    -0.020964    Cartesian   -0.13
    734 y         -2.253894     -2.273220    -0.019326    Cartesian    0.86
    734 z        -11.269468    -11.272993    -0.003525    Cartesian    0.03
    735 x         13.523362     13.553450     0.030089    Cartesian    0.22
    735 y          4.507787      4.497718    -0.010069    Cartesian   -0.22
    735 z        -13.523362    -13.533448    -0.010086    Cartesian    0.07
    736 x        -13.523362    -13.532546    -0.009184    Cartesian    0.07
    736 y          0.000000     -0.006476    -0.006476    Cartesian    0.00
    736 z         -9.015574     -8.995836     0.019738    Cartesian   -0.22
    737 x          4.507787      4.508394     0.000606    Cartesian    0.01
    737 y          9.015574      9.056728     0.041154    Cartesian    0.46
    737 z         18.031149     18.035179     0.004030    Cartesian    0.02
    738 x          9.015574      9.008878    -0.006697    Cartesian   -0.07
    738 y         13.523362     13.538353     0.014991    Cartesian    0.11
    738 z         13.523362     13.538353     0.014991    Cartesian    0.11
    739 x         11.269468     11.269829     0.000361    Cartesian    0.00
    739 y         15.777255     15.766658    -0.010597    Cartesian   -0.07
    739 z         -6.761681     -6.739009     0.022672    Cartesian   -0.34
    740 x         20.285042     20.276505    -0.008538    Cartesian   -0.04
    740 y          2.253894      2.236387    -0.017507    Cartesian   -0.78
    740 z          6.761681      6.741551    -0.020130    Cartesian   -0.30
    741 x          9.015574      9.023844     0.008270    Cartesian    0.09
    741 y         -9.015574     -9.024676    -0.009101    Cartesian    0.10
    741 z        -13.523362    -13.535345    -0.011983    Cartesian    0.09
    742 x        -13.523362    -13.550644    -0.027282    Cartesian    0.20
    742 y          4.507787      4.505866    -0.001922    Cartesian   -0.04
    742 z         -9.015574     -9.072476    -0.056902    Cartesian    0.63
    743 x          9.015574      8.996085    -0.019489    Cartesian   -0.22
    743 y         18.031149     18.071759     0.040610    Cartesian    0.23
    743 z         -4.507787     -4.524035    -0.016248    Cartesian    0.36
    744 x          2.253894      2.253894     0.000000    Cartesian    0.00
    744 y          2.253894      2.260516     0.006622    Cartesian    0.29
    744 z         20.285042     20.276600    -0.008442    Cartesian   -0.04
    745 x          2.253894      2.253894     0.000000    Cartesian    0.00
    745 y         15.777255     15.770519    -0.006736    Cartesian   -0.04
    745 z        -11.269468    -11.253186     0.016282    Cartesian   -0.14
    746 x          6.761681      6.739071    -0.022610    Cartesian   -0.33
    746 y        -15.777255    -15.777872    -0.000617    Cartesian    0.00
    746 z         -6.761681     -6.748329     0.013352    Cartesian   -0.20
    747 x         11.269468     11.273370     0.003902    Cartesian    0.03
    747 y        -15.777255    -15.764417     0.012839    Cartesian   -0.08
    747 z          2.253894      2.249460    -0.004434    Cartesian   -0.20
    748 x         20.285042     20.272369    -0.012674    Cartesian   -0.06
    748 y          6.761681      6.780600     0.018919    Cartesian    0.28
    748 z         -2.253894     -2.230758     0.023135    Cartesian   -1.03
    749 x         15.777255     15.762099    -0.015156    Cartesian   -0.10
    749 y          6.761681      6.743255    -0.018426    Cartesian   -0.27
    749 z        -11.269468    -11.274410    -0.004942    Cartesian    0.04
    750 x          4.507787      4.506833    -0.000954    Cartesian   -0.02
    750 y          0.000000      0.003959     0.003959    Cartesian    0.00
    750 z        -18.031149    -18.105784    -0.074635    Cartesian    0.41
    751 x         13.523362     13.548436     0.025075    Cartesian    0.19
    751 y         -4.507787     -4.519879    -0.012092    Cartesian    0.27
    751 z        -13.523362    -13.564221    -0.040859    Cartesian    0.30
    752 x        -13.523362    -13.561355    -0.037993    Cartesian    0.28
    752 y          9.015574      9.039892     0.024318    Cartesian    0.27
    752 z          9.015574      9.039892     0.024318    Cartesian    0.27
    753 x          4.507787      4.514359     0.006571    Cartesian    0.15
    753 y         13.523362     13.536257     0.012895    Cartesian    0.10
    753 z        -13.523362    -13.554100    -0.030738    Cartesian    0.23
    754 x          2.253894      2.253894     0.000000    Cartesian    0.00
    754 y         20.285042     20.275009    -0.010034    Cartesian   -0.05
    754 z         -2.253894     -2.268702    -0.014808    Cartesian    0.66
    755 x         11.269468     11.255971    -0.013497    Cartesian   -0.12
    755 y         -2.253894     -2.250758     0.003135    Cartesian   -0.14
    755 z        -15.777255    -15.779563    -0.002307    Cartesian    0.01
    756 x          4.507787      4.531778     0.023991    Cartesian    0.53
    756 y          4.507787      4.510680     0.002893    Cartesian    0.06
    756 z        -18.031149    -18.032746    -0.001597    Cartesian    0.01
    757 x         13.523362     13.548241     0.024880    Cartesian    0.18
    757 y         13.523362     13.512761    -0.010600    Cartesian   -0.08
    757 z         -9.015574     -9.024255    -0.008680    Cartesian    0.10
    758 x        -13.523362    -13.561531    -0.038169    Cartesian    0.28
    758 y         -4.507787     -4.540993    -0.033206    Cartesian    0.74
    758 z         -9.015574     -9.052223    -0.036648    Cartesian    0.41
    759 x          6.761681      6.768905     0.007224    Cartesian    0.11
    759 y          2.253894      2.270679     0.016785    Cartesian    0.74
    759 z         20.285042     20.275387    -0.009655    Cartesian   -0.05
    760 x          6.761681      6.763558     0.001878    Cartesian    0.03
    760 y         15.777255     15.773421    -0.003835    Cartesian   -0.02
    760 z        -11.269468    -11.258636     0.010832    Cartesian   -0.10
    761 x         20.285042     20.280550    -0.004492    Cartesian   -0.02
    761 y          2.253894      2.276816     0.022922    Cartesian    1.02
    761 z         -6.761681     -6.753072     0.008609    Cartesian   -0.13
    762 x         20.285042     20.252317    -0.032725    Cartesian   -0.16
    762 y          6.761681      6.776695     0.015014    Cartesian    0.22
    762 z          6.761681      6.776695     0.015014    Cartesian    0.22
    763 x          2.253894      2.253894     0.000000    Cartesian    0.00
    763 y         11.269468     11.270691     0.001223    Cartesian    0.01
    763 z        -15.777255    -15.759084     0.018171    Cartesian   -0.12
    764 x         11.269468     11.285096     0.015628    Cartesian    0.14
    764 y        -11.269468    -11.255516     0.013952    Cartesian   -0.12
    764 z        -11.269468    -11.255516     0.013952    Cartesian   -0.12
    765 x         15.777255     15.791611     0.014355    Cartesian    0.09
    765 y         11.269468     11.254885    -0.014583    Cartesian   -0.13
    765 z         11.269468     11.254885    -0.014583    Cartesian   -0.13
    766 x          4.507787      4.514799     0.007012    Cartesian    0.16
    766 y         18.031149     18.030671    -0.000478    Cartesian   -0.00
    766 z         -9.015574     -9.047908    -0.032334    Cartesian    0.36
    767 x          9.015574      9.023982     0.008407    Cartesian    0.09
    767 y          9.015574      9.020105     0.004531    Cartesian    0.05
    767 z         18.031149     18.041891     0.010742    Cartesian    0.06
    768 x          2.253894      2.253894     0.000000    Cartesian    0.00
    768 y          6.761681      6.750750    -0.010930    Cartesian   -0.16
    768 z         20.285042     20.290774     0.005731    Cartesian    0.03
    769 x          6.761681      6.763593     0.001912    Cartesian    0.03
    769 y         20.285042     20.266237    -0.018806    Cartesian   -0.09
    769 z         -2.253894     -2.262809    -0.008915    Cartesian    0.40
    770 x         11.269468     11.270852     0.001384    Cartesian    0.01
    770 y          6.761681      6.767720     0.006039    Cartesian    0.09
    770 z        -15.777255    -15.761011     0.016244    Cartesian   -0.10
    771 x         11.269468     11.282754     0.013286    Cartesian    0.12
    771 y         11.269468     11.263145    -0.006323    Cartesian   -0.06
    771 z         15.777255     15.766644    -0.010611    Cartesian   -0.07
    772 x         15.777255     15.760819    -0.016436    Cartesian   -0.10
    772 y          2.253894      2.267595     0.013701    Cartesian    0.61
    772 z         15.777255     15.785847     0.008591    Cartesian    0.05
    773 x         20.285042     20.254159    -0.030883    Cartesian   -0.15
    773 y         -2.253894     -2.268452    -0.014559    Cartesian    0.65
    773 z         -6.761681     -6.774836    -0.013155    Cartesian    0.19
    774 x         15.777255     15.788437     0.011182    Cartesian    0.07
    774 y         -6.761681     -6.751305     0.010376    Cartesian   -0.15
    774 z        -11.269468    -11.253935     0.015533    Cartesian   -0.14
--------------------------------------------------------------------------------


  Time to end of optimisation  =      631.9561 seconds


  Peak dynamic memory used =    1520.09 MB 


  Timing analysis for GULP :

--------------------------------------------------------------------------------
  Task / Subroutine                                          Time (Seconds)
--------------------------------------------------------------------------------
  Calculation of reciprocal space energy and derivatives          0.0002
  Calculation of reciprocal space energy using symmetry           0.0003
  Calculation of real space energy and derivatives                0.0014
  Calculation of real space energy using symmetry                 0.0033
  Calculation for region 1 energy and derivatives (2-b)         243.7884
  Calculation for region 2a energy                               72.2816
  Calculation for region 2b energy                                0.0139
  Calculation and manipulation of Hessian matrix                284.6064
  Calculation of matrix inversion                                29.7626
  Symmetry generation of equivalent positions                     0.0018
--------------------------------------------------------------------------------
  Total CPU time                                                631.9561
--------------------------------------------------------------------------------


  Dump file written as Na3OCl.grs


  Job Finished at 22:25.06 19th November   2020                               

