********************************************************************************
*                       GENERAL UTILITY LATTICE PROGRAM                        *
*                                 Julian Gale                                  *
*                       Curtin Institute for Computation                       *
*                    School of Molecular and Life Sciences                     *
*                    Curtin University, Western Australia                      *
********************************************************************************
* Version = 5.2.0 * Last modified =  10th September 2020                       *
********************************************************************************
*  optimise     - perform optimisation run                                     *
*  conp         - constant pressure calculation                                *
*  property     - calculate properties for final geometry                      *
*  defect       - perform defect calculation after bulk run                    *
*  compare      - compare initial and final structures                         *
********************************************************************************

  Job Started  at 13:24.30 20th November   2020                               

  Number of CPUs =     1


  Total number of configurations input =      1

********************************************************************************
*  Input for Configuration =   1                                               *
********************************************************************************

  Formula = ClONa3                                                      

  Number of irreducible atoms/shells =       5


  Total number atoms/shells =       7

  Dimensionality = 3               :  Bulk   


  Symmetry :

  Crystal family                   :  Cubic       
  Crystal class  (Groth - 1921)    :  Cubic Hexakisoctahedral              

  Space group (centrosymmetric)    :  P M 3 M         

  Patterson group                  :  P m -3 m 

  Cartesian lattice vectors (Angstroms) :

        4.504000    0.000000    0.000000
        0.000000    4.504000    0.000000
        0.000000    0.000000    4.504000

  Cell parameters (Angstroms/Degrees):

  a =       4.5040    alpha =  90.0000
  b =       4.5040    beta  =  90.0000
  c =       4.5040    gamma =  90.0000

  Initial cell volume =          91.368216 Angs**3

  Temperature of configuration =   0.00     K 

  Pressure of configuration =         0.000 GPa 

  Fractional coordinates of asymmetric unit :

--------------------------------------------------------------------------------
   No.  Atomic       x           y          z         Charge      Occupancy
        Label      (Frac)      (Frac)     (Frac)        (e)         (Frac)  
--------------------------------------------------------------------------------
      1 Cl    c    0.000000    0.000000    0.000000     1.48500    1.000000    
      2 O     c    0.500000    0.500000    0.500000     0.18300    1.000000    
      3 Na    c    0.500000    0.500000    0.000000     1.00000    1.000000    
      4 Cl    s    0.000000    0.000000    0.000000    -2.48500    1.000000    
      5 O     s    0.500000    0.500000    0.500000    -2.18300    1.000000    
--------------------------------------------------------------------------------


  Constraints : 

--------------------------------------------------------------------------------
  Constraint no.      Unconstrained     Constrained    Coefficient    Offset
                         Variable         Variable
--------------------------------------------------------------------------------
           1              Strain 1        Strain 2       1.00000      0.0000
           2              Strain 1        Strain 3       1.00000      0.0000
--------------------------------------------------------------------------------


********************************************************************************
*  General input information                                                   *
********************************************************************************

  Species output for all configurations : 

--------------------------------------------------------------------------------
  Species    Type    Atomic    Atomic    Charge       Radii (Angs)     Library
                     Number     Mass       (e)     Cova   Ionic  VDW   Symbol
--------------------------------------------------------------------------------
    Na       Core       11      22.99   1.000000   0.970  0.000  2.300          
    O        Core        8      16.00   0.183000   0.730  0.000  1.360          
    O        Shell       8       0.00  -2.183000   0.730  0.000  1.360          
    Cl       Core       17      35.45   1.485000   0.990  0.000  1.650          
    Cl       Shell      17       0.00  -2.485000   0.990  0.000  1.650          
--------------------------------------------------------------------------------


  Lattice summation method               =    Ewald          (3-D)
                                         =    Parry          (2-D)
                                         =    Saunders et al (1-D)
  Accuracy factor for lattice sums       =   12.000


  Analytic derivatives to be used

  Time limit = Infinity

  Maximum range for interatomic potentials =    100000.000000 Angstroms

  General interatomic potentials :

--------------------------------------------------------------------------------
Atom  Types   Potential      Parameter       Value         Units   Cutoffs(Ang)
  1     2                                                            Min /  Max 
--------------------------------------------------------------------------------
O    c O    s Spring (c-s)  Spring k 2       593.72000    eV*Ang^-2 0.000  0.800
                            Spring k 4       0.0000000    eV*Ang^-4 
--------------------------------------------------------------------------------
Cl   c Cl   s Spring (c-s)  Spring k 2       29.380000    eV*Ang^-2 0.000  0.800
                            Spring k 4       0.0000000    eV*Ang^-4 
--------------------------------------------------------------------------------
Na   c Na   c Buckingham    Buckingham A     1788.1900    eV        0.000 12.000
                            Buckingham rho  0.15900000    Ang       
                            Buckingham C     0.0000000    eV*Ang^6  
--------------------------------------------------------------------------------
Na   c O    s Buckingham    Buckingham A     1226.8400    eV        0.000 12.000
                            Buckingham rho  0.30700000    Ang       
                            Buckingham C     0.0000000    eV*Ang^6  
--------------------------------------------------------------------------------
Na   c Cl   s Buckingham    Buckingham A     2314.7000    eV        0.000 12.000
                            Buckingham rho  0.29000000    Ang       
                            Buckingham C     0.0000000    eV*Ang^6  
--------------------------------------------------------------------------------
O    s O    s Buckingham    Buckingham A     22764.300    eV        0.000 12.000
                            Buckingham rho  0.14900000    Ang       
                            Buckingham C     13.190000    eV*Ang^6  
--------------------------------------------------------------------------------
O    s Cl   s Buckingham    Buckingham A     8286.9100    eV        0.000 12.000
                            Buckingham rho  0.25900000    Ang       
                            Buckingham C     62.200000    eV*Ang^6  
--------------------------------------------------------------------------------
Cl   s Cl   s Buckingham    Buckingham A     1227.2000    eV        0.000 12.000
                            Buckingham rho  0.32100000    Ang       
                            Buckingham C     14.530000    eV*Ang^6  
--------------------------------------------------------------------------------

********************************************************************************
*  Output for configuration   1                                                *
********************************************************************************


  Components of energy : 

--------------------------------------------------------------------------------
  Interatomic potentials     =           5.13022605 eV    
  Monopole - monopole (real) =         -10.03624526 eV    
  Monopole - monopole (recip)=         -29.53581274 eV    
  Monopole - monopole (total)=         -39.57205800 eV    
--------------------------------------------------------------------------------
  Total lattice energy       =         -34.44183194 eV    
--------------------------------------------------------------------------------
  Total lattice energy       =           -3323.1103 kJ/(mole unit cells)
--------------------------------------------------------------------------------


  Number of variables =        1

  Maximum number of calculations  =          1000
  Maximum Hessian update interval =            10
  Maximum step size               =   1.000000000
  Maximum parameter tolerance     =   0.000010000
  Maximum function  tolerance     =   0.000010000
  Maximum gradient  tolerance     =   0.001000000
  Maximum gradient  component     =   0.010000000

  Symmetry constrained optimisation

  Symmetry used for second derivatives

  Cell parameters to be optimised using strains

  Newton-Raphson optimiser to be used

  BFGS hessian update to be used

  Lower half triangular hessian to be used

  Start of bulk optimisation :

  Cycle:      0 Energy:       -34.441832  Gnorm:      0.196570  CPU:    0.026
  ** Hessian calculated **
  Cycle:      1 Energy:       -34.441914  Gnorm:      0.000103  CPU:    0.029


  **** Optimisation achieved ****


  Final energy =     -34.44191447 eV
  Final Gnorm  =       0.00000000

  Components of energy : 

--------------------------------------------------------------------------------
  Interatomic potentials     =           5.09689708 eV    
  Monopole - monopole (real) =         -10.02781331 eV    
  Monopole - monopole (recip)=         -29.51099824 eV    
  Monopole - monopole (total)=         -39.53881155 eV    
--------------------------------------------------------------------------------
  Total lattice energy       =         -34.44191447 eV    
--------------------------------------------------------------------------------
  Total lattice energy       =           -3323.1183 kJ/(mole unit cells)
--------------------------------------------------------------------------------

  Final asymmetric unit coordinates :

--------------------------------------------------------------------------------
   No.  Atomic        x           y           z         Radius
        Label       (Frac)      (Frac)      (Frac)       (Angs) 
--------------------------------------------------------------------------------
     1  Cl    c     0.000000    0.000000    0.000000    0.000000
     2  O     c     0.500000    0.500000    0.500000    0.000000
     3  Na    c     0.500000    0.500000    0.000000    0.000000
     4  Cl    s     0.000000    0.000000    0.000000    0.000000
     5  O     s     0.500000    0.500000    0.500000    0.000000
--------------------------------------------------------------------------------

  Final Cartesian lattice vectors (Angstroms) :

        4.507787    0.000000    0.000000
        0.000000    4.507787    0.000000
        0.000000    0.000000    4.507787


  Final cell parameters and derivatives :

--------------------------------------------------------------------------------
       a            4.507787 Angstrom     dE/de1(xx)     0.000000 eV/strain
       b            4.507787 Angstrom     dE/de2(yy)     0.000000 eV/strain
       c            4.507787 Angstrom     dE/de3(zz)     0.000000 eV/strain
       alpha       90.000000 Degrees      dE/de4(yz)     0.000000 eV/strain
       beta        90.000000 Degrees      dE/de5(xz)     0.000000 eV/strain
       gamma       90.000000 Degrees      dE/de6(xy)     0.000000 eV/strain
--------------------------------------------------------------------------------

  Primitive cell volume =            91.598892 Angs**3

  Density of cell =      2.183054 g/cm**3

  Non-primitive cell volume =            91.598892 Angs**3


  Final internal derivatives :

--------------------------------------------------------------------------------
   No.  Atomic          a             b             c           Radius
        Label          (eV)          (eV)          (eV)        (eV/Angs)
--------------------------------------------------------------------------------
      1 Cl    c       0.000000      0.000000      0.000000      0.000000
      2 O     c       0.000000      0.000000      0.000000      0.000000
      3 Na    c       0.000000      0.000000      0.000000      0.000000
      4 Cl    s       0.000000      0.000000      0.000000      0.000000
      5 O     s       0.000000      0.000000      0.000000      0.000000
--------------------------------------------------------------------------------
  Maximum abs         0.000000      0.000000      0.000000      0.000000
--------------------------------------------------------------------------------

  Comparison of initial and final structures : 

--------------------------------------------------------------------------------
  Parameter   Initial value   Final value   Difference    Units      Percent
--------------------------------------------------------------------------------
    Volume        91.368216     91.598892     0.230676    Angs**3      0.25
    a              4.504000      4.507787     0.003787    Angstroms    0.08
    b              4.504000      4.507787     0.003787    Angstroms    0.08
    c              4.504000      4.507787     0.003787    Angstroms    0.08
    alpha         90.000000     90.000000     0.000000    Degrees      0.00
    beta          90.000000     90.000000     0.000000    Degrees      0.00
    gamma         90.000000     90.000000     0.000000    Degrees      0.00
      1 x          0.000000      0.000000     0.000000    Fractional   0.00
      1 y          0.000000      0.000000     0.000000    Fractional   0.00
      1 z          0.000000      0.000000     0.000000    Fractional   0.00
      2 x          0.500000      0.500000     0.000000    Fractional   0.00
      2 y          0.500000      0.500000     0.000000    Fractional   0.00
      2 z          0.500000      0.500000     0.000000    Fractional   0.00
      3 x          0.500000      0.500000     0.000000    Fractional   0.00
      3 y          0.500000      0.500000     0.000000    Fractional   0.00
      3 z          0.000000      0.000000     0.000000    Fractional   0.00
      4 x          0.000000      0.000000     0.000000    Fractional   0.00
      4 y          0.000000      0.000000     0.000000    Fractional   0.00
      4 z          0.000000      0.000000     0.000000    Fractional   0.00
      5 x          0.500000      0.500000     0.000000    Fractional   0.00
      5 y          0.500000      0.500000     0.000000    Fractional   0.00
      5 z          0.500000      0.500000     0.000000    Fractional   0.00
--------------------------------------------------------------------------------


  Born effective charge tensors : 

-------------------------------------------------------------------------------
  Atom             x           y             z
-------------------------------------------------------------------------------
    1 Cl    x      -1.0181     -0.0000      0.0000
            y      -0.0000     -1.0181      0.0000
            z       0.0000      0.0000     -1.0181
-------------------------------------------------------------------------------
    2 O     x      -2.2647      0.0000     -0.0000
            y       0.0000     -2.2647     -0.0000
            z      -0.0000     -0.0000     -2.2647
-------------------------------------------------------------------------------
    3 Na    x       1.2258     -0.0000      0.0000
            y      -0.0000      1.2258     -0.0000
            z       0.0000     -0.0000      0.8313
-------------------------------------------------------------------------------




  Elastic Constant Matrix: (Units=GPa)

-------------------------------------------------------------------------------
  Indices      1         2         3         4         5         6    
-------------------------------------------------------------------------------
       1     95.8177   20.0737   20.0737   -0.0000   -0.0000    0.0000
       2     20.0737   95.8177   20.0737   -0.0000   -0.0000    0.0000
       3     20.0737   20.0737   95.8177   -0.0000   -0.0000    0.0000
       4     -0.0000   -0.0000   -0.0000   20.0737   -0.0000    0.0000
       5     -0.0000   -0.0000   -0.0000   -0.0000   20.0737    0.0000
       6      0.0000    0.0000    0.0000    0.0000    0.0000   20.0737
-------------------------------------------------------------------------------


  Elastic Compliance Matrix: (Units=1/GPa)

-------------------------------------------------------------------------------
  Indices      1         2         3         4         5         6    
-------------------------------------------------------------------------------
       1    0.011253 -0.001949 -0.001949  0.000000  0.000000 -0.000000
       2   -0.001949  0.011253 -0.001949  0.000000  0.000000  0.000000
       3   -0.001949 -0.001949  0.011253  0.000000  0.000000 -0.000000
       4    0.000000  0.000000  0.000000  0.049816  0.000000 -0.000000
       5    0.000000  0.000000  0.000000  0.000000  0.049816 -0.000000
       6   -0.000000  0.000000 -0.000000 -0.000000 -0.000000  0.049816
-------------------------------------------------------------------------------

  Mechanical properties :

-------------------------------------------------------------------------------
  Convention :                    Reuss         Voigt         Hill
-------------------------------------------------------------------------------
  Bulk  Modulus (GPa)     =      45.32174      45.32174      45.32174
  Shear Modulus (GPa)     =      24.72085      27.19304      25.95695
-------------------------------------------------------------------------------
  Velocity S-wave (km/s)  =       3.36511       3.52937       3.44822
  Velocity P-wave (km/s)  =       5.98827       6.11304       6.05098
-------------------------------------------------------------------------------
  Compressibility (1/GPa) =    0.02206447
-------------------------------------------------------------------------------
  Stress axis :                     x             y             z
-------------------------------------------------------------------------------
  Youngs Moduli (GPa)     =      88.86373      88.86373      88.86373
-------------------------------------------------------------------------------
  Poissons Ratio (x)      =                     0.17321       0.17321
  Poissons Ratio (y)      =       0.17321                     0.17321
  Poissons Ratio (z)      =       0.17321       0.17321
-------------------------------------------------------------------------------


  Piezoelectric Strain Matrix: (Units=C/m**2)

-------------------------------------------------------------------------------
  Indices      1         2         3         4         5         6    
-------------------------------------------------------------------------------
       x    -0.00000  -0.00000  -0.00000   0.00000  -0.00000  -0.00000
       y    -0.00000  -0.00000   0.00000  -0.00000   0.00000   0.00000
       z    -0.00000  -0.00000  -0.00000  -0.00000   0.00000   0.00000
-------------------------------------------------------------------------------


  Piezoelectric Stress Matrix: (Units=10**-11 C/N)

-------------------------------------------------------------------------------
  Indices      1         2         3         4         5         6    
-------------------------------------------------------------------------------
       x    -0.00000   0.00000   0.00000   0.00000  -0.00000  -0.00000
       y    -0.00000  -0.00000   0.00000  -0.00000   0.00000   0.00000
       z     0.00000   0.00000  -0.00000  -0.00000   0.00000   0.00000
-------------------------------------------------------------------------------


  Static dielectric constant tensor : 

-------------------------------------------------------------------------------
              x         y         z
-------------------------------------------------------------------------------
       x    22.84729   0.00000   0.00000
       y     0.00000  22.84729  -0.00000
       z     0.00000  -0.00000  22.84729
--------------------------------------------------------------------------------

  High frequency dielectric constant tensor : 

-------------------------------------------------------------------------------
              x         y         z
-------------------------------------------------------------------------------
       x     1.47557   0.00000  -0.00000
       y     0.00000   1.47557  -0.00000
       z    -0.00000  -0.00000   1.47557
-------------------------------------------------------------------------------

  Static refractive indices : 

-------------------------------------------------------------------------------
    1 =    4.77988      2 =    4.77988      3 =    4.77988
-------------------------------------------------------------------------------

  High frequency refractive indices : 

-------------------------------------------------------------------------------
    1 =    1.21473      2 =    1.21473      3 =    1.21473
-------------------------------------------------------------------------------


  Time to end of optimisation =       0.0340 seconds

********************************************************************************
*  Defect calculation for configuration   1 :                                  *
********************************************************************************

  Total number of defects =      3

  Total charge on defect  =  -1.00

  Defect centre is at   0.5000   0.2750   0.2250  Frac

  Region 1 radius =  20.0000      Number of ions =   2575

  Number of symmetry inequivalent region 1 ions  =   1413

  Region 2 radius =  24.0000      Number of ions =   1861

  Number of symmetry inequivalent region 2a ions =    983

  Region 2a mode = 4 : screened electrostatics due to region 1 
                       neglect correction to region 1 forces from 2a
                       region 2a displacements based on defects only

  Region 2a ions will only interact with defects in region 1

  Vacancies:

--------------------------------------------------------------------------------
    Specification type     Symbol/Number         x          y          z
--------------------------------------------------------------------------------
    Fractional                               0.500000   0.500000   0.000000
    Fractional                               0.500000   0.000000   0.500000
--------------------------------------------------------------------------------

  Interstitials:

--------------------------------------------------------------------------------
    Specification type     Symbol/Number         x          y          z
--------------------------------------------------------------------------------
    Atom/Fractional         Na               0.500000   0.275000   0.225000
--------------------------------------------------------------------------------


  Symmetry reduced region 1 (Relative to defect centre) :

--------------------------------------------------------------------------------
   No.   Atomic       x            y             z       Radius  Multiplicity   
         Label      (Angs)       (Angs)        (Angs)    (Angs)     
--------------------------------------------------------------------------------
     1  Na    c      0.0000       0.0000       0.0000    0.0000     1    Defect
     2  O     c      0.0000       1.0143 *     1.2396 *  0.0000     1          
     3  Cl    c      2.2539 *    -1.2396 *    -1.0143 *  0.0000     2          
     4  Na    c      2.2539 *     1.0143 *     1.2396 *  0.0000     2          
     5  O     c      0.0000       1.0143 *    -3.2681 *  0.0000     1          
     6  Na    c      0.0000      -1.2396 *    -3.2681 *  0.0000     1          
     7  Na    c      0.0000       3.2681 *     1.2396 *  0.0000     1          
     8  Na    c      0.0000       1.0143 *     3.4935 *  0.0000     1          
     9  Na    c      0.0000      -3.4935 *    -1.0143 *  0.0000     1          
    10  O     c      0.0000      -3.4935 *     1.2396 *  0.0000     1          
    11  Na    c      2.2539 *     1.0143 *    -3.2681 *  0.0000     2          
    12  Cl    c      2.2539 *     3.2681 *    -1.0143 *  0.0000     2          
    13  Cl    c      2.2539 *    -1.2396 *     3.4935 *  0.0000     2          
    14  Na    c      2.2539 *    -3.4935 *     1.2396 *  0.0000     2          
    15  Na    c      0.0000       3.2681 *    -3.2681 *  0.0000     1          
    16  Na    c     -4.5078 *     1.0143 *    -1.0143 *  0.0000     2          
    17  O     c      0.0000      -3.4935 *    -3.2681 *  0.0000     1          
    18  O     c     -4.5078 *     1.0143 *     1.2396 *  0.0000     2          
    19  Na    c     -4.5078 *    -1.2396 *     1.2396 *  0.0000     2          
    20  Na    c      0.0000      -3.4935 *     3.4935 *  0.0000     1          
    21  Cl    c      2.2539 *     3.2681 *     3.4935 *  0.0000     2          
    22  Na    c      2.2539 *    -3.4935 *    -3.2681 *  0.0000     2          
    23  Na    c      0.0000       5.5220 *    -1.0143 *  0.0000     1          
    24  Na    c      0.0000       1.0143 *    -5.5220 *  0.0000     1          
    25  O     c      0.0000       5.5220 *     1.2396 *  0.0000     1          
    26  O     c     -4.5078 *     1.0143 *    -3.2681 *  0.0000     2          
    27  Na    c     -4.5078 *    -1.2396 *    -3.2681 *  0.0000     2          
    28  Na    c     -4.5078 *     3.2681 *     1.2396 *  0.0000     2          
    29  Na    c     -4.5078 *     1.0143 *     3.4935 *  0.0000     2          
    30  Na    c     -4.5078 *    -3.4935 *    -1.0143 *  0.0000     2          
    31  O     c      0.0000       1.0143 *     5.7474 *  0.0000     1          
    32  O     c     -4.5078 *    -3.4935 *     1.2396 *  0.0000     2          
    33  Na    c      0.0000      -1.2396 *     5.7474 *  0.0000     1          
    34  Na    c      0.0000      -5.7474 *     1.2396 *  0.0000     1          
    35  Na    c      2.2539 *     5.5220 *     1.2396 *  0.0000     2          
    36  Cl    c      2.2539 *    -1.2396 *    -5.5220 *  0.0000     2          
    37  Cl    c      2.2539 *    -5.7474 *    -1.0143 *  0.0000     2          
    38  Na    c      2.2539 *     1.0143 *     5.7474 *  0.0000     2          
    39  O     c      0.0000       5.5220 *    -3.2681 *  0.0000     1          
    40  Na    c     -4.5078 *     3.2681 *    -3.2681 *  0.0000     2          
    41  Na    c      0.0000       5.5220 *     3.4935 *  0.0000     1          
    42  Na    c      0.0000      -3.4935 *    -5.5220 *  0.0000     1          
    43  O     c     -4.5078 *    -3.4935 *    -3.2681 *  0.0000     2          
    44  Na    c      0.0000       3.2681 *     5.7474 *  0.0000     1          
    45  Na    c      0.0000      -5.7474 *    -3.2681 *  0.0000     1          
    46  Na    c     -4.5078 *    -3.4935 *     3.4935 *  0.0000     2          
    47  O     c      0.0000      -3.4935 *     5.7474 *  0.0000     1          
    48  Na    c      2.2539 *     5.5220 *    -3.2681 *  0.0000     2          
    49  Cl    c      2.2539 *     3.2681 *    -5.5220 *  0.0000     2          
    50  Cl    c      6.7617 *    -1.2396 *    -1.0143 *  0.0000     2          
    51  Na    c      6.7617 *     1.0143 *     1.2396 *  0.0000     2          
    52  Cl    c      2.2539 *    -5.7474 *     3.4935 *  0.0000     2          
    53  Na    c      2.2539 *    -3.4935 *     5.7474 *  0.0000     2          
    54  Na    c     -4.5078 *     5.5220 *    -1.0143 *  0.0000     2          
    55  Na    c      4.5078 *     1.0143 *    -5.5220 *  0.0000     2          
    56  O     c     -4.5078 *     5.5220 *     1.2396 *  0.0000     2          
    57  O     c     -4.5078 *     1.0143 *     5.7474 *  0.0000     2          
    58  Na    c     -4.5078 *    -1.2396 *     5.7474 *  0.0000     2          
    59  Na    c      4.5078 *    -5.7474 *     1.2396 *  0.0000     2          
    60  Cl    c      6.7617 *     3.2681 *    -1.0143 *  0.0000     2          
    61  Na    c      6.7617 *     1.0143 *    -3.2681 *  0.0000     2          
    62  Cl    c      6.7617 *    -1.2396 *     3.4935 *  0.0000     2          
    63  Na    c      6.7617 *    -3.4935 *     1.2396 *  0.0000     2          
    64  Na    c      0.0000       5.5220 *    -5.5220 *  0.0000     1          
    65  O     c     -4.5078 *     5.5220 *    -3.2681 *  0.0000     2          
    66  O     c      0.0000       1.0143 *    -7.7759 *  0.0000     1          
    67  Na    c      0.0000      -1.2396 *    -7.7759 *  0.0000     1          
    68  Na    c      0.0000       7.7759 *     1.2396 *  0.0000     1          
    69  Na    c     -4.5078 *     5.5220 *     3.4935 *  0.0000     2          
    70  Na    c     -4.5078 *    -3.4935 *    -5.5220 *  0.0000     2          
    71  O     c      0.0000       5.5220 *     5.7474 *  0.0000     1          
    72  Na    c      4.5078 *     3.2681 *     5.7474 *  0.0000     2          
    73  Na    c      4.5078 *    -5.7474 *    -3.2681 *  0.0000     2          
    74  Na    c      0.0000       1.0143 *     8.0013 *  0.0000     1          
    75  Na    c      0.0000      -8.0013 *    -1.0143 *  0.0000     1          
    76  O     c      0.0000      -8.0013 *     1.2396 *  0.0000     1          
    77  O     c     -4.5078 *    -3.4935 *     5.7474 *  0.0000     2          
    78  Na    c      0.0000      -5.7474 *     5.7474 *  0.0000     1          
    79  Cl    c      2.2539 *     7.7759 *    -1.0143 *  0.0000     2          
    80  Na    c      2.2539 *     1.0143 *    -7.7759 *  0.0000     2          
    81  Cl    c      2.2539 *    -5.7474 *    -5.5220 *  0.0000     2          
    82  Cl    c      6.7617 *     3.2681 *     3.4935 *  0.0000     2          
    83  Na    c      2.2539 *     5.5220 *     5.7474 *  0.0000     2          
    84  Na    c      6.7617 *    -3.4935 *    -3.2681 *  0.0000     2          
    85  Cl    c      2.2539 *    -1.2396 *     8.0013 *  0.0000     2          
    86  Na    c      2.2539 *    -8.0013 *     1.2396 *  0.0000     2          
    87  Na    c      0.0000       3.2681 *    -7.7759 *  0.0000     1          
    88  Na    c      0.0000       7.7759 *    -3.2681 *  0.0000     1          
    89  O     c      0.0000      -3.4935 *    -7.7759 *  0.0000     1          
    90  O     c      0.0000      -8.0013 *    -3.2681 *  0.0000     1          
    91  Na    c      0.0000      -3.4935 *     8.0013 *  0.0000     1          
    92  Na    c      0.0000      -8.0013 *     3.4935 *  0.0000     1          
    93  Cl    c      2.2539 *     7.7759 *     3.4935 *  0.0000     2          
    94  Na    c      2.2539 *    -3.4935 *    -7.7759 *  0.0000     2          
    95  Na    c      6.7617 *     5.5220 *     1.2396 *  0.0000     2          
    96  Cl    c      6.7617 *    -1.2396 *    -5.5220 *  0.0000     2          
    97  Cl    c      2.2539 *     3.2681 *     8.0013 *  0.0000     2          
    98  Na    c      2.2539 *    -8.0013 *    -3.2681 *  0.0000     2          
    99  Cl    c      6.7617 *    -5.7474 *    -1.0143 *  0.0000     2          
   100  Na    c      6.7617 *     1.0143 *     5.7474 *  0.0000     2          
   101  Na    c     -4.5078 *     5.5220 *    -5.5220 *  0.0000     2          
   102  O     c     -4.5078 *     1.0143 *    -7.7759 *  0.0000     2          
   103  Na    c     -4.5078 *     7.7759 *     1.2396 *  0.0000     2          
   104  Na    c      4.5078 *    -1.2396 *    -7.7759 *  0.0000     2          
   105  Na    c      9.0156 *     1.0143 *    -1.0143 *  0.0000     2          
   106  O     c      4.5078 *     5.5220 *     5.7474 *  0.0000     2          
   107  O     c      9.0156 *     1.0143 *     1.2396 *  0.0000     2          
   108  Na    c      9.0156 *    -1.2396 *     1.2396 *  0.0000     2          
   109  Na    c     -4.5078 *     1.0143 *     8.0013 *  0.0000     2          
   110  Na    c     -4.5078 *    -8.0013 *    -1.0143 *  0.0000     2          
   111  O     c     -4.5078 *    -8.0013 *     1.2396 *  0.0000     2          
   112  Na    c      4.5078 *    -5.7474 *     5.7474 *  0.0000     2          
   113  Na    c      6.7617 *     5.5220 *    -3.2681 *  0.0000     2          
   114  Cl    c      6.7617 *     3.2681 *    -5.5220 *  0.0000     2          
   115  Cl    c      6.7617 *    -5.7474 *     3.4935 *  0.0000     2          
   116  O     c      0.0000       5.5220 *    -7.7759 *  0.0000     1          
   117  Na    c      6.7617 *    -3.4935 *     5.7474 *  0.0000     2          
   118  Na    c     -4.5078 *     3.2681 *    -7.7759 *  0.0000     2          
   119  Na    c     -4.5078 *     7.7759 *    -3.2681 *  0.0000     2          
   120  O     c     -4.5078 *    -3.4935 *    -7.7759 *  0.0000     2          
   121  O     c      9.0156 *     1.0143 *    -3.2681 *  0.0000     2          
   122  Na    c      0.0000       7.7759 *     5.7474 *  0.0000     1          
   123  Na    c      0.0000      -5.7474 *    -7.7759 *  0.0000     1          
   124  Na    c      9.0156 *    -1.2396 *    -3.2681 *  0.0000     2          
   125  Na    c      9.0156 *     3.2681 *     1.2396 *  0.0000     2          
   126  Na    c      0.0000       5.5220 *     8.0013 *  0.0000     1          
   127  Na    c      0.0000      -8.0013 *    -5.5220 *  0.0000     1          
   128  Na    c      9.0156 *     1.0143 *     3.4935 *  0.0000     2          
   129  Na    c      9.0156 *    -3.4935 *    -1.0143 *  0.0000     2          
   130  O     c     -4.5078 *    -8.0013 *    -3.2681 *  0.0000     2          
   131  O     c      9.0156 *    -3.4935 *     1.2396 *  0.0000     2          
   132  Na    c      2.2539 *     5.5220 *    -7.7759 *  0.0000     2          
   133  Cl    c      2.2539 *     7.7759 *    -5.5220 *  0.0000     2          
   134  Na    c     -4.5078 *    -3.4935 *     8.0013 *  0.0000     2          
   135  Na    c     -4.5078 *    -8.0013 *     3.4935 *  0.0000     2          
   136  O     c      0.0000      -8.0013 *     5.7474 *  0.0000     1          
   137  Na    c      0.0000      10.0298 *    -1.0143 *  0.0000     1          
   138  Na    c      0.0000       1.0143 *   -10.0298 *  0.0000     1          
   139  O     c      0.0000      10.0298 *     1.2396 *  0.0000     1          
   140  Cl    c      2.2539 *    -5.7474 *     8.0013 *  0.0000     2          
   141  Na    c      2.2539 *    -8.0013 *     5.7474 *  0.0000     2          
   142  Na    c      9.0156 *     3.2681 *    -3.2681 *  0.0000     2          
   143  O     c      9.0156 *    -3.4935 *    -3.2681 *  0.0000     2          
   144  Na    c      9.0156 *    -3.4935 *     3.4935 *  0.0000     2          
   145  O     c      0.0000       1.0143 *    10.2552 *  0.0000     1          
   146  Na    c      0.0000      -1.2396 *    10.2552 *  0.0000     1          
   147  Na    c      0.0000     -10.2552 *     1.2396 *  0.0000     1          
   148  Na    c      2.2539 *    10.0298 *     1.2396 *  0.0000     2          
   149  Cl    c      2.2539 *    -1.2396 *   -10.0298 *  0.0000     2          
   150  Cl    c      6.7617 *     7.7759 *    -1.0143 *  0.0000     2          
   151  Na    c      6.7617 *     1.0143 *    -7.7759 *  0.0000     2          
   152  Na    c      6.7617 *     5.5220 *     5.7474 *  0.0000     2          
   153  Cl    c      6.7617 *    -5.7474 *    -5.5220 *  0.0000     2          
   154  O     c      0.0000      10.0298 *    -3.2681 *  0.0000     1          
   155  Cl    c      2.2539 *   -10.2552 *    -1.0143 *  0.0000     2          
   156  Na    c      2.2539 *     1.0143 *    10.2552 *  0.0000     2          
   157  O     c     -4.5078 *     5.5220 *    -7.7759 *  0.0000     2          
   158  Na    c      6.7617 *    -8.0013 *     1.2396 *  0.0000     2          
   159  Cl    c      6.7617 *    -1.2396 *     8.0013 *  0.0000     2          
   160  Na    c      0.0000      10.0298 *     3.4935 *  0.0000     1          
   161  Na    c      0.0000      -3.4935 *   -10.0298 *  0.0000     1          
   162  Na    c      9.0156 *     5.5220 *    -1.0143 *  0.0000     2          
   163  Na    c      9.0156 *     1.0143 *    -5.5220 *  0.0000     2          
   164  O     c      9.0156 *     5.5220 *     1.2396 *  0.0000     2          
   165  Na    c     -4.5078 *     7.7759 *     5.7474 *  0.0000     2          
   166  Na    c      4.5078 *    -5.7474 *    -7.7759 *  0.0000     2          
   167  Na    c     -4.5078 *     5.5220 *     8.0013 *  0.0000     2          
   168  Na    c     -4.5078 *    -8.0013 *    -5.5220 *  0.0000     2          
   169  O     c      9.0156 *     1.0143 *     5.7474 *  0.0000     2          
   170  Na    c      0.0000       3.2681 *    10.2552 *  0.0000     1          
   171  Na    c      0.0000     -10.2552 *    -3.2681 *  0.0000     1          
   172  Na    c      9.0156 *    -1.2396 *     5.7474 *  0.0000     2          
   173  Na    c      9.0156 *    -5.7474 *     1.2396 *  0.0000     2          
   174  Na    c      2.2539 *    10.0298 *    -3.2681 *  0.0000     2          
   175  Cl    c      2.2539 *     3.2681 *   -10.0298 *  0.0000     2          
   176  O     c      0.0000      -3.4935 *    10.2552 *  0.0000     1          
   177  O     c     -4.5078 *    -8.0013 *     5.7474 *  0.0000     2          
   178  Cl    c      6.7617 *     7.7759 *     3.4935 *  0.0000     2          
   179  Na    c      6.7617 *    -3.4935 *    -7.7759 *  0.0000     2          
   180  Cl    c      6.7617 *     3.2681 *     8.0013 *  0.0000     2          
   181  Na    c      6.7617 *    -8.0013 *    -3.2681 *  0.0000     2          
   182  Na    c      0.0000       7.7759 *    -7.7759 *  0.0000     1          
   183  Na    c     -4.5078 *    10.0298 *    -1.0143 *  0.0000     2          
   184  Na    c      4.5078 *     1.0143 *   -10.0298 *  0.0000     2          
   185  O     c     -4.5078 *    10.0298 *     1.2396 *  0.0000     2          
   186  Cl    c      2.2539 *   -10.2552 *     3.4935 *  0.0000     2          
   187  Na    c      2.2539 *    -3.4935 *    10.2552 *  0.0000     2          
   188  O     c      9.0156 *     5.5220 *    -3.2681 *  0.0000     2          
   189  Na    c      9.0156 *     5.5220 *     3.4935 *  0.0000     2          
   190  Na    c      9.0156 *    -3.4935 *    -5.5220 *  0.0000     2          
   191  O     c      0.0000      -8.0013 *    -7.7759 *  0.0000     1          
   192  Na    c      9.0156 *     3.2681 *     5.7474 *  0.0000     2          
   193  Na    c      9.0156 *    -5.7474 *    -3.2681 *  0.0000     2          
   194  O     c      4.5078 *     1.0143 *    10.2552 *  0.0000     2          
   195  O     c      9.0156 *    -3.4935 *     5.7474 *  0.0000     2          
   196  Na    c      4.5078 *    -1.2396 *    10.2552 *  0.0000     2          
   197  Na    c      4.5078 *   -10.2552 *     1.2396 *  0.0000     2          
   198  Na    c      0.0000      -8.0013 *     8.0013 *  0.0000     1          
   199  Cl    c      2.2539 *     7.7759 *     8.0013 *  0.0000     2          
   200  Cl    c     11.2695 *    -1.2396 *    -1.0143 *  0.0000     2          
   201  Na    c      2.2539 *    -8.0013 *    -7.7759 *  0.0000     2          
   202  Na    c     11.2695 *     1.0143 *     1.2396 *  0.0000     2          
   203  Na    c      0.0000      10.0298 *    -5.5220 *  0.0000     1          
   204  Na    c      0.0000       5.5220 *   -10.0298 *  0.0000     1          
   205  O     c     -4.5078 *    10.0298 *    -3.2681 *  0.0000     2          
   206  Na    c     -4.5078 *    10.0298 *     3.4935 *  0.0000     2          
   207  Na    c      4.5078 *    -3.4935 *   -10.0298 *  0.0000     2          
   208  O     c      0.0000      10.0298 *     5.7474 *  0.0000     1          
   209  O     c      0.0000       5.5220 *    10.2552 *  0.0000     1          
   210  Na    c      4.5078 *     3.2681 *    10.2552 *  0.0000     2          
   211  Na    c      4.5078 *   -10.2552 *    -3.2681 *  0.0000     2          
   212  Cl    c      6.7617 *     7.7759 *    -5.5220 *  0.0000     2          
   213  Na    c      6.7617 *     5.5220 *    -7.7759 *  0.0000     2          
   214  O     c      4.5078 *    -3.4935 *    10.2552 *  0.0000     2          
   215  Na    c      0.0000      -5.7474 *    10.2552 *  0.0000     1          
   216  Na    c      0.0000     -10.2552 *     5.7474 *  0.0000     1          
   217  Na    c      2.2539 *    10.0298 *     5.7474 *  0.0000     2          
   218  Cl    c     11.2695 *     3.2681 *    -1.0143 *  0.0000     2          
   219  Na    c     11.2695 *     1.0143 *    -3.2681 *  0.0000     2          
   220  Cl    c      2.2539 *    -5.7474 *   -10.0298 *  0.0000     2          
   221  Cl    c      2.2539 *   -10.2552 *    -5.5220 *  0.0000     2          
   222  Na    c      2.2539 *     5.5220 *    10.2552 *  0.0000     2          
   223  Cl    c     11.2695 *    -1.2396 *     3.4935 *  0.0000     2          
   224  Na    c     11.2695 *    -3.4935 *     1.2396 *  0.0000     2          
   225  Na    c     -4.5078 *     7.7759 *    -7.7759 *  0.0000     2          
   226  Na    c      9.0156 *     5.5220 *    -5.5220 *  0.0000     2          
   227  Cl    c      6.7617 *    -5.7474 *     8.0013 *  0.0000     2          
   228  O     c      9.0156 *     1.0143 *    -7.7759 *  0.0000     2          
   229  Na    c      6.7617 *    -8.0013 *     5.7474 *  0.0000     2          
   230  Na    c      9.0156 *    -1.2396 *    -7.7759 *  0.0000     2          
   231  Na    c      9.0156 *     7.7759 *     1.2396 *  0.0000     2          
   232  O     c      9.0156 *     5.5220 *     5.7474 *  0.0000     2          
   233  O     c     -4.5078 *    -8.0013 *    -7.7759 *  0.0000     2          
   234  Na    c      9.0156 *     1.0143 *     8.0013 *  0.0000     2          
   235  Na    c      9.0156 *    -8.0013 *    -1.0143 *  0.0000     2          
   236  O     c      9.0156 *    -8.0013 *     1.2396 *  0.0000     2          
   237  Na    c      9.0156 *    -5.7474 *     5.7474 *  0.0000     2          
   238  Na    c      6.7617 *    10.0298 *     1.2396 *  0.0000     2          
   239  Cl    c      6.7617 *    -1.2396 *   -10.0298 *  0.0000     2          
   240  Na    c     -4.5078 *    -8.0013 *     8.0013 *  0.0000     2          
   241  Cl    c     11.2695 *     3.2681 *     3.4935 *  0.0000     2          
   242  Na    c     11.2695 *    -3.4935 *    -3.2681 *  0.0000     2          
   243  Na    c      4.5078 *    10.0298 *    -5.5220 *  0.0000     2          
   244  Na    c     -4.5078 *     5.5220 *   -10.0298 *  0.0000     2          
   245  Cl    c      6.7617 *   -10.2552 *    -1.0143 *  0.0000     2          
   246  Na    c      6.7617 *     1.0143 *    10.2552 *  0.0000     2          
   247  O     c      0.0000       1.0143 *   -12.2837 *  0.0000     1          
   248  Na    c      0.0000      -1.2396 *   -12.2837 *  0.0000     1          
   249  Na    c      0.0000      12.2837 *     1.2396 *  0.0000     1          
   250  Na    c      9.0156 *     3.2681 *    -7.7759 *  0.0000     2          
   251  Na    c      9.0156 *     7.7759 *    -3.2681 *  0.0000     2          
   252  O     c     -4.5078 *    10.0298 *     5.7474 *  0.0000     2          
   253  O     c      9.0156 *    -3.4935 *    -7.7759 *  0.0000     2          
   254  O     c      4.5078 *     5.5220 *    10.2552 *  0.0000     2          
   255  O     c      9.0156 *    -8.0013 *    -3.2681 *  0.0000     2          
   256  Na    c      6.7617 *    10.0298 *    -3.2681 *  0.0000     2          
   257  Cl    c      2.2539 *    12.2837 *    -1.0143 *  0.0000     2          
   258  Na    c      2.2539 *     1.0143 *   -12.2837 *  0.0000     2          
   259  Cl    c      6.7617 *     3.2681 *   -10.0298 *  0.0000     2          
   260  Na    c      0.0000       1.0143 *    12.5091 *  0.0000     1          
   261  Na    c      0.0000     -12.5091 *    -1.0143 *  0.0000     1          
   262  Na    c      9.0156 *    -3.4935 *     8.0013 *  0.0000     2          
   263  Na    c      9.0156 *    -8.0013 *     3.4935 *  0.0000     2          
   264  O     c      0.0000     -12.5091 *     1.2396 *  0.0000     1          
   265  Na    c      4.5078 *    -5.7474 *    10.2552 *  0.0000     2          
   266  Na    c      4.5078 *   -10.2552 *     5.7474 *  0.0000     2          
   267  Cl    c     11.2695 *    -1.2396 *    -5.5220 *  0.0000     2          
   268  Na    c     11.2695 *     5.5220 *     1.2396 *  0.0000     2          
   269  O     c      0.0000      10.0298 *    -7.7759 *  0.0000     1          
   270  Cl    c     11.2695 *    -5.7474 *    -1.0143 *  0.0000     2          
   271  Na    c     11.2695 *     1.0143 *     5.7474 *  0.0000     2          
   272  Na    c      0.0000       3.2681 *   -12.2837 *  0.0000     1          
   273  Na    c      0.0000      12.2837 *    -3.2681 *  0.0000     1          
   274  Cl    c      6.7617 *   -10.2552 *     3.4935 *  0.0000     2          
   275  Na    c      6.7617 *    -3.4935 *    10.2552 *  0.0000     2          
   276  Cl    c      2.2539 *    -1.2396 *    12.5091 *  0.0000     2          
   277  O     c      0.0000      -3.4935 *   -12.2837 *  0.0000     1          
   278  Na    c      2.2539 *   -12.5091 *     1.2396 *  0.0000     2          
   279  Na    c      0.0000      10.0298 *     8.0013 *  0.0000     1          
   280  Na    c      0.0000      -8.0013 *   -10.0298 *  0.0000     1          
   281  Na    c      0.0000       7.7759 *    10.2552 *  0.0000     1          
   282  Na    c      0.0000     -10.2552 *    -7.7759 *  0.0000     1          
   283  Na    c      2.2539 *    10.0298 *    -7.7759 *  0.0000     2          
   284  Cl    c      2.2539 *     7.7759 *   -10.0298 *  0.0000     2          
   285  O     c      0.0000     -12.5091 *    -3.2681 *  0.0000     1          
   286  Cl    c     11.2695 *     3.2681 *    -5.5220 *  0.0000     2          
   287  Na    c     11.2695 *     5.5220 *    -3.2681 *  0.0000     2          
   288  Cl    c      2.2539 *    12.2837 *     3.4935 *  0.0000     2          
   289  Na    c      2.2539 *    -3.4935 *   -12.2837 *  0.0000     2          
   290  Na    c      0.0000      -3.4935 *    12.5091 *  0.0000     1          
   291  Na    c      0.0000     -12.5091 *     3.4935 *  0.0000     1          
   292  O     c      0.0000      -8.0013 *    10.2552 *  0.0000     1          
   293  Cl    c      6.7617 *     7.7759 *     8.0013 *  0.0000     2          
   294  Na    c      6.7617 *    -8.0013 *    -7.7759 *  0.0000     2          
   295  Cl    c      2.2539 *     3.2681 *    12.5091 *  0.0000     2          
   296  Cl    c     11.2695 *    -5.7474 *     3.4935 *  0.0000     2          
   297  O     c      4.5078 *     1.0143 *   -12.2837 *  0.0000     2          
   298  O     c      9.0156 *     5.5220 *    -7.7759 *  0.0000     2          
   299  Na    c      2.2539 *   -12.5091 *    -3.2681 *  0.0000     2          
   300  Na    c     11.2695 *    -3.4935 *     5.7474 *  0.0000     2          
   301  Na    c      4.5078 *    -1.2396 *   -12.2837 *  0.0000     2          
   302  Na    c      4.5078 *    12.2837 *     1.2396 *  0.0000     2          
   303  Cl    c      2.2539 *   -10.2552 *     8.0013 *  0.0000     2          
   304  Na    c      2.2539 *    -8.0013 *    10.2552 *  0.0000     2          
   305  Na    c      9.0156 *    -5.7474 *    -7.7759 *  0.0000     2          
   306  Na    c      9.0156 *     7.7759 *     5.7474 *  0.0000     2          
   307  Na    c      9.0156 *     5.5220 *     8.0013 *  0.0000     2          
   308  Na    c      9.0156 *    -8.0013 *    -5.5220 *  0.0000     2          
   309  Na    c      4.5078 *     1.0143 *    12.5091 *  0.0000     2          
   310  Na    c      4.5078 *   -12.5091 *    -1.0143 *  0.0000     2          
   311  O     c      4.5078 *   -12.5091 *     1.2396 *  0.0000     2          
   312  O     c      9.0156 *    -8.0013 *     5.7474 *  0.0000     2          
   313  Na    c      6.7617 *    10.0298 *     5.7474 *  0.0000     2          
   314  Cl    c      6.7617 *    -5.7474 *   -10.0298 *  0.0000     2          
   315  Cl    c      6.7617 *   -10.2552 *    -5.5220 *  0.0000     2          
   316  O     c     -4.5078 *    10.0298 *    -7.7759 *  0.0000     2          
   317  O     c      0.0000       5.5220 *   -12.2837 *  0.0000     1          
   318  Na    c      6.7617 *     5.5220 *    10.2552 *  0.0000     2          
   319  Na    c      4.5078 *     3.2681 *   -12.2837 *  0.0000     2          
   320  Na    c      4.5078 *    12.2837 *    -3.2681 *  0.0000     2          
   321  Na    c      9.0156 *    10.0298 *    -1.0143 *  0.0000     2          
   322  Na    c      9.0156 *     1.0143 *   -10.0298 *  0.0000     2          
   323  O     c      9.0156 *    10.0298 *     1.2396 *  0.0000     2          
   324  O     c      4.5078 *    -3.4935 *   -12.2837 *  0.0000     2          
   325  Na    c      0.0000      12.2837 *     5.7474 *  0.0000     1          
   326  Na    c      0.0000      -5.7474 *   -12.2837 *  0.0000     1          
   327  Na    c     -4.5078 *    10.0298 *     8.0013 *  0.0000     2          
   328  Na    c     -4.5078 *    -8.0013 *   -10.0298 *  0.0000     2          
   329  Na    c     13.5234 *     1.0143 *    -1.0143 *  0.0000     2          
   330  O     c     13.5234 *     1.0143 *     1.2396 *  0.0000     2          
   331  Na    c      4.5078 *     7.7759 *    10.2552 *  0.0000     2          
   332  Na    c      4.5078 *   -10.2552 *    -7.7759 *  0.0000     2          
   333  Na    c     13.5234 *    -1.2396 *     1.2396 *  0.0000     2          
   334  Cl    c      2.2539 *    12.2837 *    -5.5220 *  0.0000     2          
   335  Na    c      2.2539 *     5.5220 *   -12.2837 *  0.0000     2          
   336  Na    c      0.0000       5.5220 *    12.5091 *  0.0000     1          
   337  Na    c      0.0000     -12.5091 *    -5.5220 *  0.0000     1          
   338  O     c      9.0156 *     1.0143 *    10.2552 *  0.0000     2          
   339  O     c      4.5078 *   -12.5091 *    -3.2681 *  0.0000     2          
   340  Na    c      9.0156 *    -1.2396 *    10.2552 *  0.0000     2          
   341  Na    c      9.0156 *   -10.2552 *     1.2396 *  0.0000     2          
   342  Na    c     11.2695 *     1.0143 *    -7.7759 *  0.0000     2          
   343  Cl    c     11.2695 *     7.7759 *    -1.0143 *  0.0000     2          
   344  Na    c      4.5078 *    -3.4935 *    12.5091 *  0.0000     2          
   345  Na    c      4.5078 *   -12.5091 *     3.4935 *  0.0000     2          
   346  O     c      4.5078 *    -8.0013 *    10.2552 *  0.0000     2          
   347  O     c      0.0000     -12.5091 *     5.7474 *  0.0000     1          
   348  Cl    c     11.2695 *    -5.7474 *    -5.5220 *  0.0000     2          
   349  Na    c     11.2695 *     5.5220 *     5.7474 *  0.0000     2          
   350  O     c      9.0156 *    10.0298 *    -3.2681 *  0.0000     2          
   351  Cl    c     11.2695 *    -1.2396 *     8.0013 *  0.0000     2          
   352  Na    c     11.2695 *    -8.0013 *     1.2396 *  0.0000     2          
   353  Na    c      9.0156 *    10.0298 *     3.4935 *  0.0000     2          
   354  Na    c      9.0156 *    -3.4935 *   -10.0298 *  0.0000     2          
   355  Cl    c      2.2539 *    -5.7474 *    12.5091 *  0.0000     2          
   356  Na    c      2.2539 *   -12.5091 *     5.7474 *  0.0000     2          
   357  O     c     13.5234 *     1.0143 *    -3.2681 *  0.0000     2          
   358  Na    c     13.5234 *    -1.2396 *    -3.2681 *  0.0000     2          
   359  Na    c     13.5234 *     3.2681 *     1.2396 *  0.0000     2          
   360  Na    c     13.5234 *     1.0143 *     3.4935 *  0.0000     2          
   361  Na    c     13.5234 *    -3.4935 *    -1.0143 *  0.0000     2          
   362  O     c     13.5234 *    -3.4935 *     1.2396 *  0.0000     2          
   363  Na    c      9.0156 *     3.2681 *    10.2552 *  0.0000     2          
   364  Na    c      9.0156 *   -10.2552 *    -3.2681 *  0.0000     2          
   365  Cl    c      6.7617 *    12.2837 *    -1.0143 *  0.0000     2          
   366  Na    c      6.7617 *     1.0143 *   -12.2837 *  0.0000     2          
   367  O     c      9.0156 *    -3.4935 *    10.2552 *  0.0000     2          
   368  Na    c     11.2695 *    -3.4935 *    -7.7759 *  0.0000     2          
   369  Cl    c     11.2695 *     7.7759 *     3.4935 *  0.0000     2          
   370  Na    c      0.0000      10.0298 *   -10.0298 *  0.0000     1          
   371  Cl    c     11.2695 *     3.2681 *     8.0013 *  0.0000     2          
   372  O     c      4.5078 *     5.5220 *   -12.2837 *  0.0000     2          
   373  Na    c     11.2695 *    -8.0013 *    -3.2681 *  0.0000     2          
   374  Na    c      9.0156 *     7.7759 *    -7.7759 *  0.0000     2          
   375  Cl    c      6.7617 *    -1.2396 *    12.5091 *  0.0000     2          
   376  Na    c      6.7617 *   -12.5091 *     1.2396 *  0.0000     2          
   377  Na    c      4.5078 *    12.2837 *     5.7474 *  0.0000     2          
   378  Na    c      4.5078 *    -5.7474 *   -12.2837 *  0.0000     2          
   379  Na    c     13.5234 *     3.2681 *    -3.2681 *  0.0000     2          
   380  O     c      0.0000      10.0298 *    10.2552 *  0.0000     1          
   381  O     c      9.0156 *    -8.0013 *    -7.7759 *  0.0000     2          
   382  O     c     13.5234 *    -3.4935 *    -3.2681 *  0.0000     2          
   383  Na    c      6.7617 *    10.0298 *    -7.7759 *  0.0000     2          
   384  Cl    c      6.7617 *     7.7759 *   -10.0298 *  0.0000     2          
   385  Na    c      4.5078 *     5.5220 *    12.5091 *  0.0000     2          
   386  Na    c      4.5078 *   -12.5091 *    -5.5220 *  0.0000     2          
   387  Na    c     13.5234 *    -3.4935 *     3.4935 *  0.0000     2          
   388  Cl    c      6.7617 *    12.2837 *     3.4935 *  0.0000     2          
   389  Na    c      6.7617 *    -3.4935 *   -12.2837 *  0.0000     2          
   390  Na    c      9.0156 *    -8.0013 *     8.0013 *  0.0000     2          
   391  O     c      4.5078 *   -12.5091 *     5.7474 *  0.0000     2          
   392  Na    c      0.0000     -10.2552 *    10.2552 *  0.0000     1          
   393  Na    c      2.2539 *    10.0298 *    10.2552 *  0.0000     2          
   394  Cl    c      2.2539 *   -10.2552 *   -10.0298 *  0.0000     2          
   395  Na    c      0.0000       7.7759 *   -12.2837 *  0.0000     1          
   396  Na    c      0.0000      12.2837 *    -7.7759 *  0.0000     1          
   397  Na    c      0.0000      14.5376 *    -1.0143 *  0.0000     1          
   398  Na    c      9.0156 *    10.0298 *    -5.5220 *  0.0000     2          
   399  Na    c      9.0156 *     5.5220 *   -10.0298 *  0.0000     2          
   400  Na    c      0.0000       1.0143 *   -14.5376 *  0.0000     1          
   401  O     c      0.0000      14.5376 *     1.2396 *  0.0000     1          
   402  Cl    c      6.7617 *     3.2681 *    12.5091 *  0.0000     2          
   403  Na    c      6.7617 *   -12.5091 *    -3.2681 *  0.0000     2          
   404  Na    c     13.5234 *     1.0143 *    -5.5220 *  0.0000     2          
   405  Na    c     13.5234 *     5.5220 *    -1.0143 *  0.0000     2          
   406  Cl    c      6.7617 *   -10.2552 *     8.0013 *  0.0000     2          
   407  O     c      9.0156 *    10.0298 *     5.7474 *  0.0000     2          
   408  Na    c      6.7617 *    -8.0013 *    10.2552 *  0.0000     2          
   409  O     c      0.0000      -8.0013 *   -12.2837 *  0.0000     1          
   410  O     c     13.5234 *     5.5220 *     1.2396 *  0.0000     2          
   411  O     c      9.0156 *     5.5220 *    10.2552 *  0.0000     2          
   412  O     c      0.0000     -12.5091 *    -7.7759 *  0.0000     1          
   413  O     c     13.5234 *     1.0143 *     5.7474 *  0.0000     2          
   414  Na    c     13.5234 *    -1.2396 *     5.7474 *  0.0000     2          
   415  Na    c     13.5234 *    -5.7474 *     1.2396 *  0.0000     2          
   416  Na    c      2.2539 *    14.5376 *     1.2396 *  0.0000     2          
   417  Na    c     11.2695 *     5.5220 *    -7.7759 *  0.0000     2          
   418  Cl    c     11.2695 *     7.7759 *    -5.5220 *  0.0000     2          
   419  Cl    c      2.2539 *    -1.2396 *   -14.5376 *  0.0000     2          
   420  O     c      0.0000       1.0143 *    14.7630 *  0.0000     1          
   421  Na    c      0.0000      -1.2396 *    14.7630 *  0.0000     1          
   422  Na    c      0.0000     -14.7630 *     1.2396 *  0.0000     1          
   423  Na    c      9.0156 *    -5.7474 *    10.2552 *  0.0000     2          
   424  Na    c      9.0156 *   -10.2552 *     5.7474 *  0.0000     2          
   425  Cl    c      2.2539 *    12.2837 *     8.0013 *  0.0000     2          
   426  Na    c      2.2539 *    -8.0013 *   -12.2837 *  0.0000     2          
   427  Na    c      0.0000      -8.0013 *    12.5091 *  0.0000     1          
   428  Na    c      0.0000     -12.5091 *     8.0013 *  0.0000     1          
   429  Na    c     -4.5078 *    10.0298 *   -10.0298 *  0.0000     2          
   430  O     c      0.0000      14.5376 *    -3.2681 *  0.0000     1          
   431  Cl    c      2.2539 *     7.7759 *    12.5091 *  0.0000     2          
   432  Na    c      2.2539 *   -12.5091 *    -7.7759 *  0.0000     2          
   433  Na    c      0.0000      14.5376 *     3.4935 *  0.0000     1          
   434  Na    c      0.0000      -3.4935 *   -14.5376 *  0.0000     1          
   435  Cl    c      2.2539 *   -14.7630 *    -1.0143 *  0.0000     2          
   436  Na    c      2.2539 *     1.0143 *    14.7630 *  0.0000     2          
   437  Cl    c     11.2695 *    -5.7474 *     8.0013 *  0.0000     2          
   438  Na    c     11.2695 *    -8.0013 *     5.7474 *  0.0000     2          
   439  O     c     13.5234 *     5.5220 *    -3.2681 *  0.0000     2          
   440  Na    c     13.5234 *     5.5220 *     3.4935 *  0.0000     2          
   441  Na    c     13.5234 *    -3.4935 *    -5.5220 *  0.0000     2          
   442  O     c      4.5078 *    10.0298 *    10.2552 *  0.0000     2          
   443  Na    c     13.5234 *     3.2681 *     5.7474 *  0.0000     2          
   444  Na    c     13.5234 *    -5.7474 *    -3.2681 *  0.0000     2          
   445  Na    c      2.2539 *    14.5376 *    -3.2681 *  0.0000     2          
   446  Cl    c      6.7617 *    12.2837 *    -5.5220 *  0.0000     2          
   447  Na    c      6.7617 *     5.5220 *   -12.2837 *  0.0000     2          
   448  Cl    c      2.2539 *     3.2681 *   -14.5376 *  0.0000     2          
   449  O     c     13.5234 *    -3.4935 *     5.7474 *  0.0000     2          
   450  Na    c      0.0000       3.2681 *    14.7630 *  0.0000     1          
   451  Na    c      0.0000     -14.7630 *    -3.2681 *  0.0000     1          
   452  Na    c     11.2695 *    10.0298 *     1.2396 *  0.0000     2          
   453  Cl    c     11.2695 *    -1.2396 *   -10.0298 *  0.0000     2          
   454  O     c      0.0000      -3.4935 *    14.7630 *  0.0000     1          
   455  Na    c      4.5078 *   -10.2552 *    10.2552 *  0.0000     2          
   456  Na    c      4.5078 *     7.7759 *   -12.2837 *  0.0000     2          
   457  Na    c      4.5078 *    12.2837 *    -7.7759 *  0.0000     2          
   458  Na    c      4.5078 *    14.5376 *    -1.0143 *  0.0000     2          
   459  Na    c      4.5078 *     1.0143 *   -14.5376 *  0.0000     2          
   460  O     c      4.5078 *    14.5376 *     1.2396 *  0.0000     2          
   461  Cl    c     11.2695 *   -10.2552 *    -1.0143 *  0.0000     2          
   462  Na    c     11.2695 *     1.0143 *    10.2552 *  0.0000     2          
   463  O     c      9.0156 *     1.0143 *   -12.2837 *  0.0000     2          
   464  Na    c      9.0156 *    -1.2396 *   -12.2837 *  0.0000     2          
   465  Na    c      9.0156 *    12.2837 *     1.2396 *  0.0000     2          
   466  Cl    c      2.2539 *   -14.7630 *     3.4935 *  0.0000     2          
   467  Na    c      2.2539 *    -3.4935 *    14.7630 *  0.0000     2          
   468  Cl    c      6.7617 *    -5.7474 *    12.5091 *  0.0000     2          
   469  O     c      4.5078 *    -8.0013 *   -12.2837 *  0.0000     2          
   470  Na    c      6.7617 *   -12.5091 *     5.7474 *  0.0000     2          
   471  O     c      4.5078 *   -12.5091 *    -7.7759 *  0.0000     2          
   472  Na    c     11.2695 *    10.0298 *    -3.2681 *  0.0000     2          
   473  Cl    c     11.2695 *     3.2681 *   -10.0298 *  0.0000     2          
   474  Na    c      9.0156 *     1.0143 *    12.5091 *  0.0000     2          
   475  Na    c      9.0156 *   -12.5091 *    -1.0143 *  0.0000     2          
   476  O     c      4.5078 *     1.0143 *    14.7630 *  0.0000     2          
   477  O     c      9.0156 *   -12.5091 *     1.2396 *  0.0000     2          
   478  Na    c      4.5078 *    -1.2396 *    14.7630 *  0.0000     2          
   479  Na    c      4.5078 *   -14.7630 *     1.2396 *  0.0000     2          
   480  Na    c      4.5078 *    -8.0013 *    12.5091 *  0.0000     2          
   481  Na    c      4.5078 *   -12.5091 *     8.0013 *  0.0000     2          
   482  Na    c      0.0000      14.5376 *    -5.5220 *  0.0000     1          
   483  Na    c      0.0000       5.5220 *   -14.5376 *  0.0000     1          
   484  O     c      4.5078 *    14.5376 *    -3.2681 *  0.0000     2          
   485  O     c      9.0156 *    10.0298 *    -7.7759 *  0.0000     2          
   486  Na    c      9.0156 *     3.2681 *   -12.2837 *  0.0000     2          
   487  Na    c      9.0156 *    12.2837 *    -3.2681 *  0.0000     2          
   488  Na    c      4.5078 *    14.5376 *     3.4935 *  0.0000     2          
   489  Na    c     13.5234 *     5.5220 *    -5.5220 *  0.0000     2          
   490  Na    c      4.5078 *    -3.4935 *   -14.5376 *  0.0000     2          
   491  O     c      0.0000      14.5376 *     5.7474 *  0.0000     1          
   492  Cl    c     11.2695 *   -10.2552 *     3.4935 *  0.0000     2          
   493  Na    c     11.2695 *    -3.4935 *    10.2552 *  0.0000     2          
   494  O     c      9.0156 *    -3.4935 *   -12.2837 *  0.0000     2          
   495  O     c     13.5234 *     1.0143 *    -7.7759 *  0.0000     2          
   496  Na    c     13.5234 *    -1.2396 *    -7.7759 *  0.0000     2          
   497  Na    c     13.5234 *     7.7759 *     1.2396 *  0.0000     2          
   498  Na    c      9.0156 *    10.0298 *     8.0013 *  0.0000     2          
   499  Na    c      9.0156 *    -8.0013 *   -10.0298 *  0.0000     2          
   500  O     c     13.5234 *     5.5220 *     5.7474 *  0.0000     2          
   501  Na    c      9.0156 *     7.7759 *    10.2552 *  0.0000     2          
   502  Na    c      9.0156 *   -10.2552 *    -7.7759 *  0.0000     2          
   503  Na    c     13.5234 *    -8.0013 *    -1.0143 *  0.0000     2          
   504  Na    c     13.5234 *     1.0143 *     8.0013 *  0.0000     2          
   505  O     c      0.0000       5.5220 *    14.7630 *  0.0000     1          
   506  O     c      9.0156 *   -12.5091 *    -3.2681 *  0.0000     2          
   507  O     c     13.5234 *    -8.0013 *     1.2396 *  0.0000     2          
   508  Na    c      4.5078 *     3.2681 *    14.7630 *  0.0000     2          
   509  Na    c      4.5078 *   -14.7630 *    -3.2681 *  0.0000     2          
   510  Na    c     13.5234 *    -5.7474 *     5.7474 *  0.0000     2          
   511  Na    c      2.2539 *    14.5376 *     5.7474 *  0.0000     2          
   512  Cl    c      2.2539 *    -5.7474 *   -14.5376 *  0.0000     2          
   513  Na    c      9.0156 *    -3.4935 *    12.5091 *  0.0000     2          
   514  Na    c      9.0156 *   -12.5091 *     3.4935 *  0.0000     2          
   515  O     c      4.5078 *    -3.4935 *    14.7630 *  0.0000     2          
   516  O     c      9.0156 *    -8.0013 *    10.2552 *  0.0000     2          
   517  Na    c      0.0000      -5.7474 *    14.7630 *  0.0000     1          
   518  Na    c      0.0000     -14.7630 *     5.7474 *  0.0000     1          
   519  Na    c      6.7617 *    10.0298 *    10.2552 *  0.0000     2          
   520  Cl    c      6.7617 *   -10.2552 *   -10.0298 *  0.0000     2          
   521  Cl    c     11.2695 *     7.7759 *     8.0013 *  0.0000     2          
   522  Cl    c    -15.7773 *    -1.2396 *    -1.0143 *  0.0000     2          
   523  O     c      0.0000      10.0298 *   -12.2837 *  0.0000     1          
   524  Na    c     11.2695 *    -8.0013 *    -7.7759 *  0.0000     2          
   525  Na    c    -15.7773 *     1.0143 *     1.2396 *  0.0000     2          
   526  Cl    c      2.2539 *   -14.7630 *    -5.5220 *  0.0000     2          
   527  Na    c      2.2539 *     5.5220 *    14.7630 *  0.0000     2          
   528  Na    c     13.5234 *     3.2681 *    -7.7759 *  0.0000     2          
   529  Na    c     13.5234 *     7.7759 *    -3.2681 *  0.0000     2          
   530  O     c     13.5234 *    -3.4935 *    -7.7759 *  0.0000     2          
   531  Na    c      0.0000      12.2837 *    10.2552 *  0.0000     1          
   532  Na    c      0.0000     -10.2552 *   -12.2837 *  0.0000     1          
   533  Na    c      2.2539 *    10.0298 *   -12.2837 *  0.0000     2          
   534  Cl    c      2.2539 *    12.2837 *   -10.0298 *  0.0000     2          
   535  Na    c      0.0000      10.0298 *    12.5091 *  0.0000     1          
   536  Na    c      0.0000     -12.5091 *   -10.0298 *  0.0000     1          
   537  O     c     13.5234 *    -8.0013 *    -3.2681 *  0.0000     2          
   538  Na    c      6.7617 *    14.5376 *     1.2396 *  0.0000     2          
   539  Cl    c      6.7617 *    -1.2396 *   -14.5376 *  0.0000     2          
   540  Na    c     13.5234 *    -8.0013 *     3.4935 *  0.0000     2          
   541  Na    c     13.5234 *    -3.4935 *     8.0013 *  0.0000     2          
   542  Cl    c    -15.7773 *     3.2681 *    -1.0143 *  0.0000     2          
   543  Cl    c      6.7617 *    12.2837 *     8.0013 *  0.0000     2          
   544  Cl    c     11.2695 *    -5.7474 *   -10.0298 *  0.0000     2          
   545  Na    c      6.7617 *    -8.0013 *   -12.2837 *  0.0000     2          
   546  Na    c     11.2695 *    10.0298 *     5.7474 *  0.0000     2          
   547  Na    c    -15.7773 *     1.0143 *    -3.2681 *  0.0000     2          
   548  O     c      0.0000     -12.5091 *    10.2552 *  0.0000     1          
   549  Na    c      4.5078 *    14.5376 *    -5.5220 *  0.0000     2          
   550  Na    c     -4.5078 *     5.5220 *   -14.5376 *  0.0000     2          
   551  Cl    c      6.7617 *     7.7759 *    12.5091 *  0.0000     2          
   552  Cl    c     11.2695 *   -10.2552 *    -5.5220 *  0.0000     2          
   553  Cl    c    -15.7773 *    -1.2396 *     3.4935 *  0.0000     2          
   554  O     c      9.0156 *     5.5220 *   -12.2837 *  0.0000     2          
   555  Na    c      6.7617 *   -12.5091 *    -7.7759 *  0.0000     2          
   556  Na    c     11.2695 *     5.5220 *    10.2552 *  0.0000     2          
   557  Na    c    -15.7773 *    -3.4935 *     1.2396 *  0.0000     2          
   558  Cl    c      6.7617 *   -14.7630 *    -1.0143 *  0.0000     2          
   559  O     c      4.5078 *    14.5376 *     5.7474 *  0.0000     2          
   560  Na    c      6.7617 *     1.0143 *    14.7630 *  0.0000     2          
   561  Na    c      9.0156 *    -5.7474 *   -12.2837 *  0.0000     2          
   562  Na    c      9.0156 *    12.2837 *     5.7474 *  0.0000     2          
   563  Cl    c      2.2539 *   -10.2552 *    12.5091 *  0.0000     2          
   564  Na    c      2.2539 *   -12.5091 *    10.2552 *  0.0000     2          
   565  Na    c      6.7617 *    14.5376 *    -3.2681 *  0.0000     2          
   566  Cl    c      6.7617 *     3.2681 *   -14.5376 *  0.0000     2          
   567  Na    c      9.0156 *     5.5220 *    12.5091 *  0.0000     2          
   568  Na    c      9.0156 *   -12.5091 *    -5.5220 *  0.0000     2          
   569  O     c     -4.5078 *     5.5220 *    14.7630 *  0.0000     2          
   570  O     c      9.0156 *   -12.5091 *     5.7474 *  0.0000     2          
   571  Na    c      4.5078 *    -5.7474 *    14.7630 *  0.0000     2          
   572  Na    c      4.5078 *   -14.7630 *     5.7474 *  0.0000     2          
   573  Cl    c    -15.7773 *     3.2681 *     3.4935 *  0.0000     2          
   574  O     c      0.0000      14.5376 *    -7.7759 *  0.0000     1          
   575  O     c      4.5078 *    10.0298 *   -12.2837 *  0.0000     2          
   576  Na    c    -15.7773 *    -3.4935 *    -3.2681 *  0.0000     2          
   577  O     c     13.5234 *     5.5220 *    -7.7759 *  0.0000     2          
   578  Na    c      0.0000      14.5376 *     8.0013 *  0.0000     1          
   579  Na    c      0.0000      -8.0013 *   -14.5376 *  0.0000     1          
   580  Cl    c      6.7617 *   -14.7630 *     3.4935 *  0.0000     2          
   581  Na    c      6.7617 *    -3.4935 *    14.7630 *  0.0000     2          
   582  Na    c      4.5078 *    12.2837 *    10.2552 *  0.0000     2          
   583  Na    c      4.5078 *   -10.2552 *   -12.2837 *  0.0000     2          
   584  Na    c     13.5234 *     7.7759 *     5.7474 *  0.0000     2          
   585  Na    c     13.5234 *    -5.7474 *    -7.7759 *  0.0000     2          
   586  Na    c      2.2539 *    14.5376 *    -7.7759 *  0.0000     2          
   587  Cl    c      2.2539 *     7.7759 *   -14.5376 *  0.0000     2          
   588  Na    c      4.5078 *    10.0298 *    12.5091 *  0.0000     2          
   589  Na    c      4.5078 *   -12.5091 *   -10.0298 *  0.0000     2          
   590  Na    c     13.5234 *     5.5220 *     8.0013 *  0.0000     2          
   591  Na    c     13.5234 *    -8.0013 *    -5.5220 *  0.0000     2          
   592  Na    c      0.0000       7.7759 *    14.7630 *  0.0000     1          
   593  Na    c      0.0000     -14.7630 *    -7.7759 *  0.0000     1          
   594  Cl    c     11.2695 *    12.2837 *    -1.0143 *  0.0000     2          
   595  Na    c     11.2695 *     1.0143 *   -12.2837 *  0.0000     2          
   596  O     c     13.5234 *    -8.0013 *     5.7474 *  0.0000     2          
   597  Cl    c    -15.7773 *    -1.2396 *    -5.5220 *  0.0000     2          
   598  Na    c    -15.7773 *     5.5220 *     1.2396 *  0.0000     2          
   599  O     c      0.0000      -8.0013 *    14.7630 *  0.0000     1          
   600  O     c      4.5078 *   -12.5091 *    10.2552 *  0.0000     2          
   601  Na    c      9.0156 *    10.0298 *   -10.0298 *  0.0000     2          
   602  Cl    c    -15.7773 *    -5.7474 *    -1.0143 *  0.0000     2          
   603  O     c      0.0000       1.0143 *   -16.7915 *  0.0000     1          
   604  Na    c    -15.7773 *     1.0143 *     5.7474 *  0.0000     2          
   605  Na    c      0.0000      -1.2396 *   -16.7915 *  0.0000     1          
   606  Na    c      0.0000      16.7915 *     1.2396 *  0.0000     1          
   607  Na    c     13.5234 *    10.0298 *    -1.0143 *  0.0000     2          
   608  Na    c     13.5234 *     1.0143 *   -10.0298 *  0.0000     2          
   609  Cl    c     11.2695 *    -1.2396 *    12.5091 *  0.0000     2          
   610  O     c     13.5234 *    10.0298 *     1.2396 *  0.0000     2          
   611  Na    c     11.2695 *   -12.5091 *     1.2396 *  0.0000     2          
   612  Cl    c      2.2539 *   -14.7630 *     8.0013 *  0.0000     2          
   613  O     c      9.0156 *    10.0298 *    10.2552 *  0.0000     2          
   614  Na    c      2.2539 *    -8.0013 *    14.7630 *  0.0000     2          
   615  Cl    c      2.2539 *    16.7915 *    -1.0143 *  0.0000     2          
   616  Na    c      2.2539 *     1.0143 *   -16.7915 *  0.0000     2          
   617  Na    c     11.2695 *    10.0298 *    -7.7759 *  0.0000     2          
   618  Cl    c     11.2695 *     7.7759 *   -10.0298 *  0.0000     2          
   619  O     c     13.5234 *     1.0143 *    10.2552 *  0.0000     2          
   620  Na    c     13.5234 *    -1.2396 *    10.2552 *  0.0000     2          
   621  Na    c     13.5234 *   -10.2552 *     1.2396 *  0.0000     2          
   622  Cl    c     11.2695 *    12.2837 *     3.4935 *  0.0000     2          
   623  Cl    c    -15.7773 *     3.2681 *    -5.5220 *  0.0000     2          
   624  Na    c      6.7617 *    14.5376 *     5.7474 *  0.0000     2          
   625  Na    c     11.2695 *    -3.4935 *   -12.2837 *  0.0000     2          
   626  Na    c    -15.7773 *     5.5220 *    -3.2681 *  0.0000     2          
   627  Cl    c      6.7617 *    -5.7474 *   -14.5376 *  0.0000     2          
   628  Na    c      0.0000       1.0143 *    17.0169 *  0.0000     1          
   629  Na    c      0.0000     -17.0169 *    -1.0143 *  0.0000     1          
   630  O     c      0.0000     -17.0169 *     1.2396 *  0.0000     1          
   631  Na    c      9.0156 *   -10.2552 *    10.2552 *  0.0000     2          
   632  O     c      4.5078 *    14.5376 *    -7.7759 *  0.0000     2          
   633  Na    c      0.0000       3.2681 *   -16.7915 *  0.0000     1          
   634  Na    c      0.0000      16.7915 *    -3.2681 *  0.0000     1          
   635  Na    c      9.0156 *     7.7759 *   -12.2837 *  0.0000     2          
   636  Na    c      9.0156 *    12.2837 *    -7.7759 *  0.0000     2          
   637  Na    c      9.0156 *    14.5376 *    -1.0143 *  0.0000     2          
   638  Na    c      9.0156 *     1.0143 *   -14.5376 *  0.0000     2          
   639  Cl    c    -15.7773 *    -5.7474 *     3.4935 *  0.0000     2          
   640  O     c      0.0000      -3.4935 *   -16.7915 *  0.0000     1          
   641  O     c      9.0156 *    14.5376 *     1.2396 *  0.0000     2          
   642  Na    c      6.7617 *     5.5220 *    14.7630 *  0.0000     2          
   643  Cl    c      6.7617 *   -14.7630 *    -5.5220 *  0.0000     2          
   644  Cl    c     11.2695 *     3.2681 *    12.5091 *  0.0000     2          
   645  O     c     13.5234 *    10.0298 *    -3.2681 *  0.0000     2          
   646  Na    c     11.2695 *   -12.5091 *    -3.2681 *  0.0000     2          
   647  Na    c    -15.7773 *    -3.4935 *     5.7474 *  0.0000     2          
   648  Na    c      4.5078 *    14.5376 *     8.0013 *  0.0000     2          
   649  Na    c     13.5234 *    10.0298 *     3.4935 *  0.0000     2          
   650  Na    c      4.5078 *    -8.0013 *   -14.5376 *  0.0000     2          
   651  Na    c     13.5234 *    -3.4935 *   -10.0298 *  0.0000     2          
   652  Cl    c      2.2539 *    -1.2396 *    17.0169 *  0.0000     2          
   653  Cl    c     11.2695 *   -10.2552 *     8.0013 *  0.0000     2          
   654  O     c      9.0156 *    -8.0013 *   -12.2837 *  0.0000     2          
   655  Na    c      2.2539 *   -17.0169 *     1.2396 *  0.0000     2          
   656  Na    c     11.2695 *    -8.0013 *    10.2552 *  0.0000     2          
   657  Na    c      6.7617 *    10.0298 *   -12.2837 *  0.0000     2          
   658  Cl    c      6.7617 *    12.2837 *   -10.0298 *  0.0000     2          
   659  O     c      9.0156 *   -12.5091 *    -7.7759 *  0.0000     2          
   660  Na    c      4.5078 *   -14.7630 *    -7.7759 *  0.0000     2          
   661  Na    c     -4.5078 *     7.7759 *    14.7630 *  0.0000     2          
   662  Na    c     13.5234 *     3.2681 *    10.2552 *  0.0000     2          
   663  Na    c     13.5234 *   -10.2552 *    -3.2681 *  0.0000     2          
   664  Cl    c      2.2539 *    16.7915 *     3.4935 *  0.0000     2          
   665  Na    c      2.2539 *    -3.4935 *   -16.7915 *  0.0000     2          
   666  O     c      0.0000     -17.0169 *    -3.2681 *  0.0000     1          
   667  O     c      9.0156 *     1.0143 *    14.7630 *  0.0000     2          
   668  O     c     13.5234 *    -3.4935 *    10.2552 *  0.0000     2          
   669  Na    c      9.0156 *    -1.2396 *    14.7630 *  0.0000     2          
   670  Na    c      9.0156 *   -14.7630 *     1.2396 *  0.0000     2          
   671  Na    c      0.0000      -3.4935 *    17.0169 *  0.0000     1          
   672  Na    c      0.0000     -17.0169 *     3.4935 *  0.0000     1          
   673  Na    c      9.0156 *    -8.0013 *    12.5091 *  0.0000     2          
   674  Na    c      9.0156 *   -12.5091 *     8.0013 *  0.0000     2          
   675  Na    c      0.0000      12.2837 *   -12.2837 *  0.0000     1          
   676  O     c      4.5078 *    -8.0013 *    14.7630 *  0.0000     2          
   677  O     c      9.0156 *    14.5376 *    -3.2681 *  0.0000     2          
   678  O     c      4.5078 *     1.0143 *   -16.7915 *  0.0000     2          
   679  Na    c      4.5078 *    -1.2396 *   -16.7915 *  0.0000     2          
   680  Na    c      4.5078 *    16.7915 *     1.2396 *  0.0000     2          
   681  Na    c     13.5234 *     7.7759 *    -7.7759 *  0.0000     2          
   682  Na    c      9.0156 *    14.5376 *     3.4935 *  0.0000     2          
   683  Na    c      9.0156 *    -3.4935 *   -14.5376 *  0.0000     2          
   684  Cl    c      2.2539 *     3.2681 *    17.0169 *  0.0000     2          
   685  Na    c      2.2539 *   -17.0169 *    -3.2681 *  0.0000     2          
   686  Cl    c      6.7617 *   -10.2552 *    12.5091 *  0.0000     2          
   687  O     c      0.0000     -12.5091 *   -12.2837 *  0.0000     1          
   688  O     c     13.5234 *    -8.0013 *    -7.7759 *  0.0000     2          
   689  Na    c      6.7617 *   -12.5091 *    10.2552 *  0.0000     2          
   690  Na    c     11.2695 *     5.5220 *   -12.2837 *  0.0000     2          
   691  Cl    c     11.2695 *    12.2837 *    -5.5220 *  0.0000     2          
   692  Na    c      9.0156 *     3.2681 *    14.7630 *  0.0000     2          
   693  Na    c      9.0156 *   -14.7630 *    -3.2681 *  0.0000     2          
   694  Cl    c    -15.7773 *     7.7759 *    -1.0143 *  0.0000     2          
   695  Na    c    -15.7773 *     1.0143 *    -7.7759 *  0.0000     2          
   696  Na    c      4.5078 *   -17.0169 *    -1.0143 *  0.0000     2          
   697  Na    c     -4.5078 *     1.0143 *    17.0169 *  0.0000     2          
   698  Na    c     13.5234 *    -8.0013 *     8.0013 *  0.0000     2          
   699  O     c      9.0156 *    -3.4935 *    14.7630 *  0.0000     2          
[...]
   1333 y        -13.523362    -13.582427    -0.059065    Cartesian    0.44
   1333 z          0.000000     -0.002750    -0.002750    Cartesian    0.00
   1334 x        -13.523362    -13.575780    -0.052418    Cartesian    0.39
   1334 y         -4.507787     -4.485222     0.022566    Cartesian   -0.50
   1334 z          9.015574      9.019576     0.004002    Cartesian    0.04
   1335 x          2.253894      2.253894     0.000000    Cartesian    0.00
   1335 y         -6.761681     -6.722414     0.039267    Cartesian   -0.58
   1335 z        -15.777255    -15.767987     0.009269    Cartesian   -0.06
   1336 x          9.015574      8.989688    -0.025887    Cartesian   -0.29
   1336 y          4.507787      4.501823    -0.005965    Cartesian   -0.13
   1336 z         18.031149     18.124954     0.093805    Cartesian    0.52
   1337 x         15.777255     15.768831    -0.008425    Cartesian   -0.05
   1337 y         -2.253894     -2.254042    -0.000149    Cartesian    0.01
   1337 z        -11.269468    -11.254741     0.014727    Cartesian   -0.13
   1338 x         20.285042     20.279474    -0.005568    Cartesian   -0.03
   1338 y         -2.253894     -2.242712     0.011182    Cartesian   -0.50
   1338 z         -2.253894     -2.242678     0.011216    Cartesian   -0.50
   1339 x         13.523362     13.575996     0.052635    Cartesian    0.39
   1339 y          4.507787      4.516435     0.008648    Cartesian    0.19
   1339 z        -13.523362    -13.575315    -0.051954    Cartesian    0.38
   1340 x          2.253894      2.253894     0.000000    Cartesian    0.00
   1340 y        -15.777255    -15.747262     0.029993    Cartesian   -0.19
   1340 z         -6.761681     -6.788697    -0.027016    Cartesian    0.40
   1341 x         15.777255     15.777471     0.000216    Cartesian    0.00
   1341 y        -11.269468    -11.246415     0.023053    Cartesian   -0.20
   1341 z         -2.253894     -2.250198     0.003695    Cartesian   -0.16
   1342 x          4.507787      4.531698     0.023911    Cartesian    0.53
   1342 y         18.031149     18.050955     0.019806    Cartesian    0.11
   1342 z          9.015574      9.031106     0.015532    Cartesian    0.17
   1343 x        -13.523362    -13.537583    -0.014222    Cartesian    0.11
   1343 y          0.000000      0.002858     0.002858    Cartesian    0.00
   1343 z         -9.015574     -9.026842    -0.011268    Cartesian    0.12
   1344 x         15.777255     15.779099     0.001844    Cartesian    0.01
   1344 y         -6.761681     -6.744528     0.017153    Cartesian   -0.25
   1344 z         11.269468     11.251899    -0.017569    Cartesian   -0.16
   1345 x         11.269468     11.269482     0.000014    Cartesian    0.00
   1345 y         15.777255     15.769779    -0.007477    Cartesian   -0.05
   1345 z         -6.761681     -6.728686     0.032995    Cartesian   -0.49
   1346 x          9.015574      9.032475     0.016900    Cartesian    0.19
   1346 y         13.523362     13.542816     0.019454    Cartesian    0.14
   1346 z         13.523362     13.500140    -0.023221    Cartesian   -0.17
   1347 x        -13.523362    -13.552127    -0.028765    Cartesian    0.21
   1347 y         -9.015574     -9.010687     0.004887    Cartesian   -0.05
   1347 z          0.000000      0.003426     0.003426    Cartesian    0.00
   1348 x          4.507787      4.536099     0.028311    Cartesian    0.63
   1348 y          9.015574      9.040068     0.024494    Cartesian    0.27
   1348 z         18.031149     18.024337    -0.006812    Cartesian   -0.04
   1349 x         13.523362     13.521882    -0.001480    Cartesian   -0.01
   1349 y        -13.523362    -13.530224    -0.006863    Cartesian    0.05
   1349 z          4.507787      4.519965     0.012178    Cartesian    0.27
   1350 x         20.285042     20.283598    -0.001445    Cartesian   -0.01
   1350 y          6.761681      6.749828    -0.011852    Cartesian   -0.18
   1350 z          2.253894      2.247225    -0.006669    Cartesian   -0.30
   1351 x          9.015574      9.055478     0.039904    Cartesian    0.44
   1351 y         18.031149     18.002606    -0.028543    Cartesian   -0.16
   1351 z         -4.507787     -4.509337    -0.001550    Cartesian    0.03
   1352 x         20.285042     20.282882    -0.002160    Cartesian   -0.01
   1352 y          2.253894      2.248115    -0.005779    Cartesian   -0.26
   1352 z          6.761681      6.746948    -0.014732    Cartesian   -0.22
   1353 x        -13.523362    -13.568582    -0.045220    Cartesian    0.33
   1353 y          4.507787      4.501124    -0.006663    Cartesian   -0.15
   1353 z         -9.015574     -9.007116     0.008459    Cartesian   -0.09
   1354 x          2.253894      2.253894     0.000000    Cartesian    0.00
   1354 y         15.777255     15.784534     0.007279    Cartesian    0.05
   1354 z        -11.269468    -11.237451     0.032017    Cartesian   -0.28
   1355 x          9.015574      9.006981    -0.008593    Cartesian   -0.10
   1355 y         -9.015574     -9.005798     0.009777    Cartesian   -0.11
   1355 z        -13.523362    -13.544452    -0.021091    Cartesian    0.16
   1356 x         11.269468     11.270691     0.001222    Cartesian    0.01
   1356 y         -6.761681     -6.769704    -0.008023    Cartesian    0.12
   1356 z         15.777255     15.749970    -0.027286    Cartesian   -0.17
   1357 x          2.253894      2.253894     0.000000    Cartesian    0.00
   1357 y         20.285042     20.272683    -0.012360    Cartesian   -0.06
   1357 z          2.253894      2.270828     0.016934    Cartesian    0.75
   1358 x          9.015574      9.055417     0.039842    Cartesian    0.44
   1358 y        -13.523362    -13.509932     0.013429    Cartesian   -0.10
   1358 z         -9.015574     -9.019747    -0.004173    Cartesian    0.05
   1359 x         11.269468     11.268682    -0.000786    Cartesian   -0.01
   1359 y          2.253894      2.247481    -0.006413    Cartesian   -0.28
   1359 z        -15.777255    -15.761374     0.015881    Cartesian   -0.10
   1360 x         15.777255     15.780010     0.002755    Cartesian    0.02
   1360 y          6.761681      6.746598    -0.015083    Cartesian   -0.22
   1360 z        -11.269468    -11.250852     0.018616    Cartesian   -0.17
   1361 x        -13.523362    -13.581695    -0.058333    Cartesian    0.43
   1361 y         -9.015574     -9.006763     0.008812    Cartesian   -0.10
   1361 z          4.507787      4.508677     0.000890    Cartesian    0.02
   1362 x         -2.253894     -2.242649     0.011245    Cartesian   -0.50
   1362 y         -6.761681     -6.765237    -0.003556    Cartesian    0.05
   1362 z        -15.777255    -15.747385     0.029870    Cartesian   -0.19
   1363 x         20.285042     20.281005    -0.004038    Cartesian   -0.02
   1363 y          6.761681      6.749731    -0.011950    Cartesian   -0.18
   1363 z         -2.253894     -2.244257     0.009636    Cartesian   -0.43
   1364 x          4.507787      4.510430     0.002643    Cartesian    0.06
   1364 y         13.523362     13.543527     0.020165    Cartesian    0.15
   1364 z        -13.523362    -13.536433    -0.013071    Cartesian    0.10
   1365 x          9.015574      8.982113    -0.033462    Cartesian   -0.37
   1365 y         -4.507787     -4.487210     0.020577    Cartesian   -0.46
   1365 z         18.031149     18.106678     0.075529    Cartesian    0.42
   1366 x          4.507787      4.476024    -0.031764    Cartesian   -0.70
   1366 y          0.000000     -0.005560    -0.005560    Cartesian    0.00
   1366 z        -18.031149    -18.049474    -0.018325    Cartesian    0.10
   1367 x          6.761681      6.781060     0.019379    Cartesian    0.29
   1367 y        -15.777255    -15.771730     0.005525    Cartesian   -0.04
   1367 z         -6.761681     -6.748603     0.013078    Cartesian   -0.19
   1368 x         20.285042     20.276286    -0.008757    Cartesian   -0.04
   1368 y         -2.253894     -2.259385    -0.005492    Cartesian    0.24
   1368 z          6.761681      6.749853    -0.011828    Cartesian   -0.17
   1369 x         13.523362     13.583652     0.060290    Cartesian    0.45
   1369 y         -4.507787     -4.508376    -0.000589    Cartesian    0.01
   1369 z        -13.523362    -13.585040    -0.061678    Cartesian    0.46
   1370 x          2.253894      2.253894     0.000000    Cartesian    0.00
   1370 y          2.253894      2.269727     0.015834    Cartesian    0.70
   1370 z         20.285042     20.271530    -0.013513    Cartesian   -0.07
   1371 x         11.269468     11.270164     0.000696    Cartesian    0.01
   1371 y        -15.777255    -15.762167     0.015088    Cartesian   -0.10
   1371 z          2.253894      2.259704     0.005811    Cartesian    0.26
   1372 x         15.777255     15.780475     0.003219    Cartesian    0.02
   1372 y        -11.269468    -11.250362     0.019106    Cartesian   -0.17
   1372 z          6.761681      6.755412    -0.006269    Cartesian   -0.09
   1373 x          2.253894      2.253894     0.000000    Cartesian    0.00
   1373 y         20.285042     20.264161    -0.020881    Cartesian   -0.10
   1373 z         -2.253894     -2.280081    -0.026187    Cartesian    1.16
   1374 x        -13.523362    -13.559654    -0.036293    Cartesian    0.27
   1374 y          9.015574      9.023258     0.007684    Cartesian    0.09
   1374 z          9.015574      8.986833    -0.028742    Cartesian   -0.32
   1375 x          2.253894      2.253894     0.000000    Cartesian    0.00
   1375 y        -11.269468    -11.262026     0.007442    Cartesian   -0.07
   1375 z         15.777255     15.772007    -0.005248    Cartesian   -0.03
   1376 x         13.523362     13.491341    -0.032021    Cartesian   -0.24
   1376 y        -13.523362    -13.565343    -0.041982    Cartesian    0.31
   1376 z         -4.507787     -4.523987    -0.016200    Cartesian    0.36
   1377 x         11.269468     11.259495    -0.009973    Cartesian   -0.09
   1377 y         -2.253894     -2.247890     0.006003    Cartesian   -0.27
   1377 z        -15.777255    -15.768743     0.008513    Cartesian   -0.05
   1378 x          4.507787      4.523641     0.015853    Cartesian    0.35
   1378 y        -18.031149    -18.051355    -0.020206    Cartesian    0.11
   1378 z          0.000000      0.004832     0.004832    Cartesian    0.00
   1379 x         13.523362     13.563636     0.040274    Cartesian    0.30
   1379 y         13.523362     13.566518     0.043156    Cartesian    0.32
   1379 z         -9.015574     -9.028671    -0.013096    Cartesian    0.15
   1380 x          4.507787      4.531706     0.023919    Cartesian    0.53
   1380 y          4.507787      4.504380    -0.003407    Cartesian   -0.08
   1380 z        -18.031149    -18.042442    -0.011293    Cartesian    0.06
   1381 x          4.507787      4.540766     0.032978    Cartesian    0.73
   1381 y        -13.523362    -13.556467    -0.033105    Cartesian    0.24
   1381 z         13.523362     13.521776    -0.001585    Cartesian   -0.01
   1382 x         11.269468     11.276919     0.007451    Cartesian    0.07
   1382 y        -15.777255    -15.757269     0.019987    Cartesian   -0.13
   1382 z         -2.253894     -2.253016     0.000878    Cartesian   -0.04
   1383 x          2.253894      2.253894     0.000000    Cartesian    0.00
   1383 y         11.269468     11.282912     0.013444    Cartesian    0.12
   1383 z        -15.777255    -15.742525     0.034730    Cartesian   -0.22
   1384 x        -13.523362    -13.528643    -0.005281    Cartesian    0.04
   1384 y         -4.507787     -4.502739     0.005048    Cartesian   -0.11
   1384 z         -9.015574     -8.995478     0.020096    Cartesian   -0.22
   1385 x          6.761681      6.766071     0.004391    Cartesian    0.06
   1385 y         15.777255     15.751813    -0.025442    Cartesian   -0.16
   1385 z        -11.269468    -11.272749    -0.003281    Cartesian    0.03
   1386 x          2.253894      2.253894     0.000000    Cartesian    0.00
   1386 y         -2.253894     -2.258076    -0.004182    Cartesian    0.19
   1386 z         20.285042     20.267032    -0.018010    Cartesian   -0.09
   1387 x          6.761681      6.764975     0.003294    Cartesian    0.05
   1387 y         20.285042     20.275509    -0.009533    Cartesian   -0.05
   1387 z          2.253894      2.227650    -0.026244    Cartesian   -1.16
   1388 x        -13.523362    -13.575741    -0.052380    Cartesian    0.39
   1388 y         -9.015574     -9.014413     0.001161    Cartesian   -0.01
   1388 z         -4.507787     -4.498759     0.009028    Cartesian   -0.20
   1389 x         20.285042     20.281449    -0.003594    Cartesian   -0.02
   1389 y          2.253894      2.259473     0.005579    Cartesian    0.25
   1389 z         -6.761681     -6.750101     0.011580    Cartesian   -0.17
   1390 x          4.507787      4.510667     0.002880    Cartesian    0.06
   1390 y         18.031149     18.063197     0.032048    Cartesian    0.18
   1390 z         -9.015574     -9.034566    -0.018992    Cartesian    0.21
   1391 x          4.507787      4.532389     0.024602    Cartesian    0.55
   1391 y        -18.031149    -18.048527    -0.017378    Cartesian    0.10
   1391 z          4.507787      4.506296    -0.001491    Cartesian   -0.03
   1392 x         13.523362     13.528268     0.004906    Cartesian    0.04
   1392 y         -9.015574     -9.026510    -0.010936    Cartesian    0.12
   1392 z         13.523362     13.554886     0.031525    Cartesian    0.23
   1393 x         11.269468     11.269474     0.000006    Cartesian    0.00
   1393 y        -11.269468    -11.275509    -0.006041    Cartesian    0.05
   1393 z        -11.269468    -11.248257     0.021211    Cartesian   -0.19
   1394 x         15.777255     15.775381    -0.001875    Cartesian   -0.01
   1394 y         11.269468     11.259963    -0.009505    Cartesian   -0.08
   1394 z         11.269468     11.262709    -0.006759    Cartesian   -0.06
   1395 x         20.285042     20.281093    -0.003950    Cartesian   -0.02
   1395 y          6.761681      6.748723    -0.012958    Cartesian   -0.19
   1395 z          6.761681      6.759533    -0.002148    Cartesian   -0.03
   1396 x         20.285042     20.274972    -0.010071    Cartesian   -0.05
   1396 y         -6.761681     -6.762265    -0.000584    Cartesian    0.01
   1396 z          2.253894      2.246758    -0.007135    Cartesian   -0.32
   1397 x          9.015574      9.012392    -0.003182    Cartesian   -0.04
   1397 y         18.031149     18.094511     0.063362    Cartesian    0.35
   1397 z          9.015574      8.986567    -0.029008    Cartesian   -0.32
   1398 x         -2.253894     -2.256371    -0.002478    Cartesian    0.11
   1398 y          2.253894      2.262571     0.008677    Cartesian    0.38
   1398 z         20.285042     20.266096    -0.018946    Cartesian   -0.09
   1399 x          6.761681      6.768186     0.006505    Cartesian    0.10
   1399 y         20.285042     20.282802    -0.002240    Cartesian   -0.01
   1399 z         -2.253894     -2.241896     0.011997    Cartesian   -0.53
   1400 x         11.269468     11.275814     0.006346    Cartesian    0.06
   1400 y          6.761681      6.764008     0.002327    Cartesian    0.03
   1400 z        -15.777255    -15.758348     0.018907    Cartesian   -0.12
   1401 x          2.253894      2.253894     0.000000    Cartesian    0.00
   1401 y        -15.777255    -15.776631     0.000624    Cartesian   -0.00
   1401 z         11.269468     11.271743     0.002275    Cartesian    0.02
   1402 x          6.761681      6.769692     0.008011    Cartesian    0.12
   1402 y        -11.269468    -11.249435     0.020033    Cartesian   -0.18
   1402 z         15.777255     15.773014    -0.004242    Cartesian   -0.03
   1403 x          2.253894      2.253894     0.000000    Cartesian    0.00
   1403 y         20.285042     20.294622     0.009580    Cartesian    0.05
   1403 z          6.761681      6.752808    -0.008873    Cartesian   -0.13
   1404 x          9.015574      9.042514     0.026940    Cartesian    0.30
   1404 y          9.015574      9.054046     0.038472    Cartesian    0.43
   1404 z         18.031149     18.030568    -0.000581    Cartesian   -0.00
   1405 x         15.777255     15.785834     0.008578    Cartesian    0.05
   1405 y         15.777255     15.758843    -0.018412    Cartesian   -0.12
   1405 z          2.253894      2.254975     0.001081    Cartesian    0.05
   1406 x         11.269468     11.270530     0.001062    Cartesian    0.01
   1406 y         15.777255     15.757797    -0.019458    Cartesian   -0.12
   1406 z         11.269468     11.276194     0.006726    Cartesian    0.06
   1407 x         15.777255     15.777268     0.000012    Cartesian    0.00
   1407 y         -6.761681     -6.756397     0.005284    Cartesian   -0.08
   1407 z        -11.269468    -11.263207     0.006261    Cartesian   -0.06
   1408 x         20.285042     20.283434    -0.001609    Cartesian   -0.01
   1408 y         -2.253894     -2.251097     0.002797    Cartesian   -0.12
   1408 z         -6.761681     -6.749873     0.011808    Cartesian   -0.17
   1409 x         13.523362     13.497781    -0.025581    Cartesian   -0.19
   1409 y          9.015574      9.028476     0.012901    Cartesian    0.14
   1409 z        -13.523362    -13.556904    -0.033543    Cartesian    0.25
   1410 x         11.269468     11.266887    -0.002581    Cartesian   -0.02
   1410 y         11.269468     11.260826    -0.008642    Cartesian   -0.08
   1410 z         15.777255     15.780362     0.003107    Cartesian    0.02
   1411 x          4.507787      4.512853     0.005066    Cartesian    0.11
   1411 y         -9.015574     -9.043302    -0.027728    Cartesian    0.31
   1411 z         18.031149     18.021751    -0.009398    Cartesian   -0.05
   1412 x         15.777255     15.776718    -0.000537    Cartesian   -0.00
   1412 y        -11.269468    -11.256744     0.012724    Cartesian   -0.11
   1412 z         -6.761681     -6.756303     0.005378    Cartesian   -0.08
   1413 x         20.285042     20.277943    -0.007100    Cartesian   -0.03
   1413 y         -6.761681     -6.758963     0.002718    Cartesian   -0.04
   1413 z         -2.253894     -2.249471     0.004423    Cartesian   -0.20
--------------------------------------------------------------------------------


  Time to end of optimisation  =     3345.5253 seconds


  Peak dynamic memory used =    1961.37 MB 


  Timing analysis for GULP :

--------------------------------------------------------------------------------
  Task / Subroutine                                          Time (Seconds)
--------------------------------------------------------------------------------
  Calculation of reciprocal space energy and derivatives          0.0004
  Calculation of reciprocal space energy using symmetry           0.0007
  Calculation of real space energy and derivatives                0.0022
  Calculation of real space energy using symmetry                 0.0066
  Calculation for region 1 energy and derivatives (2-b)        1620.5234
  Calculation for region 2a energy                              488.6831
  Calculation for region 2b energy                                0.0543
  Calculation and manipulation of Hessian matrix                  5.7717
  Calculation of matrix inversion                              1213.0634
  Symmetry generation of equivalent positions                     0.0075
--------------------------------------------------------------------------------
  Total CPU time                                               3345.5254
--------------------------------------------------------------------------------


  Dump file written as Na3OCl.grs


  Job Finished at 14:20.17 20th November   2020                               

