********************************************************************************
*                       GENERAL UTILITY LATTICE PROGRAM                        *
*                                 Julian Gale                                  *
*                       Curtin Institute for Computation                       *
*                    School of Molecular and Life Sciences                     *
*                    Curtin University, Western Australia                      *
********************************************************************************
* Version = 5.2.0 * Last modified =  10th September 2020                       *
********************************************************************************
*  optimise     - perform optimisation run                                     *
*  conp         - constant pressure calculation                                *
*  property     - calculate properties for final geometry                      *
*  defect       - perform defect calculation after bulk run                    *
*  compare      - compare initial and final structures                         *
********************************************************************************

  Job Started  at 16:51.39 20th November   2020                               

  Number of CPUs =     1


  Total number of configurations input =      1

********************************************************************************
*  Input for Configuration =   1                                               *
********************************************************************************

  Formula = ClONa3                                                      

  Number of irreducible atoms/shells =       5


  Total number atoms/shells =       7

  Dimensionality = 3               :  Bulk   


  Symmetry :

  Crystal family                   :  Cubic       
  Crystal class  (Groth - 1921)    :  Cubic Hexakisoctahedral              

  Space group (centrosymmetric)    :  P M 3 M         

  Patterson group                  :  P m -3 m 

  Cartesian lattice vectors (Angstroms) :

        4.504000    0.000000    0.000000
        0.000000    4.504000    0.000000
        0.000000    0.000000    4.504000

  Cell parameters (Angstroms/Degrees):

  a =       4.5040    alpha =  90.0000
  b =       4.5040    beta  =  90.0000
  c =       4.5040    gamma =  90.0000

  Initial cell volume =          91.368216 Angs**3

  Temperature of configuration =   0.00     K 

  Pressure of configuration =         0.000 GPa 

  Fractional coordinates of asymmetric unit :

--------------------------------------------------------------------------------
   No.  Atomic       x           y          z         Charge      Occupancy
        Label      (Frac)      (Frac)     (Frac)        (e)         (Frac)  
--------------------------------------------------------------------------------
      1 Cl    c    0.000000    0.000000    0.000000     1.48500    1.000000    
      2 O     c    0.500000    0.500000    0.500000     0.18300    1.000000    
      3 Na    c    0.500000    0.500000    0.000000     1.00000    1.000000    
      4 Cl    s    0.000000    0.000000    0.000000    -2.48500    1.000000    
      5 O     s    0.500000    0.500000    0.500000    -2.18300    1.000000    
--------------------------------------------------------------------------------


  Constraints : 

--------------------------------------------------------------------------------
  Constraint no.      Unconstrained     Constrained    Coefficient    Offset
                         Variable         Variable
--------------------------------------------------------------------------------
           1              Strain 1        Strain 2       1.00000      0.0000
           2              Strain 1        Strain 3       1.00000      0.0000
--------------------------------------------------------------------------------


********************************************************************************
*  General input information                                                   *
********************************************************************************

  Species output for all configurations : 

--------------------------------------------------------------------------------
  Species    Type    Atomic    Atomic    Charge       Radii (Angs)     Library
                     Number     Mass       (e)     Cova   Ionic  VDW   Symbol
--------------------------------------------------------------------------------
    Na       Core       11      22.99   1.000000   0.970  0.000  2.300          
    O        Core        8      16.00   0.183000   0.730  0.000  1.360          
    O        Shell       8       0.00  -2.183000   0.730  0.000  1.360          
    Cl       Core       17      35.45   1.485000   0.990  0.000  1.650          
    Cl       Shell      17       0.00  -2.485000   0.990  0.000  1.650          
--------------------------------------------------------------------------------


  Lattice summation method               =    Ewald          (3-D)
                                         =    Parry          (2-D)
                                         =    Saunders et al (1-D)
  Accuracy factor for lattice sums       =   12.000


  Analytic derivatives to be used

  Time limit = Infinity

  Maximum range for interatomic potentials =    100000.000000 Angstroms

  General interatomic potentials :

--------------------------------------------------------------------------------
Atom  Types   Potential      Parameter       Value         Units   Cutoffs(Ang)
  1     2                                                            Min /  Max 
--------------------------------------------------------------------------------
O    c O    s Spring (c-s)  Spring k 2       593.72000    eV*Ang^-2 0.000  0.800
                            Spring k 4       0.0000000    eV*Ang^-4 
--------------------------------------------------------------------------------
Cl   c Cl   s Spring (c-s)  Spring k 2       29.380000    eV*Ang^-2 0.000  0.800
                            Spring k 4       0.0000000    eV*Ang^-4 
--------------------------------------------------------------------------------
Na   c Na   c Buckingham    Buckingham A     1788.1900    eV        0.000 12.000
                            Buckingham rho  0.15900000    Ang       
                            Buckingham C     0.0000000    eV*Ang^6  
--------------------------------------------------------------------------------
Na   c O    s Buckingham    Buckingham A     1226.8400    eV        0.000 12.000
                            Buckingham rho  0.30700000    Ang       
                            Buckingham C     0.0000000    eV*Ang^6  
--------------------------------------------------------------------------------
Na   c Cl   s Buckingham    Buckingham A     2314.7000    eV        0.000 12.000
                            Buckingham rho  0.29000000    Ang       
                            Buckingham C     0.0000000    eV*Ang^6  
--------------------------------------------------------------------------------
O    s O    s Buckingham    Buckingham A     22764.300    eV        0.000 12.000
                            Buckingham rho  0.14900000    Ang       
                            Buckingham C     13.190000    eV*Ang^6  
--------------------------------------------------------------------------------
O    s Cl   s Buckingham    Buckingham A     8286.9100    eV        0.000 12.000
                            Buckingham rho  0.25900000    Ang       
                            Buckingham C     62.200000    eV*Ang^6  
--------------------------------------------------------------------------------
Cl   s Cl   s Buckingham    Buckingham A     1227.2000    eV        0.000 12.000
                            Buckingham rho  0.32100000    Ang       
                            Buckingham C     14.530000    eV*Ang^6  
--------------------------------------------------------------------------------

********************************************************************************
*  Output for configuration   1                                                *
********************************************************************************


  Components of energy : 

--------------------------------------------------------------------------------
  Interatomic potentials     =           5.13022605 eV    
  Monopole - monopole (real) =         -10.03624526 eV    
  Monopole - monopole (recip)=         -29.53581274 eV    
  Monopole - monopole (total)=         -39.57205800 eV    
--------------------------------------------------------------------------------
  Total lattice energy       =         -34.44183194 eV    
--------------------------------------------------------------------------------
  Total lattice energy       =           -3323.1103 kJ/(mole unit cells)
--------------------------------------------------------------------------------


  Number of variables =        1

  Maximum number of calculations  =          1000
  Maximum Hessian update interval =            10
  Maximum step size               =   1.000000000
  Maximum parameter tolerance     =   0.000010000
  Maximum function  tolerance     =   0.000010000
  Maximum gradient  tolerance     =   0.001000000
  Maximum gradient  component     =   0.010000000

  Symmetry constrained optimisation

  Symmetry used for second derivatives

  Cell parameters to be optimised using strains

  Newton-Raphson optimiser to be used

  BFGS hessian update to be used

  Lower half triangular hessian to be used

  Start of bulk optimisation :

  Cycle:      0 Energy:       -34.441832  Gnorm:      0.196570  CPU:    0.006
  ** Hessian calculated **
  Cycle:      1 Energy:       -34.441914  Gnorm:      0.000103  CPU:    0.008


  **** Optimisation achieved ****


  Final energy =     -34.44191447 eV
  Final Gnorm  =       0.00000000

  Components of energy : 

--------------------------------------------------------------------------------
  Interatomic potentials     =           5.09689708 eV    
  Monopole - monopole (real) =         -10.02781331 eV    
  Monopole - monopole (recip)=         -29.51099824 eV    
  Monopole - monopole (total)=         -39.53881155 eV    
--------------------------------------------------------------------------------
  Total lattice energy       =         -34.44191447 eV    
--------------------------------------------------------------------------------
  Total lattice energy       =           -3323.1183 kJ/(mole unit cells)
--------------------------------------------------------------------------------

  Final asymmetric unit coordinates :

--------------------------------------------------------------------------------
   No.  Atomic        x           y           z         Radius
        Label       (Frac)      (Frac)      (Frac)       (Angs) 
--------------------------------------------------------------------------------
     1  Cl    c     0.000000    0.000000    0.000000    0.000000
     2  O     c     0.500000    0.500000    0.500000    0.000000
     3  Na    c     0.500000    0.500000    0.000000    0.000000
     4  Cl    s     0.000000    0.000000    0.000000    0.000000
     5  O     s     0.500000    0.500000    0.500000    0.000000
--------------------------------------------------------------------------------

  Final Cartesian lattice vectors (Angstroms) :

        4.507787    0.000000    0.000000
        0.000000    4.507787    0.000000
        0.000000    0.000000    4.507787


  Final cell parameters and derivatives :

--------------------------------------------------------------------------------
       a            4.507787 Angstrom     dE/de1(xx)     0.000000 eV/strain
       b            4.507787 Angstrom     dE/de2(yy)     0.000000 eV/strain
       c            4.507787 Angstrom     dE/de3(zz)     0.000000 eV/strain
       alpha       90.000000 Degrees      dE/de4(yz)     0.000000 eV/strain
       beta        90.000000 Degrees      dE/de5(xz)     0.000000 eV/strain
       gamma       90.000000 Degrees      dE/de6(xy)     0.000000 eV/strain
--------------------------------------------------------------------------------

  Primitive cell volume =            91.598892 Angs**3

  Density of cell =      2.183054 g/cm**3

  Non-primitive cell volume =            91.598892 Angs**3


  Final internal derivatives :

--------------------------------------------------------------------------------
   No.  Atomic          a             b             c           Radius
        Label          (eV)          (eV)          (eV)        (eV/Angs)
--------------------------------------------------------------------------------
      1 Cl    c       0.000000      0.000000      0.000000      0.000000
      2 O     c       0.000000      0.000000      0.000000      0.000000
      3 Na    c       0.000000      0.000000      0.000000      0.000000
      4 Cl    s       0.000000      0.000000      0.000000      0.000000
      5 O     s       0.000000      0.000000      0.000000      0.000000
--------------------------------------------------------------------------------
  Maximum abs         0.000000      0.000000      0.000000      0.000000
--------------------------------------------------------------------------------

  Comparison of initial and final structures : 

--------------------------------------------------------------------------------
  Parameter   Initial value   Final value   Difference    Units      Percent
--------------------------------------------------------------------------------
    Volume        91.368216     91.598892     0.230676    Angs**3      0.25
    a              4.504000      4.507787     0.003787    Angstroms    0.08
    b              4.504000      4.507787     0.003787    Angstroms    0.08
    c              4.504000      4.507787     0.003787    Angstroms    0.08
    alpha         90.000000     90.000000     0.000000    Degrees      0.00
    beta          90.000000     90.000000     0.000000    Degrees      0.00
    gamma         90.000000     90.000000     0.000000    Degrees      0.00
      1 x          0.000000      0.000000     0.000000    Fractional   0.00
      1 y          0.000000      0.000000     0.000000    Fractional   0.00
      1 z          0.000000      0.000000     0.000000    Fractional   0.00
      2 x          0.500000      0.500000     0.000000    Fractional   0.00
      2 y          0.500000      0.500000     0.000000    Fractional   0.00
      2 z          0.500000      0.500000     0.000000    Fractional   0.00
      3 x          0.500000      0.500000     0.000000    Fractional   0.00
      3 y          0.500000      0.500000     0.000000    Fractional   0.00
      3 z          0.000000      0.000000     0.000000    Fractional   0.00
      4 x          0.000000      0.000000     0.000000    Fractional   0.00
      4 y          0.000000      0.000000     0.000000    Fractional   0.00
      4 z          0.000000      0.000000     0.000000    Fractional   0.00
      5 x          0.500000      0.500000     0.000000    Fractional   0.00
      5 y          0.500000      0.500000     0.000000    Fractional   0.00
      5 z          0.500000      0.500000     0.000000    Fractional   0.00
--------------------------------------------------------------------------------


  Born effective charge tensors : 

-------------------------------------------------------------------------------
  Atom             x           y             z
-------------------------------------------------------------------------------
    1 Cl    x      -1.0181     -0.0000      0.0000
            y      -0.0000     -1.0181      0.0000
            z       0.0000      0.0000     -1.0181
-------------------------------------------------------------------------------
    2 O     x      -2.2647      0.0000     -0.0000
            y       0.0000     -2.2647     -0.0000
            z      -0.0000     -0.0000     -2.2647
-------------------------------------------------------------------------------
    3 Na    x       1.2258     -0.0000      0.0000
            y      -0.0000      1.2258     -0.0000
            z       0.0000     -0.0000      0.8313
-------------------------------------------------------------------------------




  Elastic Constant Matrix: (Units=GPa)

-------------------------------------------------------------------------------
  Indices      1         2         3         4         5         6    
-------------------------------------------------------------------------------
       1     95.8177   20.0737   20.0737   -0.0000   -0.0000    0.0000
       2     20.0737   95.8177   20.0737   -0.0000   -0.0000    0.0000
       3     20.0737   20.0737   95.8177   -0.0000   -0.0000    0.0000
       4     -0.0000   -0.0000   -0.0000   20.0737   -0.0000    0.0000
       5     -0.0000   -0.0000   -0.0000   -0.0000   20.0737    0.0000
       6      0.0000    0.0000    0.0000    0.0000    0.0000   20.0737
-------------------------------------------------------------------------------


  Elastic Compliance Matrix: (Units=1/GPa)

-------------------------------------------------------------------------------
  Indices      1         2         3         4         5         6    
-------------------------------------------------------------------------------
       1    0.011253 -0.001949 -0.001949  0.000000  0.000000 -0.000000
       2   -0.001949  0.011253 -0.001949  0.000000  0.000000  0.000000
       3   -0.001949 -0.001949  0.011253  0.000000  0.000000 -0.000000
       4    0.000000  0.000000  0.000000  0.049816  0.000000 -0.000000
       5    0.000000  0.000000  0.000000  0.000000  0.049816 -0.000000
       6   -0.000000  0.000000 -0.000000 -0.000000 -0.000000  0.049816
-------------------------------------------------------------------------------

  Mechanical properties :

-------------------------------------------------------------------------------
  Convention :                    Reuss         Voigt         Hill
-------------------------------------------------------------------------------
  Bulk  Modulus (GPa)     =      45.32174      45.32174      45.32174
  Shear Modulus (GPa)     =      24.72085      27.19304      25.95695
-------------------------------------------------------------------------------
  Velocity S-wave (km/s)  =       3.36511       3.52937       3.44822
  Velocity P-wave (km/s)  =       5.98827       6.11304       6.05098
-------------------------------------------------------------------------------
  Compressibility (1/GPa) =    0.02206447
-------------------------------------------------------------------------------
  Stress axis :                     x             y             z
-------------------------------------------------------------------------------
  Youngs Moduli (GPa)     =      88.86373      88.86373      88.86373
-------------------------------------------------------------------------------
  Poissons Ratio (x)      =                     0.17321       0.17321
  Poissons Ratio (y)      =       0.17321                     0.17321
  Poissons Ratio (z)      =       0.17321       0.17321
-------------------------------------------------------------------------------


  Piezoelectric Strain Matrix: (Units=C/m**2)

-------------------------------------------------------------------------------
  Indices      1         2         3         4         5         6    
-------------------------------------------------------------------------------
       x    -0.00000  -0.00000  -0.00000   0.00000  -0.00000  -0.00000
       y    -0.00000  -0.00000   0.00000  -0.00000   0.00000   0.00000
       z    -0.00000  -0.00000  -0.00000  -0.00000   0.00000   0.00000
-------------------------------------------------------------------------------


  Piezoelectric Stress Matrix: (Units=10**-11 C/N)

-------------------------------------------------------------------------------
  Indices      1         2         3         4         5         6    
-------------------------------------------------------------------------------
       x    -0.00000   0.00000   0.00000   0.00000  -0.00000  -0.00000
       y    -0.00000  -0.00000   0.00000  -0.00000   0.00000   0.00000
       z     0.00000   0.00000  -0.00000  -0.00000   0.00000   0.00000
-------------------------------------------------------------------------------


  Static dielectric constant tensor : 

-------------------------------------------------------------------------------
              x         y         z
-------------------------------------------------------------------------------
       x    22.84729   0.00000   0.00000
       y     0.00000  22.84729  -0.00000
       z     0.00000  -0.00000  22.84729
--------------------------------------------------------------------------------

  High frequency dielectric constant tensor : 

-------------------------------------------------------------------------------
              x         y         z
-------------------------------------------------------------------------------
       x     1.47557   0.00000  -0.00000
       y     0.00000   1.47557  -0.00000
       z    -0.00000  -0.00000   1.47557
-------------------------------------------------------------------------------

  Static refractive indices : 

-------------------------------------------------------------------------------
    1 =    4.77988      2 =    4.77988      3 =    4.77988
-------------------------------------------------------------------------------

  High frequency refractive indices : 

-------------------------------------------------------------------------------
    1 =    1.21473      2 =    1.21473      3 =    1.21473
-------------------------------------------------------------------------------


  Time to end of optimisation =       0.0110 seconds

********************************************************************************
*  Defect calculation for configuration   1 :                                  *
********************************************************************************

  Total number of defects =      3

  Total charge on defect  =  -1.00

  Defect centre is at   0.5000   0.3750   0.1250  Frac

  Region 1 radius =  20.0000      Number of ions =   2568

  Number of symmetry inequivalent region 1 ions  =   1409

  Region 2 radius =  24.0000      Number of ions =   1836

  Number of symmetry inequivalent region 2a ions =    971

  Region 2a mode = 4 : screened electrostatics due to region 1 
                       neglect correction to region 1 forces from 2a
                       region 2a displacements based on defects only

  Region 2a ions will only interact with defects in region 1

  Vacancies:

--------------------------------------------------------------------------------
    Specification type     Symbol/Number         x          y          z
--------------------------------------------------------------------------------
    Fractional                               0.500000   0.500000   0.000000
    Fractional                               0.500000   0.000000   0.500000
--------------------------------------------------------------------------------

  Interstitials:

--------------------------------------------------------------------------------
    Specification type     Symbol/Number         x          y          z
--------------------------------------------------------------------------------
    Atom/Fractional         Na               0.500000   0.375000   0.125000
--------------------------------------------------------------------------------


  Symmetry reduced region 1 (Relative to defect centre) :

--------------------------------------------------------------------------------
   No.   Atomic       x            y             z       Radius  Multiplicity   
         Label      (Angs)       (Angs)        (Angs)    (Angs)     
--------------------------------------------------------------------------------
     1  Na    c      0.0000       0.0000       0.0000    0.0000     1    Defect
     2  O     c      0.0000       0.5635 *     1.6904 *  0.0000     1          
     3  O     c      0.0000       0.5635 *    -2.8174 *  0.0000     1          
     4  Cl    c      2.2539 *    -1.6904 *    -0.5635 *  0.0000     2          
     5  Na    c      2.2539 *     0.5635 *     1.6904 *  0.0000     2          
     6  Na    c      0.0000       2.8174 *     1.6904 *  0.0000     1          
     7  Na    c      0.0000      -1.6904 *    -2.8174 *  0.0000     1          
     8  Na    c      2.2539 *     0.5635 *    -2.8174 *  0.0000     2          
     9  Cl    c      2.2539 *     2.8174 *    -0.5635 *  0.0000     2          
    10  Na    c      0.0000       2.8174 *    -2.8174 *  0.0000     1          
    11  Na    c      0.0000       0.5635 *     3.9443 *  0.0000     1          
    12  Na    c      0.0000      -3.9443 *    -0.5635 *  0.0000     1          
    13  O     c      0.0000      -3.9443 *     1.6904 *  0.0000     1          
    14  Na    c     -4.5078 *     0.5635 *    -0.5635 *  0.0000     2          
    15  Cl    c      2.2539 *    -1.6904 *     3.9443 *  0.0000     2          
    16  O     c     -4.5078 *     0.5635 *     1.6904 *  0.0000     2          
    17  O     c      0.0000      -3.9443 *    -2.8174 *  0.0000     1          
    18  Na    c      2.2539 *    -3.9443 *     1.6904 *  0.0000     2          
    19  Na    c      0.0000       5.0713 *    -0.5635 *  0.0000     1          
    20  Na    c      0.0000       0.5635 *    -5.0713 *  0.0000     1          
    21  Na    c     -4.5078 *    -1.6904 *     1.6904 *  0.0000     2          
    22  O     c      0.0000       5.0713 *     1.6904 *  0.0000     1          
    23  Cl    c      2.2539 *     2.8174 *     3.9443 *  0.0000     2          
    24  O     c     -4.5078 *     0.5635 *    -2.8174 *  0.0000     2          
    25  Na    c      2.2539 *    -3.9443 *    -2.8174 *  0.0000     2          
    26  Na    c     -4.5078 *    -1.6904 *    -2.8174 *  0.0000     2          
    27  Na    c     -4.5078 *     2.8174 *     1.6904 *  0.0000     2          
    28  Na    c      0.0000      -3.9443 *     3.9443 *  0.0000     1          
    29  O     c      0.0000       5.0713 *    -2.8174 *  0.0000     1          
    30  Na    c      2.2539 *     5.0713 *     1.6904 *  0.0000     2          
    31  Cl    c      2.2539 *    -1.6904 *    -5.0713 *  0.0000     2          
    32  Na    c     -4.5078 *     0.5635 *     3.9443 *  0.0000     2          
    33  Na    c     -4.5078 *     2.8174 *    -2.8174 *  0.0000     2          
    34  Na    c     -4.5078 *    -3.9443 *    -0.5635 *  0.0000     2          
    35  Na    c      2.2539 *     5.0713 *    -2.8174 *  0.0000     2          
    36  O     c      0.0000       0.5635 *     6.1982 *  0.0000     1          
    37  Cl    c      2.2539 *     2.8174 *    -5.0713 *  0.0000     2          
    38  O     c     -4.5078 *    -3.9443 *     1.6904 *  0.0000     2          
    39  Na    c      0.0000       5.0713 *     3.9443 *  0.0000     1          
    40  Na    c      0.0000      -1.6904 *     6.1982 *  0.0000     1          
    41  Na    c      0.0000      -6.1982 *     1.6904 *  0.0000     1          
    42  Na    c      0.0000      -3.9443 *    -5.0713 *  0.0000     1          
    43  Cl    c      2.2539 *    -6.1982 *    -0.5635 *  0.0000     2          
    44  Na    c      2.2539 *     0.5635 *     6.1982 *  0.0000     2          
    45  O     c     -4.5078 *    -3.9443 *    -2.8174 *  0.0000     2          
    46  Na    c     -4.5078 *     5.0713 *    -0.5635 *  0.0000     2          
    47  Na    c      0.0000       2.8174 *     6.1982 *  0.0000     1          
    48  Na    c      0.0000      -6.1982 *    -2.8174 *  0.0000     1          
    49  Na    c      4.5078 *     0.5635 *    -5.0713 *  0.0000     2          
    50  O     c     -4.5078 *     5.0713 *     1.6904 *  0.0000     2          
    51  Cl    c      6.7617 *    -1.6904 *    -0.5635 *  0.0000     2          
    52  Na    c      6.7617 *     0.5635 *     1.6904 *  0.0000     2          
    53  Na    c      0.0000       5.0713 *    -5.0713 *  0.0000     1          
    54  Na    c     -4.5078 *    -3.9443 *     3.9443 *  0.0000     2          
    55  O     c     -4.5078 *     5.0713 *    -2.8174 *  0.0000     2          
    56  O     c      0.0000       0.5635 *    -7.3252 *  0.0000     1          
    57  Cl    c      6.7617 *     2.8174 *    -0.5635 *  0.0000     2          
    58  O     c      0.0000      -3.9443 *     6.1982 *  0.0000     1          
    59  Na    c      6.7617 *     0.5635 *    -2.8174 *  0.0000     2          
    60  Na    c      0.0000       7.3252 *     1.6904 *  0.0000     1          
    61  Na    c      0.0000      -1.6904 *    -7.3252 *  0.0000     1          
    62  Cl    c      2.2539 *     7.3252 *    -0.5635 *  0.0000     2          
    63  Na    c      2.2539 *     0.5635 *    -7.3252 *  0.0000     2          
    64  Cl    c      2.2539 *    -6.1982 *     3.9443 *  0.0000     2          
    65  O     c      4.5078 *     0.5635 *     6.1982 *  0.0000     2          
    66  Na    c      2.2539 *    -3.9443 *     6.1982 *  0.0000     2          
    67  Na    c     -4.5078 *     5.0713 *     3.9443 *  0.0000     2          
    68  Na    c      0.0000       2.8174 *    -7.3252 *  0.0000     1          
    69  Na    c      0.0000       7.3252 *    -2.8174 *  0.0000     1          
    70  Na    c      4.5078 *    -6.1982 *     1.6904 *  0.0000     2          
    71  Na    c     -4.5078 *    -1.6904 *     6.1982 *  0.0000     2          
    72  Na    c     -4.5078 *    -3.9443 *    -5.0713 *  0.0000     2          
    73  Cl    c      6.7617 *    -1.6904 *     3.9443 *  0.0000     2          
    74  O     c      0.0000       5.0713 *     6.1982 *  0.0000     1          
    75  Na    c      6.7617 *    -3.9443 *     1.6904 *  0.0000     2          
    76  Na    c      4.5078 *    -6.1982 *    -2.8174 *  0.0000     2          
    77  Na    c     -4.5078 *     2.8174 *     6.1982 *  0.0000     2          
    78  Cl    c      2.2539 *    -6.1982 *    -5.0713 *  0.0000     2          
    79  Cl    c      6.7617 *     2.8174 *     3.9443 *  0.0000     2          
    80  O     c      0.0000      -3.9443 *    -7.3252 *  0.0000     1          
    81  Na    c      2.2539 *     5.0713 *     6.1982 *  0.0000     2          
    82  Na    c      6.7617 *    -3.9443 *    -2.8174 *  0.0000     2          
    83  Na    c     -4.5078 *     5.0713 *    -5.0713 *  0.0000     2          
    84  Na    c      0.0000       0.5635 *     8.4521 *  0.0000     1          
    85  Na    c      0.0000      -8.4521 *    -0.5635 *  0.0000     1          
    86  Cl    c      2.2539 *     7.3252 *     3.9443 *  0.0000     2          
    87  Cl    c      6.7617 *    -1.6904 *    -5.0713 *  0.0000     2          
    88  O     c      0.0000      -8.4521 *     1.6904 *  0.0000     1          
    89  O     c      4.5078 *     0.5635 *    -7.3252 *  0.0000     2          
    90  O     c     -4.5078 *    -3.9443 *     6.1982 *  0.0000     2          
    91  Na    c      2.2539 *    -3.9443 *    -7.3252 *  0.0000     2          
    92  Na    c      6.7617 *     5.0713 *     1.6904 *  0.0000     2          
    93  Na    c      0.0000      -6.1982 *     6.1982 *  0.0000     1          
    94  Na    c      4.5078 *     7.3252 *     1.6904 *  0.0000     2          
    95  Na    c     -4.5078 *    -1.6904 *    -7.3252 *  0.0000     2          
    96  Cl    c      2.2539 *    -1.6904 *     8.4521 *  0.0000     2          
    97  Cl    c      6.7617 *     2.8174 *    -5.0713 *  0.0000     2          
    98  O     c      0.0000       5.0713 *    -7.3252 *  0.0000     1          
    99  O     c      0.0000      -8.4521 *    -2.8174 *  0.0000     1          
   100  Na    c      2.2539 *    -8.4521 *     1.6904 *  0.0000     2          
   101  Na    c      6.7617 *     5.0713 *    -2.8174 *  0.0000     2          
   102  Na    c      9.0156 *     0.5635 *    -0.5635 *  0.0000     2          
   103  Na    c      4.5078 *     7.3252 *    -2.8174 *  0.0000     2          
   104  Na    c     -4.5078 *     2.8174 *    -7.3252 *  0.0000     2          
   105  Cl    c      2.2539 *     2.8174 *     8.4521 *  0.0000     2          
   106  Cl    c      2.2539 *     7.3252 *    -5.0713 *  0.0000     2          
   107  O     c      4.5078 *     5.0713 *     6.1982 *  0.0000     2          
   108  O     c      9.0156 *     0.5635 *     1.6904 *  0.0000     2          
   109  Na    c      2.2539 *     5.0713 *    -7.3252 *  0.0000     2          
   110  Na    c      2.2539 *    -8.4521 *    -2.8174 *  0.0000     2          
   111  Na    c      6.7617 *     0.5635 *     6.1982 *  0.0000     2          
   112  Cl    c      6.7617 *    -6.1982 *    -0.5635 *  0.0000     2          
   113  Na    c      0.0000      -8.4521 *     3.9443 *  0.0000     1          
   114  Na    c      9.0156 *    -1.6904 *     1.6904 *  0.0000     2          
   115  Na    c      0.0000      -3.9443 *     8.4521 *  0.0000     1          
   116  O     c      9.0156 *     0.5635 *    -2.8174 *  0.0000     2          
   117  O     c     -4.5078 *    -3.9443 *    -7.3252 *  0.0000     2          
   118  Na    c      0.0000       9.5790 *    -0.5635 *  0.0000     1          
   119  Na    c     -4.5078 *     0.5635 *     8.4521 *  0.0000     2          
   120  Na    c     -4.5078 *    -8.4521 *    -0.5635 *  0.0000     2          
   121  Na    c      0.0000       7.3252 *     6.1982 *  0.0000     1          
   122  Na    c      0.0000      -6.1982 *    -7.3252 *  0.0000     1          
   123  Na    c      9.0156 *     2.8174 *     1.6904 *  0.0000     2          
   124  Na    c      9.0156 *    -1.6904 *    -2.8174 *  0.0000     2          
   125  Na    c      0.0000       0.5635 *    -9.5790 *  0.0000     1          
   126  O     c      0.0000       9.5790 *     1.6904 *  0.0000     1          
   127  O     c     -4.5078 *    -8.4521 *     1.6904 *  0.0000     2          
   128  Na    c      0.0000       5.0713 *     8.4521 *  0.0000     1          
   129  Na    c      9.0156 *     0.5635 *     3.9443 *  0.0000     2          
   130  Na    c      9.0156 *     2.8174 *    -2.8174 *  0.0000     2          
   131  Na    c      0.0000      -8.4521 *    -5.0713 *  0.0000     1          
   132  Na    c      9.0156 *    -3.9443 *    -0.5635 *  0.0000     2          
   133  Na    c      4.5078 *    -6.1982 *     6.1982 *  0.0000     2          
   134  O     c      0.0000       9.5790 *    -2.8174 *  0.0000     1          
   135  Na    c      2.2539 *     9.5790 *     1.6904 *  0.0000     2          
   136  O     c      4.5078 *     5.0713 *    -7.3252 *  0.0000     2          
   137  O     c     -4.5078 *    -8.4521 *    -2.8174 *  0.0000     2          
   138  Na    c      6.7617 *     0.5635 *    -7.3252 *  0.0000     2          
   139  Cl    c      6.7617 *     7.3252 *    -0.5635 *  0.0000     2          
   140  Cl    c      6.7617 *    -6.1982 *     3.9443 *  0.0000     2          
   141  O     c      9.0156 *    -3.9443 *     1.6904 *  0.0000     2          
   142  Na    c      6.7617 *    -3.9443 *     6.1982 *  0.0000     2          
   143  Cl    c      2.2539 *    -1.6904 *    -9.5790 *  0.0000     2          
   144  Na    c      2.2539 *     9.5790 *    -2.8174 *  0.0000     2          
   145  O     c      9.0156 *    -3.9443 *    -2.8174 *  0.0000     2          
   146  Cl    c      2.2539 *     2.8174 *    -9.5790 *  0.0000     2          
   147  Na    c      0.0000       9.5790 *     3.9443 *  0.0000     1          
   148  Na    c      9.0156 *     5.0713 *    -0.5635 *  0.0000     2          
   149  Na    c     -4.5078 *    -8.4521 *     3.9443 *  0.0000     2          
   150  Na    c      0.0000       7.3252 *    -7.3252 *  0.0000     1          
   151  Na    c      4.5078 *    -3.9443 *     8.4521 *  0.0000     2          
   152  Na    c      9.0156 *     0.5635 *    -5.0713 *  0.0000     2          
   153  Na    c      0.0000      -3.9443 *    -9.5790 *  0.0000     1          
   154  O     c      0.0000      -8.4521 *     6.1982 *  0.0000     1          
   155  O     c      9.0156 *     5.0713 *     1.6904 *  0.0000     2          
   156  Na    c      6.7617 *     5.0713 *     6.1982 *  0.0000     2          
   157  Cl    c      6.7617 *    -6.1982 *    -5.0713 *  0.0000     2          
   158  Na    c     -4.5078 *     9.5790 *    -0.5635 *  0.0000     2          
   159  Na    c      9.0156 *    -3.9443 *     3.9443 *  0.0000     2          
   160  Na    c      4.5078 *     7.3252 *     6.1982 *  0.0000     2          
   161  Na    c      4.5078 *    -6.1982 *    -7.3252 *  0.0000     2          
   162  Na    c     -4.5078 *     0.5635 *    -9.5790 *  0.0000     2          
   163  O     c     -4.5078 *     9.5790 *     1.6904 *  0.0000     2          
   164  Cl    c      2.2539 *    -6.1982 *     8.4521 *  0.0000     2          
   165  O     c      0.0000       0.5635 *    10.7060 *  0.0000     1          
   166  O     c      9.0156 *     5.0713 *    -2.8174 *  0.0000     2          
   167  Na    c      2.2539 *    -8.4521 *     6.1982 *  0.0000     2          
   168  Cl    c      6.7617 *     7.3252 *     3.9443 *  0.0000     2          
   169  Na    c      6.7617 *    -3.9443 *    -7.3252 *  0.0000     2          
   170  Na    c      0.0000       9.5790 *    -5.0713 *  0.0000     1          
   171  Na    c     -4.5078 *     5.0713 *     8.4521 *  0.0000     2          
   172  Na    c      0.0000      -1.6904 *    10.7060 *  0.0000     1          
   173  Na    c      0.0000     -10.7060 *     1.6904 *  0.0000     1          
   174  Na    c      4.5078 *    -8.4521 *    -5.0713 *  0.0000     2          
   175  Na    c      0.0000       5.0713 *    -9.5790 *  0.0000     1          
   176  O     c     -4.5078 *     9.5790 *    -2.8174 *  0.0000     2          
   177  Cl    c      2.2539 *   -10.7060 *    -0.5635 *  0.0000     2          
   178  O     c      9.0156 *     0.5635 *     6.1982 *  0.0000     2          
   179  Na    c      2.2539 *     0.5635 *    10.7060 *  0.0000     2          
   180  Cl    c      6.7617 *    -1.6904 *     8.4521 *  0.0000     2          
   181  Na    c      6.7617 *    -8.4521 *     1.6904 *  0.0000     2          
   182  Na    c      9.0156 *     5.0713 *     3.9443 *  0.0000     2          
   183  Na    c      0.0000       2.8174 *    10.7060 *  0.0000     1          
   184  Na    c      0.0000     -10.7060 *    -2.8174 *  0.0000     1          
   185  Na    c      9.0156 *    -3.9443 *    -5.0713 *  0.0000     2          
   186  Na    c      9.0156 *    -1.6904 *     6.1982 *  0.0000     2          
   187  Na    c      9.0156 *    -6.1982 *     1.6904 *  0.0000     2          
   188  O     c      0.0000      -8.4521 *    -7.3252 *  0.0000     1          
   189  Na    c      6.7617 *     5.0713 *    -7.3252 *  0.0000     2          
   190  Cl    c      6.7617 *     2.8174 *     8.4521 *  0.0000     2          
   191  Na    c      6.7617 *    -8.4521 *    -2.8174 *  0.0000     2          
   192  Cl    c      6.7617 *     7.3252 *    -5.0713 *  0.0000     2          
   193  Na    c     -4.5078 *     9.5790 *     3.9443 *  0.0000     2          
   194  Na    c      4.5078 *     7.3252 *    -7.3252 *  0.0000     2          
   195  Na    c      9.0156 *     2.8174 *     6.1982 *  0.0000     2          
   196  Na    c      9.0156 *    -6.1982 *    -2.8174 *  0.0000     2          
   197  Na    c      4.5078 *    -3.9443 *    -9.5790 *  0.0000     2          
   198  Cl    c      2.2539 *     7.3252 *     8.4521 *  0.0000     2          
   199  Cl    c     11.2695 *    -1.6904 *    -0.5635 *  0.0000     2          
   200  O     c      0.0000       9.5790 *     6.1982 *  0.0000     1          
   201  O     c      0.0000      -3.9443 *    10.7060 *  0.0000     1          
   202  O     c     -4.5078 *    -8.4521 *     6.1982 *  0.0000     2          
   203  Na    c      2.2539 *    -8.4521 *    -7.3252 *  0.0000     2          
   204  Na    c     11.2695 *     0.5635 *     1.6904 *  0.0000     2          
   205  Na    c      9.0156 *     5.0713 *    -5.0713 *  0.0000     2          
   206  Cl    c      2.2539 *   -10.7060 *     3.9443 *  0.0000     2          
   207  Cl    c     11.2695 *     2.8174 *    -0.5635 *  0.0000     2          
   208  O     c      4.5078 *     0.5635 *    10.7060 *  0.0000     2          
   209  O     c      9.0156 *     0.5635 *    -7.3252 *  0.0000     2          
   210  Na    c      2.2539 *     9.5790 *     6.1982 *  0.0000     2          
   211  Na    c      2.2539 *    -3.9443 *    10.7060 *  0.0000     2          
   212  Na    c     11.2695 *     0.5635 *    -2.8174 *  0.0000     2          
   213  Cl    c      2.2539 *    -6.1982 *    -9.5790 *  0.0000     2          
   214  O     c      9.0156 *    -3.9443 *     6.1982 *  0.0000     2          
   215  Na    c     -4.5078 *     9.5790 *    -5.0713 *  0.0000     2          
   216  Na    c      4.5078 *    -1.6904 *    10.7060 *  0.0000     2          
   217  Na    c      4.5078 *   -10.7060 *     1.6904 *  0.0000     2          
   218  Na    c      9.0156 *     7.3252 *     1.6904 *  0.0000     2          
   219  Na    c      9.0156 *    -1.6904 *    -7.3252 *  0.0000     2          
   220  Na    c      4.5078 *     5.0713 *    -9.5790 *  0.0000     2          
   221  O     c      0.0000       0.5635 *   -11.8329 *  0.0000     1          
   222  O     c      0.0000       5.0713 *    10.7060 *  0.0000     1          
   223  Na    c      6.7617 *     9.5790 *     1.6904 *  0.0000     2          
   224  Cl    c      6.7617 *    -1.6904 *    -9.5790 *  0.0000     2          
   225  Na    c      0.0000      11.8329 *     1.6904 *  0.0000     1          
   226  Na    c      0.0000      -1.6904 *   -11.8329 *  0.0000     1          
   227  Na    c      0.0000      -8.4521 *     8.4521 *  0.0000     1          
   228  Na    c      4.5078 *     2.8174 *    10.7060 *  0.0000     2          
   229  Na    c      4.5078 *   -10.7060 *    -2.8174 *  0.0000     2          
   230  Na    c      9.0156 *     2.8174 *    -7.3252 *  0.0000     2          
   231  Na    c      9.0156 *     7.3252 *    -2.8174 *  0.0000     2          
   232  Cl    c      2.2539 *    11.8329 *    -0.5635 *  0.0000     2          
   233  Cl    c      2.2539 *   -10.7060 *    -5.0713 *  0.0000     2          
   234  Cl    c     11.2695 *    -1.6904 *     3.9443 *  0.0000     2          
   235  O     c      0.0000       9.5790 *    -7.3252 *  0.0000     1          
   236  O     c      9.0156 *     5.0713 *     6.1982 *  0.0000     2          
   237  O     c     -4.5078 *    -8.4521 *    -7.3252 *  0.0000     2          
   238  Na    c      2.2539 *     0.5635 *   -11.8329 *  0.0000     2          
   239  Na    c      2.2539 *     5.0713 *    10.7060 *  0.0000     2          
   240  Na    c      6.7617 *     9.5790 *    -2.8174 *  0.0000     2          
   241  Na    c     11.2695 *    -3.9443 *     1.6904 *  0.0000     2          
   242  Cl    c      6.7617 *     2.8174 *    -9.5790 *  0.0000     2          
   243  Na    c      0.0000       2.8174 *   -11.8329 *  0.0000     1          
   244  Na    c      0.0000      11.8329 *    -2.8174 *  0.0000     1          
   245  Cl    c     11.2695 *     2.8174 *     3.9443 *  0.0000     2          
   246  O     c      4.5078 *     9.5790 *     6.1982 *  0.0000     2          
   247  Na    c      2.2539 *     9.5790 *    -7.3252 *  0.0000     2          
   248  Na    c     11.2695 *    -3.9443 *    -2.8174 *  0.0000     2          
   249  Cl    c      2.2539 *     7.3252 *    -9.5790 *  0.0000     2          
   250  O     c      4.5078 *    -3.9443 *    10.7060 *  0.0000     2          
   251  O     c      9.0156 *    -3.9443 *    -7.3252 *  0.0000     2          
   252  Na    c      9.0156 *     0.5635 *     8.4521 *  0.0000     2          
   253  Na    c      9.0156 *    -8.4521 *    -0.5635 *  0.0000     2          
   254  Na    c      0.0000      -6.1982 *    10.7060 *  0.0000     1          
   255  Na    c      0.0000     -10.7060 *     6.1982 *  0.0000     1          
   256  Cl    c     11.2695 *    -1.6904 *    -5.0713 *  0.0000     2          
   257  O     c      0.0000      -3.9443 *   -11.8329 *  0.0000     1          
   258  O     c      9.0156 *    -8.4521 *     1.6904 *  0.0000     2          
   259  Na    c     11.2695 *     5.0713 *     1.6904 *  0.0000     2          
   260  Cl    c      6.7617 *    -6.1982 *     8.4521 *  0.0000     2          
   261  Na    c      6.7617 *    -8.4521 *     6.1982 *  0.0000     2          
   262  Na    c      9.0156 *    -6.1982 *     6.1982 *  0.0000     2          
   263  Cl    c      2.2539 *    11.8329 *     3.9443 *  0.0000     2          
   264  Cl    c     11.2695 *     2.8174 *    -5.0713 *  0.0000     2          
   265  O     c      4.5078 *     0.5635 *   -11.8329 *  0.0000     2          
   266  O     c      9.0156 *     5.0713 *    -7.3252 *  0.0000     2          
   267  O     c      9.0156 *    -8.4521 *    -2.8174 *  0.0000     2          
   268  O     c     -4.5078 *     5.0713 *    10.7060 *  0.0000     2          
   269  Na    c      2.2539 *    -3.9443 *   -11.8329 *  0.0000     2          
   270  Na    c     11.2695 *     5.0713 *    -2.8174 *  0.0000     2          
   271  Cl    c      6.7617 *   -10.7060 *    -0.5635 *  0.0000     2          
   272  Na    c      6.7617 *     0.5635 *    10.7060 *  0.0000     2          
   273  Na    c      4.5078 *    11.8329 *     1.6904 *  0.0000     2          
   274  Na    c     -4.5078 *    -1.6904 *   -11.8329 *  0.0000     2          
   275  Na    c      0.0000       9.5790 *     8.4521 *  0.0000     1          
   276  Na    c      4.5078 *    -8.4521 *     8.4521 *  0.0000     2          
   277  Na    c      0.0000      -8.4521 *    -9.5790 *  0.0000     1          
   278  Cl    c     11.2695 *    -6.1982 *    -0.5635 *  0.0000     2          
   279  O     c      0.0000       5.0713 *   -11.8329 *  0.0000     1          
   280  O     c      4.5078 *     9.5790 *    -7.3252 *  0.0000     2          
   281  Na    c     11.2695 *     0.5635 *     6.1982 *  0.0000     2          
   282  Na    c      4.5078 *     2.8174 *   -11.8329 *  0.0000     2          
   283  Na    c      4.5078 *    11.8329 *    -2.8174 *  0.0000     2          
   284  Na    c      9.0156 *    -8.4521 *     3.9443 *  0.0000     2          
   285  Na    c      0.0000       7.3252 *    10.7060 *  0.0000     1          
   286  Na    c      0.0000     -10.7060 *    -7.3252 *  0.0000     1          
   287  Na    c      9.0156 *    -3.9443 *     8.4521 *  0.0000     2          
   288  Na    c      0.0000       0.5635 *    12.9599 *  0.0000     1          
   289  Na    c      0.0000     -12.9599 *    -0.5635 *  0.0000     1          
   290  Na    c      2.2539 *     5.0713 *   -11.8329 *  0.0000     2          
   291  Cl    c      2.2539 *    11.8329 *    -5.0713 *  0.0000     2          
   292  Cl    c      6.7617 *     7.3252 *     8.4521 *  0.0000     2          
   293  Na    c      6.7617 *    -8.4521 *    -7.3252 *  0.0000     2          
   294  O     c      0.0000     -12.9599 *     1.6904 *  0.0000     1          
   295  Na    c      9.0156 *     9.5790 *    -0.5635 *  0.0000     2          
   296  Na    c      4.5078 *    -6.1982 *    10.7060 *  0.0000     2          
   297  Na    c      4.5078 *   -10.7060 *     6.1982 *  0.0000     2          
   298  Na    c      9.0156 *     7.3252 *     6.1982 *  0.0000     2          
   299  Na    c      9.0156 *    -6.1982 *    -7.3252 *  0.0000     2          
   300  Na    c      9.0156 *     0.5635 *    -9.5790 *  0.0000     2          
   301  O     c      4.5078 *    -3.9443 *   -11.8329 *  0.0000     2          
   302  O     c      9.0156 *     9.5790 *     1.6904 *  0.0000     2          
   303  Na    c      6.7617 *     9.5790 *     6.1982 *  0.0000     2          
   304  Cl    c      6.7617 *   -10.7060 *     3.9443 *  0.0000     2          
   305  Na    c      6.7617 *    -3.9443 *    10.7060 *  0.0000     2          
   306  Cl    c      2.2539 *    -1.6904 *    12.9599 *  0.0000     2          
   307  Cl    c      6.7617 *    -6.1982 *    -9.5790 *  0.0000     2          
   308  O     c      0.0000     -12.9599 *    -2.8174 *  0.0000     1          
   309  Na    c      2.2539 *   -12.9599 *     1.6904 *  0.0000     2          
   310  Na    c      0.0000      11.8329 *     6.1982 *  0.0000     1          
   311  Na    c      0.0000      -6.1982 *   -11.8329 *  0.0000     1          
   312  Na    c      9.0156 *     5.0713 *     8.4521 *  0.0000     2          
   313  Na    c      9.0156 *    -8.4521 *    -5.0713 *  0.0000     2          
   314  Cl    c     11.2695 *     7.3252 *    -0.5635 *  0.0000     2          
   315  Cl    c     11.2695 *    -6.1982 *     3.9443 *  0.0000     2          
   316  O     c      9.0156 *     9.5790 *    -2.8174 *  0.0000     2          
   317  Na    c     11.2695 *     0.5635 *    -7.3252 *  0.0000     2          
   318  Na    c     11.2695 *    -3.9443 *     6.1982 *  0.0000     2          
   319  Cl    c      2.2539 *     2.8174 *    12.9599 *  0.0000     2          
   320  Na    c      2.2539 *   -12.9599 *    -2.8174 *  0.0000     2          
   321  Na    c      0.0000       9.5790 *    -9.5790 *  0.0000     1          
   322  Na    c      4.5078 *     9.5790 *     8.4521 *  0.0000     2          
   323  Na    c     -4.5078 *    -8.4521 *    -9.5790 *  0.0000     2          
   324  Na    c      0.0000      -3.9443 *    12.9599 *  0.0000     1          
   325  Na    c      0.0000     -12.9599 *     3.9443 *  0.0000     1          
   326  Na    c     13.5234 *     0.5635 *    -0.5635 *  0.0000     2          
   327  Cl    c      6.7617 *    11.8329 *    -0.5635 *  0.0000     2          
   328  O     c      0.0000      -8.4521 *    10.7060 *  0.0000     1          
   329  O     c      4.5078 *     5.0713 *   -11.8329 *  0.0000     2          
   330  Na    c      6.7617 *     0.5635 *   -11.8329 *  0.0000     2          
   331  Na    c      6.7617 *     5.0713 *    10.7060 *  0.0000     2          
   332  Cl    c      6.7617 *   -10.7060 *    -5.0713 *  0.0000     2          
   333  O     c     13.5234 *     0.5635 *     1.6904 *  0.0000     2          
   334  Na    c      9.0156 *     9.5790 *     3.9443 *  0.0000     2          
   335  Na    c      4.5078 *     7.3252 *    10.7060 *  0.0000     2          
   336  Na    c      4.5078 *   -10.7060 *    -7.3252 *  0.0000     2          
   337  Na    c      9.0156 *     7.3252 *    -7.3252 *  0.0000     2          
   338  Na    c      9.0156 *    -3.9443 *    -9.5790 *  0.0000     2          
   339  Na    c     13.5234 *    -1.6904 *     1.6904 *  0.0000     2          
   340  Na    c      4.5078 *     0.5635 *    12.9599 *  0.0000     2          
   341  Na    c      4.5078 *   -12.9599 *    -0.5635 *  0.0000     2          
   342  Cl    c     11.2695 *    -6.1982 *    -5.0713 *  0.0000     2          
   343  O     c      9.0156 *    -8.4521 *     6.1982 *  0.0000     2          
   344  Na    c      6.7617 *     9.5790 *    -7.3252 *  0.0000     2          
   345  Na    c     11.2695 *     5.0713 *     6.1982 *  0.0000     2          
   346  Cl    c      2.2539 *   -10.7060 *     8.4521 *  0.0000     2          
   347  Na    c      2.2539 *    -8.4521 *    10.7060 *  0.0000     2          
   348  Cl    c      6.7617 *     7.3252 *    -9.5790 *  0.0000     2          
   349  O     c      4.5078 *   -12.9599 *     1.6904 *  0.0000     2          
   350  O     c     13.5234 *     0.5635 *    -2.8174 *  0.0000     2          
   351  Na    c      0.0000       7.3252 *   -11.8329 *  0.0000     1          
   352  Na    c      0.0000      11.8329 *    -7.3252 *  0.0000     1          
   353  Na    c     13.5234 *     2.8174 *     1.6904 *  0.0000     2          
   354  Na    c     13.5234 *    -1.6904 *    -2.8174 *  0.0000     2          
   355  Na    c      0.0000       5.0713 *    12.9599 *  0.0000     1          
   356  Na    c      0.0000     -12.9599 *    -5.0713 *  0.0000     1          
   357  Cl    c     11.2695 *     7.3252 *     3.9443 *  0.0000     2          
   358  O     c      9.0156 *     0.5635 *    10.7060 *  0.0000     2          
   359  Na    c     11.2695 *    -3.9443 *    -7.3252 *  0.0000     2          
   360  O     c      4.5078 *   -12.9599 *    -2.8174 *  0.0000     2          
   361  Na    c      4.5078 *    11.8329 *     6.1982 *  0.0000     2          
   362  Na    c      4.5078 *    -6.1982 *   -11.8329 *  0.0000     2          
   363  Na    c      9.0156 *     9.5790 *    -5.0713 *  0.0000     2          
   364  Na    c      9.0156 *    -1.6904 *    10.7060 *  0.0000     2          
   365  Na    c      9.0156 *   -10.7060 *     1.6904 *  0.0000     2          
   366  Na    c      0.0000       0.5635 *   -14.0868 *  0.0000     1          
   367  Na    c      0.0000      14.0868 *    -0.5635 *  0.0000     1          
   368  Na    c      9.0156 *     5.0713 *    -9.5790 *  0.0000     2          
   369  Na    c     13.5234 *     2.8174 *    -2.8174 *  0.0000     2          
   370  Na    c     13.5234 *     0.5635 *     3.9443 *  0.0000     2          
   371  Na    c     13.5234 *    -3.9443 *    -0.5635 *  0.0000     2          
   372  Cl    c      6.7617 *    11.8329 *     3.9443 *  0.0000     2          
   373  Cl    c     11.2695 *    -1.6904 *     8.4521 *  0.0000     2          
   374  Na    c      6.7617 *    -3.9443 *   -11.8329 *  0.0000     2          
   375  Na    c     11.2695 *    -8.4521 *     1.6904 *  0.0000     2          
   376  O     c      0.0000      14.0868 *     1.6904 *  0.0000     1          
   377  O     c     13.5234 *    -3.9443 *     1.6904 *  0.0000     2          
   378  Na    c     -4.5078 *     9.5790 *    -9.5790 *  0.0000     2          
   379  Na    c      9.0156 *     2.8174 *    10.7060 *  0.0000     2          
   380  Na    c      9.0156 *   -10.7060 *    -2.8174 *  0.0000     2          
   381  Na    c      4.5078 *    -3.9443 *    12.9599 *  0.0000     2          
   382  Na    c      4.5078 *   -12.9599 *     3.9443 *  0.0000     2          
   383  Cl    c     11.2695 *     2.8174 *     8.4521 *  0.0000     2          
   384  Cl    c     11.2695 *     7.3252 *    -5.0713 *  0.0000     2          
   385  O     c      0.0000       9.5790 *    10.7060 *  0.0000     1          
   386  O     c      9.0156 *    -8.4521 *    -7.3252 *  0.0000     2          
   387  O     c     -4.5078 *    -8.4521 *    10.7060 *  0.0000     2          
   388  Na    c     11.2695 *     5.0713 *    -7.3252 *  0.0000     2          
   389  Na    c     11.2695 *    -8.4521 *    -2.8174 *  0.0000     2          
   390  Cl    c      2.2539 *    -1.6904 *   -14.0868 *  0.0000     2          
   391  O     c      0.0000      14.0868 *    -2.8174 *  0.0000     1          
   392  Na    c      2.2539 *    14.0868 *     1.6904 *  0.0000     2          
   393  O     c      0.0000     -12.9599 *     6.1982 *  0.0000     1          
   394  O     c     13.5234 *    -3.9443 *    -2.8174 *  0.0000     2          
   395  Na    c     13.5234 *     5.0713 *    -0.5635 *  0.0000     2          
   396  Na    c     13.5234 *     0.5635 *    -5.0713 *  0.0000     2          
   397  Cl    c      6.7617 *    11.8329 *    -5.0713 *  0.0000     2          
   398  O     c      0.0000      -8.4521 *   -11.8329 *  0.0000     1          
   399  O     c      9.0156 *     9.5790 *     6.1982 *  0.0000     2          
   400  Na    c      2.2539 *     9.5790 *    10.7060 *  0.0000     2          
   401  Na    c      6.7617 *     5.0713 *   -11.8329 *  0.0000     2          
   402  Cl    c      2.2539 *     2.8174 *   -14.0868 *  0.0000     2          
   403  Cl    c      2.2539 *   -10.7060 *    -9.5790 *  0.0000     2          
   404  O     c      9.0156 *    -3.9443 *    10.7060 *  0.0000     2          
   405  O     c     13.5234 *     5.0713 *     1.6904 *  0.0000     2          
   406  Na    c      2.2539 *    14.0868 *    -2.8174 *  0.0000     2          
   407  Cl    c      2.2539 *    -6.1982 *    12.9599 *  0.0000     2          
   408  Na    c      2.2539 *   -12.9599 *     6.1982 *  0.0000     2          
   409  Na    c      4.5078 *    11.8329 *    -7.3252 *  0.0000     2          
   410  Na    c      4.5078 *     7.3252 *   -11.8329 *  0.0000     2          
   411  Na    c      0.0000      14.0868 *     3.9443 *  0.0000     1          
   412  Na    c      0.0000      -3.9443 *   -14.0868 *  0.0000     1          
   413  Na    c      4.5078 *     5.0713 *    12.9599 *  0.0000     2          
   414  Na    c      4.5078 *   -12.9599 *    -5.0713 *  0.0000     2          
   415  Na    c     13.5234 *    -3.9443 *     3.9443 *  0.0000     2          
   416  Cl    c      2.2539 *    11.8329 *     8.4521 *  0.0000     2          
   417  Na    c      2.2539 *    -8.4521 *   -11.8329 *  0.0000     2          
   418  O     c     13.5234 *     5.0713 *    -2.8174 *  0.0000     2          
   419  Cl    c      6.7617 *    -1.6904 *    12.9599 *  0.0000     2          
   420  Na    c      6.7617 *   -12.9599 *     1.6904 *  0.0000     2          
   421  Na    c      4.5078 *     0.5635 *   -14.0868 *  0.0000     2          
   422  Na    c      4.5078 *    14.0868 *    -0.5635 *  0.0000     2          
   423  Na    c     11.2695 *     9.5790 *     1.6904 *  0.0000     2          
   424  O     c      9.0156 *     0.5635 *   -11.8329 *  0.0000     2          
   425  Cl    c     11.2695 *    -1.6904 *    -9.5790 *  0.0000     2          
   426  O     c      4.5078 *    14.0868 *     1.6904 *  0.0000     2          
   427  O     c      9.0156 *     5.0713 *    10.7060 *  0.0000     2          
   428  O     c      0.0000     -12.9599 *    -7.3252 *  0.0000     1          
   429  O     c     13.5234 *     0.5635 *     6.1982 *  0.0000     2          
   430  Na    c      6.7617 *   -12.9599 *    -2.8174 *  0.0000     2          
   431  Cl    c      6.7617 *     2.8174 *    12.9599 *  0.0000     2          
   432  Na    c      0.0000       5.0713 *   -14.0868 *  0.0000     1          
   433  Na    c      9.0156 *    -8.4521 *     8.4521 *  0.0000     2          
   434  Na    c      9.0156 *    11.8329 *     1.6904 *  0.0000     2          
   435  Na    c      9.0156 *    -1.6904 *   -11.8329 *  0.0000     2          
   436  Na    c      0.0000      14.0868 *    -5.0713 *  0.0000     1          
   437  Na    c     13.5234 *     5.0713 *     3.9443 *  0.0000     2          
   438  Na    c     13.5234 *    -1.6904 *     6.1982 *  0.0000     2          
   439  Na    c     13.5234 *    -6.1982 *     1.6904 *  0.0000     2          
   440  Na    c     13.5234 *    -3.9443 *    -5.0713 *  0.0000     2          
   441  Na    c     11.2695 *     9.5790 *    -2.8174 *  0.0000     2          
   442  O     c      4.5078 *     9.5790 *    10.7060 *  0.0000     2          
   443  O     c      9.0156 *     9.5790 *    -7.3252 *  0.0000     2          
   444  Cl    c     11.2695 *     2.8174 *    -9.5790 *  0.0000     2          
   445  O     c      4.5078 *    14.0868 *    -2.8174 *  0.0000     2          
   446  Cl    c      2.2539 *     7.3252 *    12.9599 *  0.0000     2          
   447  O     c      4.5078 *   -12.9599 *     6.1982 *  0.0000     2          
   448  Na    c      2.2539 *   -12.9599 *    -7.3252 *  0.0000     2          
   449  Na    c      9.0156 *     2.8174 *   -11.8329 *  0.0000     2          
   450  Na    c      0.0000     -10.7060 *    10.7060 *  0.0000     1          
   451  Na    c      9.0156 *    11.8329 *    -2.8174 *  0.0000     2          
   452  Na    c     13.5234 *     2.8174 *     6.1982 *  0.0000     2          
   453  Na    c     13.5234 *    -6.1982 *    -2.8174 *  0.0000     2          
   454  O     c      0.0000       9.5790 *   -11.8329 *  0.0000     1          
   455  O     c      0.0000       0.5635 *    15.2138 *  0.0000     1          
   456  O     c     -4.5078 *    -8.4521 *   -11.8329 *  0.0000     2          
   457  Cl    c      6.7617 *   -10.7060 *     8.4521 *  0.0000     2          
   458  Na    c      6.7617 *    -8.4521 *    10.7060 *  0.0000     2          
   459  Na    c      0.0000      -1.6904 *    15.2138 *  0.0000     1          
   460  Na    c      0.0000     -15.2138 *     1.6904 *  0.0000     1          
   461  Na    c      9.0156 *    -6.1982 *    10.7060 *  0.0000     2          
   462  Na    c      9.0156 *   -10.7060 *     6.1982 *  0.0000     2          
   463  Na    c      4.5078 *    14.0868 *     3.9443 *  0.0000     2          
   464  Na    c      4.5078 *    -3.9443 *   -14.0868 *  0.0000     2          
   465  Na    c     13.5234 *     5.0713 *    -5.0713 *  0.0000     2          
   466  Cl    c      2.2539 *   -15.2138 *    -0.5635 *  0.0000     2          
   467  Cl    c     11.2695 *    -6.1982 *     8.4521 *  0.0000     2          
   468  O     c      9.0156 *    -3.9443 *   -11.8329 *  0.0000     2          
   469  Na    c      2.2539 *     0.5635 *    15.2138 *  0.0000     2          
   470  Na    c      2.2539 *     9.5790 *   -11.8329 *  0.0000     2          
   471  Na    c     11.2695 *    -8.4521 *     6.1982 *  0.0000     2          
   472  Cl    c      2.2539 *    11.8329 *    -9.5790 *  0.0000     2          
   473  O     c      0.0000      14.0868 *     6.1982 *  0.0000     1          
   474  O     c     13.5234 *     0.5635 *    -7.3252 *  0.0000     2          
   475  O     c     13.5234 *    -3.9443 *     6.1982 *  0.0000     2          
   476  Na    c      0.0000       2.8174 *    15.2138 *  0.0000     1          
   477  Na    c      0.0000     -15.2138 *    -2.8174 *  0.0000     1          
   478  Na    c     13.5234 *     7.3252 *     1.6904 *  0.0000     2          
   479  Na    c     13.5234 *    -1.6904 *    -7.3252 *  0.0000     2          
   480  Na    c      0.0000      -8.4521 *    12.9599 *  0.0000     1          
   481  Na    c      0.0000     -12.9599 *     8.4521 *  0.0000     1          
   482  Na    c     11.2695 *     0.5635 *    10.7060 *  0.0000     2          
   483  Cl    c      2.2539 *    -6.1982 *   -14.0868 *  0.0000     2          
   484  Cl    c     11.2695 *   -10.7060 *    -0.5635 *  0.0000     2          
   485  Na    c      2.2539 *    14.0868 *     6.1982 *  0.0000     2          
   486  O     c      4.5078 *   -12.9599 *    -7.3252 *  0.0000     2          
   487  Na    c      9.0156 *     9.5790 *     8.4521 *  0.0000     2          
   488  Na    c     -4.5078 *     5.0713 *   -14.0868 *  0.0000     2          
   489  Na    c      4.5078 *    14.0868 *    -5.0713 *  0.0000     2          
   490  Na    c      9.0156 *    -8.4521 *    -9.5790 *  0.0000     2          
   491  Na    c     13.5234 *     2.8174 *    -7.3252 *  0.0000     2          
   492  Na    c     13.5234 *     7.3252 *    -2.8174 *  0.0000     2          
   493  O     c      0.0000      -3.9443 *    15.2138 *  0.0000     1          
   494  O     c      9.0156 *     5.0713 *   -11.8329 *  0.0000     2          
   495  O     c     13.5234 *     5.0713 *     6.1982 *  0.0000     2          
   496  Cl    c      6.7617 *    -1.6904 *   -14.0868 *  0.0000     2          
   497  Na    c      6.7617 *    14.0868 *     1.6904 *  0.0000     2          
   498  Na    c      9.0156 *   -10.7060 *    -7.3252 *  0.0000     2          
   499  Na    c      4.5078 *   -10.7060 *    10.7060 *  0.0000     2          
   500  Na    c      9.0156 *     7.3252 *    10.7060 *  0.0000     2          
   501  Na    c      9.0156 *     0.5635 *    12.9599 *  0.0000     2          
   502  Na    c      9.0156 *   -12.9599 *    -0.5635 *  0.0000     2          
   503  O     c     -4.5078 *     9.5790 *   -11.8329 *  0.0000     2          
   504  Cl    c      2.2539 *   -15.2138 *     3.9443 *  0.0000     2          
   505  Cl    c     11.2695 *     7.3252 *     8.4521 *  0.0000     2          
   506  Cl    c    -15.7773 *    -1.6904 *    -0.5635 *  0.0000     2          
   507  O     c      4.5078 *     0.5635 *    15.2138 *  0.0000     2          
   508  Na    c      2.2539 *    -3.9443 *    15.2138 *  0.0000     2          
   509  Na    c     11.2695 *    -8.4521 *    -7.3252 *  0.0000     2          
   510  Na    c    -15.7773 *     0.5635 *     1.6904 *  0.0000     2          
   511  Cl    c      6.7617 *     2.8174 *   -14.0868 *  0.0000     2          
   512  O     c      0.0000      14.0868 *    -7.3252 *  0.0000     1          
   513  Na    c      6.7617 *     9.5790 *    10.7060 *  0.0000     2          
   514  Cl    c      6.7617 *   -10.7060 *    -9.5790 *  0.0000     2          
   515  O     c     13.5234 *    -3.9443 *    -7.3252 *  0.0000     2          
   516  Na    c      6.7617 *    14.0868 *    -2.8174 *  0.0000     2          
   517  Na    c      6.7617 *   -12.9599 *     6.1982 *  0.0000     2          
   518  Cl    c      6.7617 *    -6.1982 *    12.9599 *  0.0000     2          
   519  O     c      9.0156 *   -12.9599 *     1.6904 *  0.0000     2          
   520  Na    c      4.5078 *   -15.2138 *     1.6904 *  0.0000     2          
   521  Na    c     -4.5078 *    -1.6904 *    15.2138 *  0.0000     2          
   522  Na    c      0.0000      11.8329 *    10.7060 *  0.0000     1          
   523  Na    c      0.0000     -10.7060 *   -11.8329 *  0.0000     1          
   524  Na    c     13.5234 *     0.5635 *     8.4521 *  0.0000     2          
   525  Na    c     13.5234 *    -8.4521 *    -0.5635 *  0.0000     2          
   526  Cl    c      6.7617 *    11.8329 *     8.4521 *  0.0000     2          
   527  Cl    c     11.2695 *   -10.7060 *     3.9443 *  0.0000     2          
   528  Cl    c    -15.7773 *     2.8174 *    -0.5635 *  0.0000     2          
   529  O     c      0.0000       5.0713 *    15.2138 *  0.0000     1          
   530  Na    c      6.7617 *    -8.4521 *   -11.8329 *  0.0000     2          
   531  Na    c     11.2695 *     9.5790 *     6.1982 *  0.0000     2          
   532  Na    c     11.2695 *    -3.9443 *    10.7060 *  0.0000     2          
   533  Na    c    -15.7773 *     0.5635 *    -2.8174 *  0.0000     2          
   534  Cl    c      2.2539 *     7.3252 *   -14.0868 *  0.0000     2          
   535  Cl    c     11.2695 *    -6.1982 *    -9.5790 *  0.0000     2          
   536  O     c      4.5078 *    14.0868 *     6.1982 *  0.0000     2          
   537  O     c     13.5234 *    -8.4521 *     1.6904 *  0.0000     2          
   538  Na    c      2.2539 *    14.0868 *    -7.3252 *  0.0000     2          
   539  O     c      9.0156 *   -12.9599 *    -2.8174 *  0.0000     2          
   540  Na    c      4.5078 *     2.8174 *    15.2138 *  0.0000     2          
   541  Na    c      4.5078 *   -15.2138 *    -2.8174 *  0.0000     2          
   542  Na    c      0.0000       9.5790 *    12.9599 *  0.0000     1          
   543  Na    c      4.5078 *   -12.9599 *     8.4521 *  0.0000     2          
   544  Na    c     -4.5078 *    -8.4521 *    12.9599 *  0.0000     2          
   545  Na    c      9.0156 *    11.8329 *     6.1982 *  0.0000     2          
   546  Na    c      9.0156 *    -6.1982 *   -11.8329 *  0.0000     2          
   547  Na    c     13.5234 *    -6.1982 *     6.1982 *  0.0000     2          
   548  Na    c      0.0000     -12.9599 *    -9.5790 *  0.0000     1          
   549  Cl    c      2.2539 *   -15.2138 *    -5.0713 *  0.0000     2          
   550  Na    c      2.2539 *     5.0713 *    15.2138 *  0.0000     2          
   551  O     c     13.5234 *     5.0713 *    -7.3252 *  0.0000     2          
   552  O     c     13.5234 *    -8.4521 *    -2.8174 *  0.0000     2          
   553  Na    c      9.0156 *     9.5790 *    -9.5790 *  0.0000     2          
   554  Na    c      9.0156 *    -3.9443 *    12.9599 *  0.0000     2          
   555  Na    c      9.0156 *   -12.9599 *     3.9443 *  0.0000     2          
   556  Cl    c     11.2695 *    11.8329 *    -0.5635 *  0.0000     2          
   557  Cl    c     11.2695 *   -10.7060 *    -5.0713 *  0.0000     2          
   558  Cl    c    -15.7773 *    -1.6904 *     3.9443 *  0.0000     2          
   559  O     c      0.0000       0.5635 *   -16.3407 *  0.0000     1          
   560  O     c      4.5078 *    -3.9443 *    15.2138 *  0.0000     2          
   561  O     c      9.0156 *    -8.4521 *    10.7060 *  0.0000     2          
   562  Na    c     11.2695 *     0.5635 *   -11.8329 *  0.0000     2          
   563  Na    c     11.2695 *     5.0713 *    10.7060 *  0.0000     2          
   564  Na    c    -15.7773 *    -3.9443 *     1.6904 *  0.0000     2          
   565  Na    c      6.7617 *   -12.9599 *    -7.3252 *  0.0000     2          
   566  Cl    c      6.7617 *     7.3252 *    12.9599 *  0.0000     2          
   567  Na    c      0.0000      16.3407 *     1.6904 *  0.0000     1          
   568  Na    c      0.0000      -1.6904 *   -16.3407 *  0.0000     1          
   569  Na    c      0.0000      -6.1982 *    15.2138 *  0.0000     1          
   570  Na    c      0.0000     -15.2138 *     6.1982 *  0.0000     1          
   571  Na    c      0.0000      14.0868 *     8.4521 *  0.0000     1          
   572  Na    c      0.0000      -8.4521 *   -14.0868 *  0.0000     1          
   573  Na    c     13.5234 *    -8.4521 *     3.9443 *  0.0000     2          
   574  Na    c     13.5234 *    -3.9443 *     8.4521 *  0.0000     2          
   575  Cl    c    -15.7773 *     2.8174 *     3.9443 *  0.0000     2          
   576  Na    c      2.2539 *     0.5635 *   -16.3407 *  0.0000     2          
   577  Na    c     11.2695 *     9.5790 *    -7.3252 *  0.0000     2          
   578  Cl    c      2.2539 *    16.3407 *    -0.5635 *  0.0000     2          
   579  Cl    c     11.2695 *     7.3252 *    -9.5790 *  0.0000     2          
   580  O     c      4.5078 *    14.0868 *    -7.3252 *  0.0000     2          
   581  Na    c    -15.7773 *    -3.9443 *    -2.8174 *  0.0000     2          
   582  Na    c      0.0000       2.8174 *   -16.3407 *  0.0000     1          
   583  Na    c      0.0000      16.3407 *    -2.8174 *  0.0000     1          
   584  Na    c      4.5078 *    11.8329 *    10.7060 *  0.0000     2          
   585  Na    c      4.5078 *   -10.7060 *   -11.8329 *  0.0000     2          
   586  Na    c      9.0156 *     7.3252 *   -11.8329 *  0.0000     2          
   587  Na    c      9.0156 *    11.8329 *    -7.3252 *  0.0000     2          
   588  Na    c      9.0156 *     5.0713 *    12.9599 *  0.0000     2          
   589  Na    c      9.0156 *   -12.9599 *    -5.0713 *  0.0000     2          
   590  Na    c     13.5234 *     0.5635 *    -9.5790 *  0.0000     2          
   591  Na    c     13.5234 *     9.5790 *    -0.5635 *  0.0000     2          
   592  Na    c     13.5234 *     7.3252 *     6.1982 *  0.0000     2          
   593  Na    c     13.5234 *    -6.1982 *    -7.3252 *  0.0000     2          
   594  Cl    c      6.7617 *   -15.2138 *    -0.5635 *  0.0000     2          
   595  Cl    c    -15.7773 *    -1.6904 *    -5.0713 *  0.0000     2          
   596  O     c      4.5078 *     5.0713 *    15.2138 *  0.0000     2          
   597  Na    c      6.7617 *     0.5635 *    15.2138 *  0.0000     2          
   598  Na    c      6.7617 *     9.5790 *   -11.8329 *  0.0000     2          
   599  Na    c    -15.7773 *     5.0713 *     1.6904 *  0.0000     2          
   600  Cl    c      6.7617 *    11.8329 *    -9.5790 *  0.0000     2          
   601  O     c     13.5234 *     9.5790 *     1.6904 *  0.0000     2          
   602  Na    c      0.0000      11.8329 *   -11.8329 *  0.0000     1          
   603  Na    c      4.5078 *     9.5790 *    12.9599 *  0.0000     2          
   604  Na    c      9.0156 *     0.5635 *   -14.0868 *  0.0000     2          
   605  Na    c      9.0156 *    14.0868 *    -0.5635 *  0.0000     2          
   606  Na    c     13.5234 *     5.0713 *     8.4521 *  0.0000     2          
   607  Na    c     13.5234 *    -8.4521 *    -5.0713 *  0.0000     2          
   608  Na    c      4.5078 *   -12.9599 *    -9.5790 *  0.0000     2          
   609  Cl    c     11.2695 *    11.8329 *     3.9443 *  0.0000     2          
   610  Cl    c    -15.7773 *     2.8174 *    -5.0713 *  0.0000     2          
   611  O     c      0.0000      -3.9443 *   -16.3407 *  0.0000     1          
   612  Cl    c      6.7617 *    -6.1982 *   -14.0868 *  0.0000     2          
   613  O     c      9.0156 *    14.0868 *     1.6904 *  0.0000     2          
   614  Na    c     11.2695 *    -3.9443 *   -11.8329 *  0.0000     2          
   615  Na    c    -15.7773 *     5.0713 *    -2.8174 *  0.0000     2          
   616  O     c      0.0000     -12.9599 *    10.7060 *  0.0000     1          
   617  O     c     13.5234 *     9.5790 *    -2.8174 *  0.0000     2          
   618  Na    c      6.7617 *    14.0868 *     6.1982 *  0.0000     2          
   619  Na    c      0.0000       7.3252 *    15.2138 *  0.0000     1          
   620  Na    c      0.0000     -15.2138 *    -7.3252 *  0.0000     1          
   621  Cl    c      2.2539 *    16.3407 *     3.9443 *  0.0000     2          
   622  Cl    c    -15.7773 *    -6.1982 *    -0.5635 *  0.0000     2          
   623  O     c      4.5078 *     0.5635 *   -16.3407 *  0.0000     2          
   624  O     c      9.0156 *     9.5790 *    10.7060 *  0.0000     2          
   625  Na    c      2.2539 *    -3.9443 *   -16.3407 *  0.0000     2          
   626  Na    c    -15.7773 *     0.5635 *     6.1982 *  0.0000     2          
   627  Cl    c      2.2539 *   -10.7060 *    12.9599 *  0.0000     2          
   628  O     c      9.0156 *    14.0868 *    -2.8174 *  0.0000     2          
   629  Na    c      2.2539 *   -12.9599 *    10.7060 *  0.0000     2          
   630  O     c      9.0156 *   -12.9599 *     6.1982 *  0.0000     2          
   631  Na    c      4.5078 *    16.3407 *     1.6904 *  0.0000     2          
   632  Na    c      4.5078 *    -1.6904 *   -16.3407 *  0.0000     2          
   633  Na    c      4.5078 *    -6.1982 *    15.2138 *  0.0000     2          
   634  Na    c      4.5078 *   -15.2138 *     6.1982 *  0.0000     2          
   635  Na    c      0.0000       9.5790 *   -14.0868 *  0.0000     1          
   636  Na    c      4.5078 *    14.0868 *     8.4521 *  0.0000     2          
   637  Na    c      4.5078 *    -8.4521 *   -14.0868 *  0.0000     2          
   638  Na    c     13.5234 *     9.5790 *     3.9443 *  0.0000     2          
   639  Na    c     13.5234 *     7.3252 *    -7.3252 *  0.0000     2          
   640  Na    c      0.0000      14.0868 *    -9.5790 *  0.0000     1          
   641  Na    c     13.5234 *    -3.9443 *    -9.5790 *  0.0000     2          
   642  Cl    c      6.7617 *   -15.2138 *     3.9443 *  0.0000     2          
   643  Cl    c     11.2695 *    11.8329 *    -5.0713 *  0.0000     2          
   644  O     c      0.0000       5.0713 *   -16.3407 *  0.0000     1          
   645  O     c      9.0156 *    -8.4521 *   -11.8329 *  0.0000     2          
   646  Na    c     11.2695 *     5.0713 *   -11.8329 *  0.0000     2          
   647  Na    c      6.7617 *    -3.9443 *    15.2138 *  0.0000     2          
   648  O     c     13.5234 *    -8.4521 *     6.1982 *  0.0000     2          
   649  Na    c      9.0156 *    14.0868 *     3.9443 *  0.0000     2          
   650  Na    c      4.5078 *     2.8174 *   -16.3407 *  0.0000     2          
   651  Na    c      4.5078 *    16.3407 *    -2.8174 *  0.0000     2          
   652  Na    c      9.0156 *    -3.9443 *   -14.0868 *  0.0000     2          
   653  Cl    c      2.2539 *    16.3407 *    -5.0713 *  0.0000     2          
   654  Na    c      2.2539 *     5.0713 *   -16.3407 *  0.0000     2          
   655  Cl    c      6.7617 *     7.3252 *   -14.0868 *  0.0000     2          
   656  Cl    c     11.2695 *    -1.6904 *    12.9599 *  0.0000     2          
   657  O     c     13.5234 *     0.5635 *    10.7060 *  0.0000     2          
   658  Na    c      6.7617 *    14.0868 *    -7.3252 *  0.0000     2          
   659  Na    c     11.2695 *   -12.9599 *     1.6904 *  0.0000     2          
   660  Na    c      4.5078 *    11.8329 *   -11.8329 *  0.0000     2          
   661  Na    c     13.5234 *     5.0713 *    -9.5790 *  0.0000     2          
   662  Na    c     13.5234 *     9.5790 *    -5.0713 *  0.0000     2          
   663  Na    c     13.5234 *    -1.6904 *    10.7060 *  0.0000     2          
   664  Na    c     13.5234 *   -10.7060 *     1.6904 *  0.0000     2          
   665  Cl    c      6.7617 *   -15.2138 *    -5.0713 *  0.0000     2          
   666  Cl    c    -15.7773 *    -6.1982 *     3.9443 *  0.0000     2          
   667  Cl    c     11.2695 *     2.8174 *    12.9599 *  0.0000     2          
   668  Cl    c    -15.7773 *     7.3252 *    -0.5635 *  0.0000     2          
   669  O     c      0.0000      -8.4521 *    15.2138 *  0.0000     1          
   670  O     c      4.5078 *    -3.9443 *   -16.3407 *  0.0000     2          
   671  Na    c      6.7617 *     5.0713 *    15.2138 *  0.0000     2          
   672  Na    c    -15.7773 *     0.5635 *    -7.3252 *  0.0000     2          
   673  Na    c    -15.7773 *    -3.9443 *     6.1982 *  0.0000     2          
   674  O     c      4.5078 *   -12.9599 *    10.7060 *  0.0000     2          
   675  O     c      9.0156 *   -12.9599 *    -7.3252 *  0.0000     2          
   676  Na    c     11.2695 *   -12.9599 *    -2.8174 *  0.0000     2          
   677  Na    c      9.0156 *     5.0713 *   -14.0868 *  0.0000     2          
   678  Na    c      9.0156 *    14.0868 *    -5.0713 *  0.0000     2          
   679  Na    c      0.0000      16.3407 *     6.1982 *  0.0000     1          
   680  Na    c      0.0000      -6.1982 *   -16.3407 *  0.0000     1          
   681  Na    c      4.5078 *     7.3252 *    15.2138 *  0.0000     2          
   682  Na    c      4.5078 *   -15.2138 *    -7.3252 *  0.0000     2          
   683  Na    c      0.0000       0.5635 *    17.4677 *  0.0000     1          
   684  Na    c      0.0000     -17.4677 *    -0.5635 *  0.0000     1          
   685  Na    c     13.5234 *     2.8174 *    10.7060 *  0.0000     2          
   686  Na    c     13.5234 *   -10.7060 *    -2.8174 *  0.0000     2          
   687  Cl    c      2.2539 *   -15.2138 *     8.4521 *  0.0000     2          
   688  Na    c      2.2539 *    -8.4521 *    15.2138 *  0.0000     2          
   689  O     c      0.0000     -12.9599 *   -11.8329 *  0.0000     1          
   690  O     c      0.0000     -17.4677 *     1.6904 *  0.0000     1          
   691  O     c     13.5234 *    -8.4521 *    -7.3252 *  0.0000     2          
   692  Na    c      4.5078 *     9.5790 *   -14.0868 *  0.0000     2          
   693  Na    c      9.0156 *   -10.7060 *    10.7060 *  0.0000     2          
   694  Na    c      4.5078 *    14.0868 *    -9.5790 *  0.0000     2          
   695  Cl    c    -15.7773 *    -6.1982 *    -5.0713 *  0.0000     2          
   696  O     c      4.5078 *     5.0713 *   -16.3407 *  0.0000     2          
   697  O     c      9.0156 *     0.5635 *    15.2138 *  0.0000     2          
   698  O     c      9.0156 *     9.5790 *   -11.8329 *  0.0000     2          
   699  Na    c      6.7617 *     0.5635 *   -16.3407 *  0.0000     2          
[...]
   1329 y         18.031149     18.065716     0.034567    Cartesian    0.19
   1329 z          9.015574      9.004524    -0.011051    Cartesian   -0.12
   1330 x        -13.523362    -13.541914    -0.018552    Cartesian    0.14
   1330 y          0.000000      0.016544     0.016544    Cartesian *******
   1330 z         -9.015574     -8.991721     0.023854    Cartesian   -0.26
   1331 x         20.285042     20.275967    -0.009075    Cartesian   -0.04
   1331 y         -2.253894     -2.241645     0.012249    Cartesian   -0.54
   1331 z          2.253894      2.239259    -0.014634    Cartesian   -0.65
   1332 x          2.253894      2.253894     0.000000    Cartesian    0.00
   1332 y        -15.777255    -15.765787     0.011468    Cartesian   -0.07
   1332 z          6.761681      6.768926     0.007245    Cartesian    0.11
   1333 x          9.015574      9.058975     0.043401    Cartesian    0.48
   1333 y        -13.523362    -13.565218    -0.041857    Cartesian    0.31
   1333 z          9.015574      9.008082    -0.007493    Cartesian   -0.08
   1334 x        -13.523362    -13.599162    -0.075800    Cartesian    0.56
   1334 y          4.507787      4.522445     0.014657    Cartesian    0.33
   1334 z         -9.015574     -9.008802     0.006772    Cartesian   -0.08
   1335 x          2.253894      2.253894     0.000000    Cartesian    0.00
   1335 y         20.285042     20.272113    -0.012930    Cartesian   -0.06
   1335 z          2.253894      2.272164     0.018270    Cartesian    0.81
   1336 x         11.269468     11.258365    -0.011103    Cartesian   -0.10
   1336 y          2.253894      2.259607     0.005714    Cartesian    0.25
   1336 z        -15.777255    -15.764453     0.012802    Cartesian   -0.08
   1337 x         15.777255     15.782112     0.004856    Cartesian    0.03
   1337 y          6.761681      6.758570    -0.003110    Cartesian   -0.05
   1337 z        -11.269468    -11.240103     0.029365    Cartesian   -0.26
   1338 x          4.507787      4.506608    -0.001179    Cartesian   -0.03
   1338 y         -4.507787     -4.500138     0.007649    Cartesian   -0.17
   1338 z         18.031149     18.087503     0.056354    Cartesian    0.31
   1339 x         13.523362     13.566077     0.042716    Cartesian    0.32
   1339 y          9.015574      9.024468     0.008893    Cartesian    0.10
   1339 z         13.523362     13.578555     0.055193    Cartesian    0.41
   1340 x         20.285042     20.281659    -0.003384    Cartesian   -0.02
   1340 y         -2.253894     -2.222234     0.031660    Cartesian   -1.40
   1340 z         -2.253894     -2.245788     0.008106    Cartesian   -0.36
   1341 x          4.507787      4.459400    -0.048387    Cartesian   -1.07
   1341 y          0.000000      0.000710     0.000710    Cartesian *******
   1341 z        -18.031149    -18.059393    -0.028244    Cartesian    0.16
   1342 x          2.253894      2.253894     0.000000    Cartesian    0.00
   1342 y         20.285042     20.266451    -0.018592    Cartesian   -0.09
   1342 z         -2.253894     -2.268784    -0.014890    Cartesian    0.66
   1343 x         20.285042     20.281555    -0.003488    Cartesian   -0.02
   1343 y          6.761681      6.738108    -0.023573    Cartesian   -0.35
   1343 z          2.253894      2.247094    -0.006800    Cartesian   -0.30
   1344 x          9.015574      9.051364     0.035789    Cartesian    0.40
   1344 y         13.523362     13.530769     0.007407    Cartesian    0.05
   1344 z         13.523362     13.542389     0.019027    Cartesian    0.14
   1345 x          9.015574      9.021201     0.005627    Cartesian    0.06
   1345 y          0.000000      0.003169     0.003169    Cartesian *******
   1345 z         18.031149     18.030985    -0.000164    Cartesian   -0.00
   1346 x         15.777255     15.779285     0.002030    Cartesian    0.01
   1346 y        -11.269468    -11.241463     0.028005    Cartesian   -0.25
   1346 z          2.253894      2.257772     0.003878    Cartesian    0.17
   1347 x          4.507787      4.542392     0.034605    Cartesian    0.77
   1347 y          4.507787      4.509862     0.002075    Cartesian    0.05
   1347 z        -18.031149    -18.037244    -0.006095    Cartesian    0.03
   1348 x         13.523362     13.511102    -0.012259    Cartesian   -0.09
   1348 y        -13.523362    -13.546785    -0.023423    Cartesian    0.17
   1348 z          0.000000     -0.006393    -0.006393    Cartesian    0.00
   1349 x        -13.523362    -13.548593    -0.025231    Cartesian    0.19
   1349 y         -4.507787     -4.533762    -0.025975    Cartesian    0.58
   1349 z          9.015574      9.056299     0.040725    Cartesian    0.45
   1350 x          2.253894      2.253894     0.000000    Cartesian    0.00
   1350 y         11.269468     11.276056     0.006588    Cartesian    0.06
   1350 z        -15.777255    -15.745112     0.032143    Cartesian   -0.20
   1351 x          6.761681      6.757223    -0.004458    Cartesian   -0.07
   1351 y         -6.761681     -6.765533    -0.003852    Cartesian    0.06
   1351 z        -15.777255    -15.746934     0.030321    Cartesian   -0.19
   1352 x          9.015574      8.987770    -0.027805    Cartesian   -0.31
   1352 y          4.507787      4.511331     0.003543    Cartesian    0.08
   1352 z         18.031149     18.090144     0.058995    Cartesian    0.33
   1353 x          9.015574      8.988744    -0.026831    Cartesian   -0.30
   1353 y         -9.015574     -9.037012    -0.021437    Cartesian    0.24
   1353 z        -13.523362    -13.543547    -0.020185    Cartesian    0.15
   1354 x         13.523362     13.530461     0.007099    Cartesian    0.05
   1354 y         13.523362     13.581716     0.058354    Cartesian    0.43
   1354 z         -9.015574     -9.034270    -0.018696    Cartesian    0.21
   1355 x          2.253894      2.253894     0.000000    Cartesian    0.00
   1355 y        -15.777255    -15.750765     0.026490    Cartesian   -0.17
   1355 z         -6.761681     -6.782662    -0.020981    Cartesian    0.31
   1356 x          6.761681      6.765692     0.004011    Cartesian    0.06
   1356 y         15.777255     15.747454    -0.029801    Cartesian   -0.19
   1356 z        -11.269468    -11.269957    -0.000489    Cartesian    0.00
   1357 x         20.285042     20.281362    -0.003680    Cartesian   -0.02
   1357 y          6.761681      6.761156    -0.000525    Cartesian   -0.01
   1357 z         -2.253894     -2.246536     0.007357    Cartesian   -0.33
   1358 x         15.777255     15.767430    -0.009825    Cartesian   -0.06
   1358 y        -11.269468    -11.254749     0.014719    Cartesian   -0.13
   1358 z         -2.253894     -2.252259     0.001634    Cartesian   -0.07
   1359 x          4.507787      4.518385     0.010598    Cartesian    0.24
   1359 y         18.031149     18.058212     0.027063    Cartesian    0.15
   1359 z         -9.015574     -9.007223     0.008351    Cartesian   -0.09
   1360 x         13.523362     13.527720     0.004358    Cartesian    0.03
   1360 y         -4.507787     -4.505143     0.002644    Cartesian   -0.06
   1360 z        -13.523362    -13.552061    -0.028699    Cartesian    0.21
   1361 x        -13.523362    -13.595038    -0.071677    Cartesian    0.53
   1361 y         -9.015574     -9.083960    -0.068386    Cartesian    0.76
   1361 z          0.000000      0.000479     0.000479    Cartesian    0.00
   1362 x         11.269468     11.264037    -0.005431    Cartesian   -0.05
   1362 y         -2.253894     -2.261050    -0.007156    Cartesian    0.32
   1362 z        -15.777255    -15.768109     0.009146    Cartesian   -0.06
   1363 x          4.507787      4.521293     0.013506    Cartesian    0.30
   1363 y          9.015574      9.043663     0.028089    Cartesian    0.31
   1363 z         18.031149     18.026390    -0.004759    Cartesian   -0.03
   1364 x          6.761681      6.761717     0.000036    Cartesian    0.00
   1364 y        -15.777255    -15.768602     0.008654    Cartesian   -0.05
   1364 z          6.761681      6.738844    -0.022837    Cartesian   -0.34
   1365 x         11.269468     11.274235     0.004767    Cartesian    0.04
   1365 y        -11.269468    -11.239032     0.030436    Cartesian   -0.27
   1365 z         11.269468     11.277243     0.007775    Cartesian    0.07
   1366 x         20.285042     20.282743    -0.002299    Cartesian   -0.01
   1366 y          2.253894      2.250445    -0.003448    Cartesian   -0.15
   1366 z          6.761681      6.746850    -0.014831    Cartesian   -0.22
   1367 x          9.015574      9.064585     0.049011    Cartesian    0.54
   1367 y        -13.523362    -13.553491    -0.030129    Cartesian    0.22
   1367 z         -9.015574     -9.004581     0.010993    Cartesian   -0.12
   1368 x          6.761681      6.769233     0.007552    Cartesian    0.11
   1368 y         20.285042     20.276595    -0.008447    Cartesian   -0.04
   1368 z          2.253894      2.233628    -0.020266    Cartesian   -0.90
   1369 x         15.777255     15.791281     0.014026    Cartesian    0.09
   1369 y         -6.761681     -6.762174    -0.000493    Cartesian    0.01
   1369 z         11.269468     11.238550    -0.030918    Cartesian   -0.27
   1370 x         13.523362     13.603886     0.080525    Cartesian    0.60
   1370 y        -13.523362    -13.558615    -0.035253    Cartesian    0.26
   1370 z          4.507787      4.519448     0.011661    Cartesian    0.26
   1371 x         11.269468     11.271497     0.002029    Cartesian    0.02
   1371 y          6.761681      6.749931    -0.011749    Cartesian   -0.17
   1371 z        -15.777255    -15.772122     0.005133    Cartesian   -0.03
   1372 x        -13.523362    -13.568435    -0.045073    Cartesian    0.33
   1372 y          9.015574      9.047123     0.031549    Cartesian    0.35
   1372 z          9.015574      9.029370     0.013796    Cartesian    0.15
   1373 x          6.761681      6.758446    -0.003235    Cartesian   -0.05
   1373 y         20.285042     20.273351    -0.011691    Cartesian   -0.06
   1373 z         -2.253894     -2.230938     0.022955    Cartesian   -1.02
   1374 x        -13.523362    -13.564906    -0.041544    Cartesian    0.31
   1374 y         -9.015574     -8.989059     0.026515    Cartesian   -0.29
   1374 z          4.507787      4.528839     0.021052    Cartesian    0.47
   1375 x          6.761681      6.758213    -0.003468    Cartesian   -0.05
   1375 y         11.269468     11.247841    -0.021628    Cartesian   -0.19
   1375 z        -15.777255    -15.784464    -0.007209    Cartesian    0.05
   1376 x         13.523362     13.586645     0.063283    Cartesian    0.47
   1376 y          9.015574      9.018810     0.003235    Cartesian    0.04
   1376 z        -13.523362    -13.570125    -0.046763    Cartesian    0.35
   1377 x         18.031149     18.068396     0.037247    Cartesian    0.21
   1377 y         -4.507787     -4.507349     0.000439    Cartesian   -0.01
   1377 z         -9.015574     -9.030739    -0.015165    Cartesian    0.17
   1378 x          6.761681      6.758265    -0.003416    Cartesian   -0.05
   1378 y        -15.777255    -15.780437    -0.003182    Cartesian    0.02
   1378 z         -6.761681     -6.748860     0.012821    Cartesian   -0.19
   1379 x         20.285042     20.281874    -0.003169    Cartesian   -0.02
   1379 y          2.253894      2.279548     0.025655    Cartesian    1.14
   1379 z         -6.761681     -6.751575     0.010106    Cartesian   -0.15
   1380 x         20.285042     20.284526    -0.000517    Cartesian   -0.00
   1380 y         -2.253894     -2.255493    -0.001600    Cartesian    0.07
   1380 z          6.761681      6.745208    -0.016473    Cartesian   -0.24
   1381 x         13.523362     13.601760     0.078398    Cartesian    0.58
   1381 y        -13.523362    -13.566270    -0.042908    Cartesian    0.32
   1381 z         -4.507787     -4.504367     0.003420    Cartesian   -0.08
   1382 x          9.015574      9.035438     0.019863    Cartesian    0.22
   1382 y         13.523362     13.521477    -0.001885    Cartesian   -0.01
   1382 z        -13.523362    -13.545367    -0.022005    Cartesian    0.16
   1383 x          9.015574      9.023377     0.007803    Cartesian    0.09
   1383 y         18.031149     18.057042     0.025893    Cartesian    0.14
   1383 z          9.015574      9.027481     0.011907    Cartesian    0.13
   1384 x          2.253894      2.253894     0.000000    Cartesian    0.00
   1384 y         20.285042     20.290958     0.005915    Cartesian    0.03
   1384 z          6.761681      6.747531    -0.014149    Cartesian   -0.21
   1385 x         11.269468     11.269449    -0.000019    Cartesian   -0.00
   1385 y         -6.761681     -6.755141     0.006540    Cartesian   -0.10
   1385 z         15.777255     15.769794    -0.007461    Cartesian   -0.05
   1386 x         15.777255     15.766333    -0.010923    Cartesian   -0.07
   1386 y         15.777255     15.766087    -0.011169    Cartesian   -0.07
   1386 z          2.253894      2.254986     0.001092    Cartesian    0.05
   1387 x          4.507787      4.487747    -0.020040    Cartesian   -0.44
   1387 y         -4.507787     -4.521635    -0.013848    Cartesian    0.31
   1387 z        -18.031149    -18.045957    -0.014808    Cartesian    0.08
   1388 x        -13.523362    -13.538040    -0.014678    Cartesian    0.11
   1388 y         13.523362     13.505496    -0.017865    Cartesian   -0.13
   1388 z          0.000000      0.019768     0.019768    Cartesian    0.00
   1389 x        -13.523362    -13.559097    -0.035735    Cartesian    0.26
   1389 y         -9.015574     -8.987061     0.028513    Cartesian   -0.32
   1389 z         -4.507787     -4.509598    -0.001811    Cartesian    0.04
   1390 x          2.253894      2.253894     0.000000    Cartesian    0.00
   1390 y          2.253894      2.272584     0.018691    Cartesian    0.83
   1390 z         20.285042     20.273605    -0.011438    Cartesian   -0.06
   1391 x         11.269468     11.276609     0.007141    Cartesian    0.06
   1391 y        -15.777255    -15.774058     0.003197    Cartesian   -0.02
   1391 z          2.253894      2.243948    -0.009946    Cartesian   -0.44
   1392 x         15.777255     15.766435    -0.010821    Cartesian   -0.07
   1392 y         11.269468     11.260948    -0.008520    Cartesian   -0.08
   1392 z         11.269468     11.261971    -0.007498    Cartesian   -0.07
   1393 x         20.285042     20.285515     0.000473    Cartesian    0.00
   1393 y          6.761681      6.752746    -0.008935    Cartesian   -0.13
   1393 z          6.761681      6.756203    -0.005478    Cartesian   -0.08
   1394 x          9.015574      9.019235     0.003661    Cartesian    0.04
   1394 y         -4.507787     -4.493697     0.014090    Cartesian   -0.31
   1394 z         18.031149     18.096267     0.065118    Cartesian    0.36
   1395 x         11.269468     11.273359     0.003891    Cartesian    0.03
   1395 y        -11.269468    -11.239393     0.030075    Cartesian   -0.27
   1395 z        -11.269468    -11.279607    -0.010139    Cartesian    0.09
   1396 x         15.777255     15.770531    -0.006725    Cartesian   -0.04
   1396 y         15.777255     15.769375    -0.007880    Cartesian   -0.05
   1396 z         -2.253894     -2.248116     0.005778    Cartesian   -0.26
   1397 x         15.777255     15.760317    -0.016939    Cartesian   -0.11
   1397 y        -11.269468    -11.268166     0.001302    Cartesian   -0.01
   1397 z          6.761681      6.758886    -0.002795    Cartesian   -0.04
   1398 x          4.507787      4.497042    -0.010745    Cartesian   -0.24
   1398 y        -18.031149    -18.037251    -0.006102    Cartesian    0.03
   1398 z          0.000000      0.007094     0.007094    Cartesian    0.00
   1399 x          9.015574      8.981795    -0.033780    Cartesian   -0.37
   1399 y          0.000000     -0.009068    -0.009068    Cartesian *******
   1399 z        -18.031149    -18.012388     0.018760    Cartesian   -0.10
   1400 x         13.523362     13.587961     0.064600    Cartesian    0.48
   1400 y         18.031149     18.073735     0.042586    Cartesian    0.24
   1400 z          0.000000      0.002981     0.002981    Cartesian    0.00
   1401 x         11.269468     11.276675     0.007207    Cartesian    0.06
   1401 y         15.777255     15.785876     0.008621    Cartesian    0.05
   1401 z         11.269468     11.239531    -0.029937    Cartesian   -0.27
   1402 x         20.285042     20.278407    -0.006635    Cartesian   -0.03
   1402 y         -2.253894     -2.262223    -0.008329    Cartesian    0.37
   1402 z         -6.761681     -6.748585     0.013096    Cartesian   -0.19
   1403 x         18.031149     18.046835     0.015686    Cartesian    0.09
   1403 y          9.015574      9.039934     0.024359    Cartesian    0.27
   1403 z         -9.015574     -9.017929    -0.002355    Cartesian    0.03
   1404 x         11.269468     11.267091    -0.002377    Cartesian   -0.02
   1404 y        -15.777255    -15.781965    -0.004709    Cartesian    0.03
   1404 z         -2.253894     -2.246049     0.007844    Cartesian   -0.35
   1405 x         15.777255     15.791025     0.013770    Cartesian    0.09
   1405 y         -6.761681     -6.761549     0.000132    Cartesian   -0.00
   1405 z        -11.269468    -11.241708     0.027760    Cartesian   -0.25
   1406 x          9.015574      9.023057     0.007483    Cartesian    0.08
   1406 y          4.507787      4.493196    -0.014592    Cartesian   -0.32
   1406 z        -18.031149    -18.095283    -0.064134    Cartesian    0.36
   1407 x          2.253894      2.253894     0.000000    Cartesian    0.00
   1407 y         20.285042     20.289322     0.004280    Cartesian    0.02
   1407 z         -6.761681     -6.744214     0.017467    Cartesian   -0.26
   1408 x          2.253894      2.253894     0.000000    Cartesian    0.00
   1408 y        -11.269468    -11.261546     0.007923    Cartesian   -0.07
   1408 z         15.777255     15.790744     0.013489    Cartesian    0.09
   1409 x         20.285042     20.281006    -0.004037    Cartesian   -0.02
   1409 y         -6.761681     -6.754207     0.007474    Cartesian   -0.11
   1409 z          2.253894      2.246196    -0.007698    Cartesian   -0.34
--------------------------------------------------------------------------------


  Time to end of optimisation  =     3394.9779 seconds


  Peak dynamic memory used =    1950.66 MB 


  Timing analysis for GULP :

--------------------------------------------------------------------------------
  Task / Subroutine                                          Time (Seconds)
--------------------------------------------------------------------------------
  Calculation of reciprocal space energy and derivatives          0.0002
  Calculation of reciprocal space energy using symmetry           0.0003
  Calculation of real space energy and derivatives                0.0014
  Calculation of real space energy using symmetry                 0.0035
  Calculation for region 1 energy and derivatives (2-b)        1554.7342
  Calculation for region 2a energy                              464.0360
  Calculation for region 2b energy                                0.0597
  Calculation and manipulation of Hessian matrix                  6.2570
  Calculation of matrix inversion                              1352.6132
  Symmetry generation of equivalent positions                     0.0019
--------------------------------------------------------------------------------
  Total CPU time                                               3394.9782
--------------------------------------------------------------------------------


  Dump file written as Na3OCl.grs


  Job Finished at 17:48.40 20th November   2020                               

