********************************************************************************
*                       GENERAL UTILITY LATTICE PROGRAM                        *
*                                 Julian Gale                                  *
*                       Curtin Institute for Computation                       *
*                    School of Molecular and Life Sciences                     *
*                    Curtin University, Western Australia                      *
********************************************************************************
* Version = 5.2.0 * Last modified =  10th September 2020                       *
********************************************************************************
*  optimise     - perform optimisation run                                     *
*  conp         - constant pressure calculation                                *
*  property     - calculate properties for final geometry                      *
*  defect       - perform defect calculation after bulk run                    *
*  compare      - compare initial and final structures                         *
********************************************************************************

  Job Started  at 18:18.05 20th November   2020                               

  Number of CPUs =     1


  Total number of configurations input =      1

********************************************************************************
*  Input for Configuration =   1                                               *
********************************************************************************

  Formula = ClONa3                                                      

  Number of irreducible atoms/shells =       5


  Total number atoms/shells =       7

  Dimensionality = 3               :  Bulk   


  Symmetry :

  Crystal family                   :  Cubic       
  Crystal class  (Groth - 1921)    :  Cubic Hexakisoctahedral              

  Space group (centrosymmetric)    :  P M 3 M         

  Patterson group                  :  P m -3 m 

  Cartesian lattice vectors (Angstroms) :

        4.504000    0.000000    0.000000
        0.000000    4.504000    0.000000
        0.000000    0.000000    4.504000

  Cell parameters (Angstroms/Degrees):

  a =       4.5040    alpha =  90.0000
  b =       4.5040    beta  =  90.0000
  c =       4.5040    gamma =  90.0000

  Initial cell volume =          91.368216 Angs**3

  Temperature of configuration =   0.00     K 

  Pressure of configuration =         0.000 GPa 

  Fractional coordinates of asymmetric unit :

--------------------------------------------------------------------------------
   No.  Atomic       x           y          z         Charge      Occupancy
        Label      (Frac)      (Frac)     (Frac)        (e)         (Frac)  
--------------------------------------------------------------------------------
      1 Cl    c    0.000000    0.000000    0.000000     1.48500    1.000000    
      2 O     c    0.500000    0.500000    0.500000     0.18300    1.000000    
      3 Na    c    0.500000    0.500000    0.000000     1.00000    1.000000    
      4 Cl    s    0.000000    0.000000    0.000000    -2.48500    1.000000    
      5 O     s    0.500000    0.500000    0.500000    -2.18300    1.000000    
--------------------------------------------------------------------------------


  Constraints : 

--------------------------------------------------------------------------------
  Constraint no.      Unconstrained     Constrained    Coefficient    Offset
                         Variable         Variable
--------------------------------------------------------------------------------
           1              Strain 1        Strain 2       1.00000      0.0000
           2              Strain 1        Strain 3       1.00000      0.0000
--------------------------------------------------------------------------------


********************************************************************************
*  General input information                                                   *
********************************************************************************

  Species output for all configurations : 

--------------------------------------------------------------------------------
  Species    Type    Atomic    Atomic    Charge       Radii (Angs)     Library
                     Number     Mass       (e)     Cova   Ionic  VDW   Symbol
--------------------------------------------------------------------------------
    Na       Core       11      22.99   1.000000   0.970  0.000  2.300          
    O        Core        8      16.00   0.183000   0.730  0.000  1.360          
    O        Shell       8       0.00  -2.183000   0.730  0.000  1.360          
    Cl       Core       17      35.45   1.485000   0.990  0.000  1.650          
    Cl       Shell      17       0.00  -2.485000   0.990  0.000  1.650          
--------------------------------------------------------------------------------


  Lattice summation method               =    Ewald          (3-D)
                                         =    Parry          (2-D)
                                         =    Saunders et al (1-D)
  Accuracy factor for lattice sums       =   12.000


  Analytic derivatives to be used

  Time limit = Infinity

  Maximum range for interatomic potentials =    100000.000000 Angstroms

  General interatomic potentials :

--------------------------------------------------------------------------------
Atom  Types   Potential      Parameter       Value         Units   Cutoffs(Ang)
  1     2                                                            Min /  Max 
--------------------------------------------------------------------------------
O    c O    s Spring (c-s)  Spring k 2       593.72000    eV*Ang^-2 0.000  0.800
                            Spring k 4       0.0000000    eV*Ang^-4 
--------------------------------------------------------------------------------
Cl   c Cl   s Spring (c-s)  Spring k 2       29.380000    eV*Ang^-2 0.000  0.800
                            Spring k 4       0.0000000    eV*Ang^-4 
--------------------------------------------------------------------------------
Na   c Na   c Buckingham    Buckingham A     1788.1900    eV        0.000 12.000
                            Buckingham rho  0.15900000    Ang       
                            Buckingham C     0.0000000    eV*Ang^6  
--------------------------------------------------------------------------------
Na   c O    s Buckingham    Buckingham A     1226.8400    eV        0.000 12.000
                            Buckingham rho  0.30700000    Ang       
                            Buckingham C     0.0000000    eV*Ang^6  
--------------------------------------------------------------------------------
Na   c Cl   s Buckingham    Buckingham A     2314.7000    eV        0.000 12.000
                            Buckingham rho  0.29000000    Ang       
                            Buckingham C     0.0000000    eV*Ang^6  
--------------------------------------------------------------------------------
O    s O    s Buckingham    Buckingham A     22764.300    eV        0.000 12.000
                            Buckingham rho  0.14900000    Ang       
                            Buckingham C     13.190000    eV*Ang^6  
--------------------------------------------------------------------------------
O    s Cl   s Buckingham    Buckingham A     8286.9100    eV        0.000 12.000
                            Buckingham rho  0.25900000    Ang       
                            Buckingham C     62.200000    eV*Ang^6  
--------------------------------------------------------------------------------
Cl   s Cl   s Buckingham    Buckingham A     1227.2000    eV        0.000 12.000
                            Buckingham rho  0.32100000    Ang       
                            Buckingham C     14.530000    eV*Ang^6  
--------------------------------------------------------------------------------

********************************************************************************
*  Output for configuration   1                                                *
********************************************************************************


  Components of energy : 

--------------------------------------------------------------------------------
  Interatomic potentials     =           5.13022605 eV    
  Monopole - monopole (real) =         -10.03624526 eV    
  Monopole - monopole (recip)=         -29.53581274 eV    
  Monopole - monopole (total)=         -39.57205800 eV    
--------------------------------------------------------------------------------
  Total lattice energy       =         -34.44183194 eV    
--------------------------------------------------------------------------------
  Total lattice energy       =           -3323.1103 kJ/(mole unit cells)
--------------------------------------------------------------------------------


  Number of variables =        1

  Maximum number of calculations  =          1000
  Maximum Hessian update interval =            10
  Maximum step size               =   1.000000000
  Maximum parameter tolerance     =   0.000010000
  Maximum function  tolerance     =   0.000010000
  Maximum gradient  tolerance     =   0.001000000
  Maximum gradient  component     =   0.010000000

  Symmetry constrained optimisation

  Symmetry used for second derivatives

  Cell parameters to be optimised using strains

  Newton-Raphson optimiser to be used

  BFGS hessian update to be used

  Lower half triangular hessian to be used

  Start of bulk optimisation :

  Cycle:      0 Energy:       -34.441832  Gnorm:      0.196570  CPU:    0.008
  ** Hessian calculated **
  Cycle:      1 Energy:       -34.441914  Gnorm:      0.000103  CPU:    0.009


  **** Optimisation achieved ****


  Final energy =     -34.44191447 eV
  Final Gnorm  =       0.00000000

  Components of energy : 

--------------------------------------------------------------------------------
  Interatomic potentials     =           5.09689708 eV    
  Monopole - monopole (real) =         -10.02781331 eV    
  Monopole - monopole (recip)=         -29.51099824 eV    
  Monopole - monopole (total)=         -39.53881155 eV    
--------------------------------------------------------------------------------
  Total lattice energy       =         -34.44191447 eV    
--------------------------------------------------------------------------------
  Total lattice energy       =           -3323.1183 kJ/(mole unit cells)
--------------------------------------------------------------------------------

  Final asymmetric unit coordinates :

--------------------------------------------------------------------------------
   No.  Atomic        x           y           z         Radius
        Label       (Frac)      (Frac)      (Frac)       (Angs) 
--------------------------------------------------------------------------------
     1  Cl    c     0.000000    0.000000    0.000000    0.000000
     2  O     c     0.500000    0.500000    0.500000    0.000000
     3  Na    c     0.500000    0.500000    0.000000    0.000000
     4  Cl    s     0.000000    0.000000    0.000000    0.000000
     5  O     s     0.500000    0.500000    0.500000    0.000000
--------------------------------------------------------------------------------

  Final Cartesian lattice vectors (Angstroms) :

        4.507787    0.000000    0.000000
        0.000000    4.507787    0.000000
        0.000000    0.000000    4.507787


  Final cell parameters and derivatives :

--------------------------------------------------------------------------------
       a            4.507787 Angstrom     dE/de1(xx)     0.000000 eV/strain
       b            4.507787 Angstrom     dE/de2(yy)     0.000000 eV/strain
       c            4.507787 Angstrom     dE/de3(zz)     0.000000 eV/strain
       alpha       90.000000 Degrees      dE/de4(yz)     0.000000 eV/strain
       beta        90.000000 Degrees      dE/de5(xz)     0.000000 eV/strain
       gamma       90.000000 Degrees      dE/de6(xy)     0.000000 eV/strain
--------------------------------------------------------------------------------

  Primitive cell volume =            91.598892 Angs**3

  Density of cell =      2.183054 g/cm**3

  Non-primitive cell volume =            91.598892 Angs**3


  Final internal derivatives :

--------------------------------------------------------------------------------
   No.  Atomic          a             b             c           Radius
        Label          (eV)          (eV)          (eV)        (eV/Angs)
--------------------------------------------------------------------------------
      1 Cl    c       0.000000      0.000000      0.000000      0.000000
      2 O     c       0.000000      0.000000      0.000000      0.000000
      3 Na    c       0.000000      0.000000      0.000000      0.000000
      4 Cl    s       0.000000      0.000000      0.000000      0.000000
      5 O     s       0.000000      0.000000      0.000000      0.000000
--------------------------------------------------------------------------------
  Maximum abs         0.000000      0.000000      0.000000      0.000000
--------------------------------------------------------------------------------

  Comparison of initial and final structures : 

--------------------------------------------------------------------------------
  Parameter   Initial value   Final value   Difference    Units      Percent
--------------------------------------------------------------------------------
    Volume        91.368216     91.598892     0.230676    Angs**3      0.25
    a              4.504000      4.507787     0.003787    Angstroms    0.08
    b              4.504000      4.507787     0.003787    Angstroms    0.08
    c              4.504000      4.507787     0.003787    Angstroms    0.08
    alpha         90.000000     90.000000     0.000000    Degrees      0.00
    beta          90.000000     90.000000     0.000000    Degrees      0.00
    gamma         90.000000     90.000000     0.000000    Degrees      0.00
      1 x          0.000000      0.000000     0.000000    Fractional   0.00
      1 y          0.000000      0.000000     0.000000    Fractional   0.00
      1 z          0.000000      0.000000     0.000000    Fractional   0.00
      2 x          0.500000      0.500000     0.000000    Fractional   0.00
      2 y          0.500000      0.500000     0.000000    Fractional   0.00
      2 z          0.500000      0.500000     0.000000    Fractional   0.00
      3 x          0.500000      0.500000     0.000000    Fractional   0.00
      3 y          0.500000      0.500000     0.000000    Fractional   0.00
      3 z          0.000000      0.000000     0.000000    Fractional   0.00
      4 x          0.000000      0.000000     0.000000    Fractional   0.00
      4 y          0.000000      0.000000     0.000000    Fractional   0.00
      4 z          0.000000      0.000000     0.000000    Fractional   0.00
      5 x          0.500000      0.500000     0.000000    Fractional   0.00
      5 y          0.500000      0.500000     0.000000    Fractional   0.00
      5 z          0.500000      0.500000     0.000000    Fractional   0.00
--------------------------------------------------------------------------------


  Born effective charge tensors : 

-------------------------------------------------------------------------------
  Atom             x           y             z
-------------------------------------------------------------------------------
    1 Cl    x      -1.0181     -0.0000      0.0000
            y      -0.0000     -1.0181      0.0000
            z       0.0000      0.0000     -1.0181
-------------------------------------------------------------------------------
    2 O     x      -2.2647      0.0000     -0.0000
            y       0.0000     -2.2647     -0.0000
            z      -0.0000     -0.0000     -2.2647
-------------------------------------------------------------------------------
    3 Na    x       1.2258     -0.0000      0.0000
            y      -0.0000      1.2258     -0.0000
            z       0.0000     -0.0000      0.8313
-------------------------------------------------------------------------------




  Elastic Constant Matrix: (Units=GPa)

-------------------------------------------------------------------------------
  Indices      1         2         3         4         5         6    
-------------------------------------------------------------------------------
       1     95.8177   20.0737   20.0737   -0.0000   -0.0000    0.0000
       2     20.0737   95.8177   20.0737   -0.0000   -0.0000    0.0000
       3     20.0737   20.0737   95.8177   -0.0000   -0.0000    0.0000
       4     -0.0000   -0.0000   -0.0000   20.0737   -0.0000    0.0000
       5     -0.0000   -0.0000   -0.0000   -0.0000   20.0737    0.0000
       6      0.0000    0.0000    0.0000    0.0000    0.0000   20.0737
-------------------------------------------------------------------------------


  Elastic Compliance Matrix: (Units=1/GPa)

-------------------------------------------------------------------------------
  Indices      1         2         3         4         5         6    
-------------------------------------------------------------------------------
       1    0.011253 -0.001949 -0.001949  0.000000  0.000000 -0.000000
       2   -0.001949  0.011253 -0.001949  0.000000  0.000000  0.000000
       3   -0.001949 -0.001949  0.011253  0.000000  0.000000 -0.000000
       4    0.000000  0.000000  0.000000  0.049816  0.000000 -0.000000
       5    0.000000  0.000000  0.000000  0.000000  0.049816 -0.000000
       6   -0.000000  0.000000 -0.000000 -0.000000 -0.000000  0.049816
-------------------------------------------------------------------------------

  Mechanical properties :

-------------------------------------------------------------------------------
  Convention :                    Reuss         Voigt         Hill
-------------------------------------------------------------------------------
  Bulk  Modulus (GPa)     =      45.32174      45.32174      45.32174
  Shear Modulus (GPa)     =      24.72085      27.19304      25.95695
-------------------------------------------------------------------------------
  Velocity S-wave (km/s)  =       3.36511       3.52937       3.44822
  Velocity P-wave (km/s)  =       5.98827       6.11304       6.05098
-------------------------------------------------------------------------------
  Compressibility (1/GPa) =    0.02206447
-------------------------------------------------------------------------------
  Stress axis :                     x             y             z
-------------------------------------------------------------------------------
  Youngs Moduli (GPa)     =      88.86373      88.86373      88.86373
-------------------------------------------------------------------------------
  Poissons Ratio (x)      =                     0.17321       0.17321
  Poissons Ratio (y)      =       0.17321                     0.17321
  Poissons Ratio (z)      =       0.17321       0.17321
-------------------------------------------------------------------------------


  Piezoelectric Strain Matrix: (Units=C/m**2)

-------------------------------------------------------------------------------
  Indices      1         2         3         4         5         6    
-------------------------------------------------------------------------------
       x    -0.00000  -0.00000  -0.00000   0.00000  -0.00000  -0.00000
       y    -0.00000  -0.00000   0.00000  -0.00000   0.00000   0.00000
       z    -0.00000  -0.00000  -0.00000  -0.00000   0.00000   0.00000
-------------------------------------------------------------------------------


  Piezoelectric Stress Matrix: (Units=10**-11 C/N)

-------------------------------------------------------------------------------
  Indices      1         2         3         4         5         6    
-------------------------------------------------------------------------------
       x    -0.00000   0.00000   0.00000   0.00000  -0.00000  -0.00000
       y    -0.00000  -0.00000   0.00000  -0.00000   0.00000   0.00000
       z     0.00000   0.00000  -0.00000  -0.00000   0.00000   0.00000
-------------------------------------------------------------------------------


  Static dielectric constant tensor : 

-------------------------------------------------------------------------------
              x         y         z
-------------------------------------------------------------------------------
       x    22.84729   0.00000   0.00000
       y     0.00000  22.84729  -0.00000
       z     0.00000  -0.00000  22.84729
--------------------------------------------------------------------------------

  High frequency dielectric constant tensor : 

-------------------------------------------------------------------------------
              x         y         z
-------------------------------------------------------------------------------
       x     1.47557   0.00000  -0.00000
       y     0.00000   1.47557  -0.00000
       z    -0.00000  -0.00000   1.47557
-------------------------------------------------------------------------------

  Static refractive indices : 

-------------------------------------------------------------------------------
    1 =    4.77988      2 =    4.77988      3 =    4.77988
-------------------------------------------------------------------------------

  High frequency refractive indices : 

-------------------------------------------------------------------------------
    1 =    1.21473      2 =    1.21473      3 =    1.21473
-------------------------------------------------------------------------------


  Time to end of optimisation =       0.0124 seconds

********************************************************************************
*  Defect calculation for configuration   1 :                                  *
********************************************************************************

  Total number of defects =      3

  Total charge on defect  =  -1.00

  Defect centre is at   0.5000   0.4250   0.0750  Frac

  Region 1 radius =  20.0000      Number of ions =   2566

  Number of symmetry inequivalent region 1 ions  =   1405

  Region 2 radius =  24.0000      Number of ions =   1864

  Number of symmetry inequivalent region 2a ions =    989

  Region 2a mode = 4 : screened electrostatics due to region 1 
                       neglect correction to region 1 forces from 2a
                       region 2a displacements based on defects only

  Region 2a ions will only interact with defects in region 1

  Vacancies:

--------------------------------------------------------------------------------
    Specification type     Symbol/Number         x          y          z
--------------------------------------------------------------------------------
    Fractional                               0.500000   0.500000   0.000000
    Fractional                               0.500000   0.000000   0.500000
--------------------------------------------------------------------------------

  Interstitials:

--------------------------------------------------------------------------------
    Specification type     Symbol/Number         x          y          z
--------------------------------------------------------------------------------
    Atom/Fractional         Na               0.500000   0.425000   0.075000
--------------------------------------------------------------------------------


  Symmetry reduced region 1 (Relative to defect centre) :

--------------------------------------------------------------------------------
   No.   Atomic       x            y             z       Radius  Multiplicity   
         Label      (Angs)       (Angs)        (Angs)    (Angs)     
--------------------------------------------------------------------------------
     1  Na    c      0.0000       0.0000       0.0000    0.0000     1    Defect
     2  O     c      0.0000       0.3381 *     1.9158 *  0.0000     1          
     3  O     c      0.0000       0.3381 *    -2.5920 *  0.0000     1          
     4  Na    c      2.2539 *     0.3381 *     1.9158 *  0.0000     2          
     5  Cl    c      2.2539 *    -1.9158 *    -0.3381 *  0.0000     2          
     6  Na    c      0.0000       2.5920 *     1.9158 *  0.0000     1          
     7  Na    c      0.0000      -1.9158 *    -2.5920 *  0.0000     1          
     8  Cl    c      2.2539 *     2.5920 *    -0.3381 *  0.0000     2          
     9  Na    c      2.2539 *     0.3381 *    -2.5920 *  0.0000     2          
    10  Na    c      0.0000       2.5920 *    -2.5920 *  0.0000     1          
    11  Na    c      0.0000       0.3381 *     4.1697 *  0.0000     1          
    12  Na    c      0.0000      -4.1697 *    -0.3381 *  0.0000     1          
    13  Na    c     -4.5078 *     0.3381 *    -0.3381 *  0.0000     2          
    14  O     c      0.0000      -4.1697 *     1.9158 *  0.0000     1          
    15  Na    c      0.0000       0.3381 *    -4.8459 *  0.0000     1          
    16  Na    c      0.0000       4.8459 *    -0.3381 *  0.0000     1          
    17  O     c      0.0000      -4.1697 *    -2.5920 *  0.0000     1          
    18  O     c     -4.5078 *     0.3381 *     1.9158 *  0.0000     2          
    19  Na    c      2.2539 *    -4.1697 *     1.9158 *  0.0000     2          
    20  Cl    c      2.2539 *    -1.9158 *     4.1697 *  0.0000     2          
    21  O     c      0.0000       4.8459 *     1.9158 *  0.0000     1          
    22  O     c     -4.5078 *     0.3381 *    -2.5920 *  0.0000     2          
    23  Na    c     -4.5078 *    -1.9158 *     1.9158 *  0.0000     2          
    24  Cl    c      2.2539 *     2.5920 *     4.1697 *  0.0000     2          
    25  Na    c      2.2539 *    -4.1697 *    -2.5920 *  0.0000     2          
    26  O     c      0.0000       4.8459 *    -2.5920 *  0.0000     1          
    27  Na    c     -4.5078 *     2.5920 *     1.9158 *  0.0000     2          
    28  Na    c     -4.5078 *    -1.9158 *    -2.5920 *  0.0000     2          
    29  Cl    c      2.2539 *    -1.9158 *    -4.8459 *  0.0000     2          
    30  Na    c      2.2539 *     4.8459 *     1.9158 *  0.0000     2          
    31  Na    c     -4.5078 *     2.5920 *    -2.5920 *  0.0000     2          
    32  Na    c      0.0000      -4.1697 *     4.1697 *  0.0000     1          
    33  Cl    c      2.2539 *     2.5920 *    -4.8459 *  0.0000     2          
    34  Na    c      2.2539 *     4.8459 *    -2.5920 *  0.0000     2          
    35  Na    c     -4.5078 *     0.3381 *     4.1697 *  0.0000     2          
    36  Na    c     -4.5078 *    -4.1697 *    -0.3381 *  0.0000     2          
    37  Na    c      0.0000       4.8459 *     4.1697 *  0.0000     1          
    38  Na    c      0.0000      -4.1697 *    -4.8459 *  0.0000     1          
    39  O     c      0.0000       0.3381 *     6.4236 *  0.0000     1          
    40  O     c     -4.5078 *    -4.1697 *     1.9158 *  0.0000     2          
    41  Na    c     -4.5078 *     0.3381 *    -4.8459 *  0.0000     2          
    42  Na    c     -4.5078 *     4.8459 *    -0.3381 *  0.0000     2          
    43  O     c     -4.5078 *    -4.1697 *    -2.5920 *  0.0000     2          
    44  Na    c      0.0000      -1.9158 *     6.4236 *  0.0000     1          
    45  Na    c      0.0000      -6.4236 *     1.9158 *  0.0000     1          
    46  Na    c      2.2539 *     0.3381 *     6.4236 *  0.0000     2          
    47  Cl    c      2.2539 *    -6.4236 *    -0.3381 *  0.0000     2          
    48  Na    c      0.0000       4.8459 *    -4.8459 *  0.0000     1          
    49  O     c     -4.5078 *     4.8459 *     1.9158 *  0.0000     2          
    50  Na    c      0.0000       2.5920 *     6.4236 *  0.0000     1          
    51  Na    c      0.0000      -6.4236 *    -2.5920 *  0.0000     1          
    52  Cl    c      6.7617 *    -1.9158 *    -0.3381 *  0.0000     2          
    53  Na    c      6.7617 *     0.3381 *     1.9158 *  0.0000     2          
    54  O     c      0.0000       0.3381 *    -7.0998 *  0.0000     1          
    55  O     c     -4.5078 *     4.8459 *    -2.5920 *  0.0000     2          
    56  Cl    c      6.7617 *     2.5920 *    -0.3381 *  0.0000     2          
    57  Na    c      6.7617 *     0.3381 *    -2.5920 *  0.0000     2          
    58  Na    c      0.0000       7.0998 *     1.9158 *  0.0000     1          
    59  Na    c      0.0000      -1.9158 *    -7.0998 *  0.0000     1          
    60  Na    c      4.5078 *    -4.1697 *     4.1697 *  0.0000     2          
    61  Cl    c      2.2539 *     7.0998 *    -0.3381 *  0.0000     2          
    62  Na    c      2.2539 *     0.3381 *    -7.0998 *  0.0000     2          
    63  Na    c      0.0000       2.5920 *    -7.0998 *  0.0000     1          
    64  Na    c      0.0000       7.0998 *    -2.5920 *  0.0000     1          
    65  O     c      0.0000      -4.1697 *     6.4236 *  0.0000     1          
    66  Na    c     -4.5078 *     4.8459 *     4.1697 *  0.0000     2          
    67  Na    c     -4.5078 *    -4.1697 *    -4.8459 *  0.0000     2          
    68  O     c     -4.5078 *     0.3381 *     6.4236 *  0.0000     2          
    69  Na    c      2.2539 *    -4.1697 *     6.4236 *  0.0000     2          
    70  Cl    c      2.2539 *    -6.4236 *     4.1697 *  0.0000     2          
    71  O     c      0.0000       4.8459 *     6.4236 *  0.0000     1          
    72  Na    c      4.5078 *    -1.9158 *     6.4236 *  0.0000     2          
    73  Na    c     -4.5078 *    -6.4236 *     1.9158 *  0.0000     2          
    74  Cl    c      6.7617 *    -1.9158 *     4.1697 *  0.0000     2          
    75  Na    c      6.7617 *    -4.1697 *     1.9158 *  0.0000     2          
    76  Na    c      4.5078 *     4.8459 *    -4.8459 *  0.0000     2          
    77  O     c      0.0000      -4.1697 *    -7.0998 *  0.0000     1          
    78  Na    c     -4.5078 *     2.5920 *     6.4236 *  0.0000     2          
    79  Na    c     -4.5078 *    -6.4236 *    -2.5920 *  0.0000     2          
    80  Cl    c      2.2539 *    -6.4236 *    -4.8459 *  0.0000     2          
    81  Cl    c      6.7617 *     2.5920 *     4.1697 *  0.0000     2          
    82  Na    c      2.2539 *     4.8459 *     6.4236 *  0.0000     2          
    83  Na    c      6.7617 *    -4.1697 *    -2.5920 *  0.0000     2          
    84  O     c     -4.5078 *     0.3381 *    -7.0998 *  0.0000     2          
    85  Cl    c      2.2539 *     7.0998 *     4.1697 *  0.0000     2          
    86  Na    c      2.2539 *    -4.1697 *    -7.0998 *  0.0000     2          
    87  Cl    c      6.7617 *    -1.9158 *    -4.8459 *  0.0000     2          
    88  Na    c      6.7617 *     4.8459 *     1.9158 *  0.0000     2          
    89  O     c      0.0000       4.8459 *    -7.0998 *  0.0000     1          
    90  Na    c      4.5078 *     7.0998 *     1.9158 *  0.0000     2          
    91  Na    c      4.5078 *    -1.9158 *    -7.0998 *  0.0000     2          
    92  Na    c      0.0000       0.3381 *     8.6775 *  0.0000     1          
    93  Na    c      0.0000      -8.6775 *    -0.3381 *  0.0000     1          
    94  Cl    c      6.7617 *     2.5920 *    -4.8459 *  0.0000     2          
    95  Na    c      6.7617 *     4.8459 *    -2.5920 *  0.0000     2          
    96  Na    c     -4.5078 *     2.5920 *    -7.0998 *  0.0000     2          
    97  Na    c      4.5078 *     7.0998 *    -2.5920 *  0.0000     2          
    98  Cl    c      2.2539 *     7.0998 *    -4.8459 *  0.0000     2          
    99  O     c      0.0000      -8.6775 *     1.9158 *  0.0000     1          
   100  O     c     -4.5078 *    -4.1697 *     6.4236 *  0.0000     2          
   101  Na    c      2.2539 *     4.8459 *    -7.0998 *  0.0000     2          
   102  Na    c      9.0156 *     0.3381 *    -0.3381 *  0.0000     2          
   103  O     c      0.0000      -8.6775 *    -2.5920 *  0.0000     1          
   104  Na    c      0.0000      -6.4236 *     6.4236 *  0.0000     1          
   105  Cl    c      2.2539 *    -1.9158 *     8.6775 *  0.0000     2          
   106  Na    c      2.2539 *    -8.6775 *     1.9158 *  0.0000     2          
   107  O     c      4.5078 *     4.8459 *     6.4236 *  0.0000     2          
   108  O     c      9.0156 *     0.3381 *     1.9158 *  0.0000     2          
   109  Cl    c      2.2539 *     2.5920 *     8.6775 *  0.0000     2          
   110  Na    c      2.2539 *    -8.6775 *    -2.5920 *  0.0000     2          
   111  Cl    c      6.7617 *    -6.4236 *    -0.3381 *  0.0000     2          
   112  Na    c      6.7617 *     0.3381 *     6.4236 *  0.0000     2          
   113  Na    c      0.0000       0.3381 *    -9.3537 *  0.0000     1          
   114  Na    c      0.0000       9.3537 *    -0.3381 *  0.0000     1          
   115  O     c     -4.5078 *    -4.1697 *    -7.0998 *  0.0000     2          
   116  O     c      9.0156 *     0.3381 *    -2.5920 *  0.0000     2          
   117  Na    c      9.0156 *    -1.9158 *     1.9158 *  0.0000     2          
   118  O     c      0.0000       9.3537 *     1.9158 *  0.0000     1          
   119  Na    c      0.0000       7.0998 *     6.4236 *  0.0000     1          
   120  Na    c      0.0000      -6.4236 *    -7.0998 *  0.0000     1          
   121  Na    c      9.0156 *     2.5920 *     1.9158 *  0.0000     2          
   122  Na    c      9.0156 *    -1.9158 *    -2.5920 *  0.0000     2          
   123  Na    c      0.0000      -4.1697 *     8.6775 *  0.0000     1          
   124  Na    c      0.0000      -8.6775 *     4.1697 *  0.0000     1          
   125  O     c      4.5078 *     4.8459 *    -7.0998 *  0.0000     2          
   126  O     c      0.0000       9.3537 *    -2.5920 *  0.0000     1          
   127  Na    c      9.0156 *     2.5920 *    -2.5920 *  0.0000     2          
   128  Na    c     -4.5078 *    -8.6775 *    -0.3381 *  0.0000     2          
   129  Na    c      4.5078 *     0.3381 *     8.6775 *  0.0000     2          
   130  Cl    c      6.7617 *     7.0998 *    -0.3381 *  0.0000     2          
   131  Na    c      6.7617 *     0.3381 *    -7.0998 *  0.0000     2          
   132  Cl    c      2.2539 *    -1.9158 *    -9.3537 *  0.0000     2          
   133  Na    c      2.2539 *     9.3537 *     1.9158 *  0.0000     2          
   134  Na    c      0.0000       4.8459 *     8.6775 *  0.0000     1          
   135  Na    c      0.0000      -8.6775 *    -4.8459 *  0.0000     1          
   136  Na    c      9.0156 *     0.3381 *     4.1697 *  0.0000     2          
   137  Na    c      9.0156 *    -4.1697 *    -0.3381 *  0.0000     2          
   138  O     c     -4.5078 *    -8.6775 *     1.9158 *  0.0000     2          
   139  Cl    c      2.2539 *     2.5920 *    -9.3537 *  0.0000     2          
   140  Na    c      2.2539 *     9.3537 *    -2.5920 *  0.0000     2          
   141  Na    c      0.0000       7.0998 *    -7.0998 *  0.0000     1          
   142  O     c     -4.5078 *    -8.6775 *    -2.5920 *  0.0000     2          
   143  O     c      9.0156 *    -4.1697 *     1.9158 *  0.0000     2          
   144  Na    c      4.5078 *    -6.4236 *     6.4236 *  0.0000     2          
   145  Cl    c      6.7617 *    -6.4236 *     4.1697 *  0.0000     2          
   146  Na    c      6.7617 *    -4.1697 *     6.4236 *  0.0000     2          
   147  Na    c      9.0156 *     0.3381 *    -4.8459 *  0.0000     2          
   148  Na    c      9.0156 *     4.8459 *    -0.3381 *  0.0000     2          
   149  Na    c      0.0000       9.3537 *     4.1697 *  0.0000     1          
   150  Na    c      0.0000      -4.1697 *    -9.3537 *  0.0000     1          
   151  O     c      9.0156 *    -4.1697 *    -2.5920 *  0.0000     2          
   152  Na    c     -4.5078 *     9.3537 *    -0.3381 *  0.0000     2          
   153  Na    c      4.5078 *     0.3381 *    -9.3537 *  0.0000     2          
   154  O     c      9.0156 *     4.8459 *     1.9158 *  0.0000     2          
   155  Na    c      6.7617 *     4.8459 *     6.4236 *  0.0000     2          
   156  Cl    c      6.7617 *    -6.4236 *    -4.8459 *  0.0000     2          
   157  Na    c      0.0000       4.8459 *    -9.3537 *  0.0000     1          
   158  Na    c      0.0000       9.3537 *    -4.8459 *  0.0000     1          
   159  O     c      9.0156 *     4.8459 *    -2.5920 *  0.0000     2          
   160  O     c     -4.5078 *     9.3537 *     1.9158 *  0.0000     2          
   161  Na    c      4.5078 *     7.0998 *     6.4236 *  0.0000     2          
   162  Na    c      4.5078 *    -6.4236 *    -7.0998 *  0.0000     2          
   163  Na    c     -4.5078 *    -4.1697 *     8.6775 *  0.0000     2          
   164  Na    c     -4.5078 *    -8.6775 *     4.1697 *  0.0000     2          
   165  Cl    c      6.7617 *     7.0998 *     4.1697 *  0.0000     2          
   166  Na    c      6.7617 *    -4.1697 *    -7.0998 *  0.0000     2          
   167  O     c     -4.5078 *     9.3537 *    -2.5920 *  0.0000     2          
   168  Na    c      9.0156 *    -4.1697 *     4.1697 *  0.0000     2          
   169  O     c      0.0000      -8.6775 *     6.4236 *  0.0000     1          
   170  Na    c     -4.5078 *     4.8459 *     8.6775 *  0.0000     2          
   171  Na    c     -4.5078 *    -8.6775 *    -4.8459 *  0.0000     2          
   172  Na    c      6.7617 *     4.8459 *    -7.0998 *  0.0000     2          
   173  Cl    c      6.7617 *     7.0998 *    -4.8459 *  0.0000     2          
   174  O     c      0.0000       0.3381 *    10.9314 *  0.0000     1          
   175  Na    c      4.5078 *     7.0998 *    -7.0998 *  0.0000     2          
   176  Cl    c      2.2539 *    -6.4236 *     8.6775 *  0.0000     2          
   177  Na    c      2.2539 *    -8.6775 *     6.4236 *  0.0000     2          
   178  Na    c      9.0156 *     4.8459 *     4.1697 *  0.0000     2          
   179  Na    c      9.0156 *    -4.1697 *    -4.8459 *  0.0000     2          
   180  O     c      9.0156 *     0.3381 *     6.4236 *  0.0000     2          
   181  Na    c      0.0000      -1.9158 *    10.9314 *  0.0000     1          
   182  Na    c      0.0000     -10.9314 *     1.9158 *  0.0000     1          
   183  Cl    c      2.2539 *   -10.9314 *    -0.3381 *  0.0000     2          
   184  Cl    c      6.7617 *    -1.9158 *     8.6775 *  0.0000     2          
   185  Na    c      2.2539 *     0.3381 *    10.9314 *  0.0000     2          
   186  Na    c      6.7617 *    -8.6775 *     1.9158 *  0.0000     2          
   187  Na    c      4.5078 *    -4.1697 *    -9.3537 *  0.0000     2          
   188  Na    c     -4.5078 *     9.3537 *     4.1697 *  0.0000     2          
   189  O     c      0.0000      -8.6775 *    -7.0998 *  0.0000     1          
   190  Na    c      9.0156 *    -1.9158 *     6.4236 *  0.0000     2          
   191  Na    c      0.0000       2.5920 *    10.9314 *  0.0000     1          
   192  Na    c      0.0000     -10.9314 *    -2.5920 *  0.0000     1          
   193  Na    c      9.0156 *    -6.4236 *     1.9158 *  0.0000     2          
   194  Cl    c      6.7617 *     2.5920 *     8.6775 *  0.0000     2          
   195  Na    c      6.7617 *    -8.6775 *    -2.5920 *  0.0000     2          
   196  Na    c      9.0156 *     4.8459 *    -4.8459 *  0.0000     2          
   197  O     c      0.0000       9.3537 *     6.4236 *  0.0000     1          
   198  Na    c      9.0156 *     2.5920 *     6.4236 *  0.0000     2          
   199  Na    c      9.0156 *    -6.4236 *    -2.5920 *  0.0000     2          
   200  Cl    c      2.2539 *     7.0998 *     8.6775 *  0.0000     2          
   201  Cl    c     11.2695 *    -1.9158 *    -0.3381 *  0.0000     2          
   202  Na    c      2.2539 *    -8.6775 *    -7.0998 *  0.0000     2          
   203  Na    c     11.2695 *     0.3381 *     1.9158 *  0.0000     2          
   204  Na    c      4.5078 *     4.8459 *    -9.3537 *  0.0000     2          
   205  Na    c      4.5078 *     9.3537 *    -4.8459 *  0.0000     2          
   206  O     c      9.0156 *     0.3381 *    -7.0998 *  0.0000     2          
   207  Cl    c     11.2695 *     2.5920 *    -0.3381 *  0.0000     2          
   208  Na    c     11.2695 *     0.3381 *    -2.5920 *  0.0000     2          
   209  Cl    c      2.2539 *    -6.4236 *    -9.3537 *  0.0000     2          
   210  Na    c      2.2539 *     9.3537 *     6.4236 *  0.0000     2          
   211  O     c      0.0000       0.3381 *   -11.6076 *  0.0000     1          
   212  Na    c      9.0156 *    -1.9158 *    -7.0998 *  0.0000     2          
   213  Na    c      9.0156 *     7.0998 *     1.9158 *  0.0000     2          
   214  O     c      0.0000      -4.1697 *    10.9314 *  0.0000     1          
   215  O     c      4.5078 *    -8.6775 *     6.4236 *  0.0000     2          
   216  Cl    c      6.7617 *    -1.9158 *    -9.3537 *  0.0000     2          
   217  Na    c      6.7617 *     9.3537 *     1.9158 *  0.0000     2          
   218  O     c      0.0000       9.3537 *    -7.0998 *  0.0000     1          
   219  Na    c      0.0000      11.6076 *     1.9158 *  0.0000     1          
   220  Na    c      0.0000      -1.9158 *   -11.6076 *  0.0000     1          
   221  Na    c      9.0156 *     2.5920 *    -7.0998 *  0.0000     2          
   222  Na    c      9.0156 *     7.0998 *    -2.5920 *  0.0000     2          
   223  Cl    c      2.2539 *    11.6076 *    -0.3381 *  0.0000     2          
   224  Na    c      2.2539 *     0.3381 *   -11.6076 *  0.0000     2          
   225  Cl    c      6.7617 *     2.5920 *    -9.3537 *  0.0000     2          
   226  O     c      4.5078 *     0.3381 *    10.9314 *  0.0000     2          
   227  O     c      9.0156 *    -4.1697 *     6.4236 *  0.0000     2          
   228  Na    c      6.7617 *     9.3537 *    -2.5920 *  0.0000     2          
   229  Na    c      0.0000       2.5920 *   -11.6076 *  0.0000     1          
   230  Na    c      0.0000      11.6076 *    -2.5920 *  0.0000     1          
   231  Cl    c      2.2539 *   -10.9314 *     4.1697 *  0.0000     2          
   232  Na    c      2.2539 *    -4.1697 *    10.9314 *  0.0000     2          
   233  Cl    c      2.2539 *     7.0998 *    -9.3537 *  0.0000     2          
   234  O     c      0.0000       4.8459 *    10.9314 *  0.0000     1          
   235  Na    c      2.2539 *     9.3537 *    -7.0998 *  0.0000     2          
   236  Na    c     -4.5078 *    -1.9158 *    10.9314 *  0.0000     2          
   237  Na    c      4.5078 *   -10.9314 *     1.9158 *  0.0000     2          
   238  O     c      4.5078 *    -8.6775 *    -7.0998 *  0.0000     2          
   239  O     c      9.0156 *     4.8459 *     6.4236 *  0.0000     2          
   240  Na    c     -4.5078 *     2.5920 *    10.9314 *  0.0000     2          
   241  Na    c      4.5078 *   -10.9314 *    -2.5920 *  0.0000     2          
   242  Cl    c      2.2539 *   -10.9314 *    -4.8459 *  0.0000     2          
   243  Cl    c     11.2695 *    -1.9158 *     4.1697 *  0.0000     2          
   244  Na    c      2.2539 *     4.8459 *    10.9314 *  0.0000     2          
   245  Na    c     11.2695 *    -4.1697 *     1.9158 *  0.0000     2          
   246  O     c      9.0156 *    -4.1697 *    -7.0998 *  0.0000     2          
   247  O     c     -4.5078 *     9.3537 *     6.4236 *  0.0000     2          
   248  Na    c      0.0000      -8.6775 *     8.6775 *  0.0000     1          
   249  Cl    c     11.2695 *     2.5920 *     4.1697 *  0.0000     2          
   250  Na    c     11.2695 *    -4.1697 *    -2.5920 *  0.0000     2          
   251  O     c      0.0000      -4.1697 *   -11.6076 *  0.0000     1          
   252  Cl    c     11.2695 *    -1.9158 *    -4.8459 *  0.0000     2          
   253  Na    c     11.2695 *     4.8459 *     1.9158 *  0.0000     2          
   254  O     c     -4.5078 *     0.3381 *   -11.6076 *  0.0000     2          
   255  O     c      9.0156 *     4.8459 *    -7.0998 *  0.0000     2          
   256  Na    c      9.0156 *     0.3381 *     8.6775 *  0.0000     2          
   257  Na    c      9.0156 *    -8.6775 *    -0.3381 *  0.0000     2          
   258  Cl    c      2.2539 *    11.6076 *     4.1697 *  0.0000     2          
   259  Na    c      2.2539 *    -4.1697 *   -11.6076 *  0.0000     2          
   260  Cl    c     11.2695 *     2.5920 *    -4.8459 *  0.0000     2          
   261  Na    c     11.2695 *     4.8459 *    -2.5920 *  0.0000     2          
   262  O     c      4.5078 *    -4.1697 *    10.9314 *  0.0000     2          
   263  O     c      0.0000       4.8459 *   -11.6076 *  0.0000     1          
   264  O     c     -4.5078 *     9.3537 *    -7.0998 *  0.0000     2          
   265  Na    c      4.5078 *    11.6076 *     1.9158 *  0.0000     2          
   266  Na    c      4.5078 *    -1.9158 *   -11.6076 *  0.0000     2          
   267  O     c      9.0156 *    -8.6775 *     1.9158 *  0.0000     2          
   268  Na    c      0.0000      -6.4236 *    10.9314 *  0.0000     1          
   269  Na    c      0.0000     -10.9314 *     6.4236 *  0.0000     1          
   270  Na    c      4.5078 *     2.5920 *   -11.6076 *  0.0000     2          
   271  Na    c      4.5078 *    11.6076 *    -2.5920 *  0.0000     2          
   272  Cl    c      6.7617 *    -6.4236 *     8.6775 *  0.0000     2          
   273  Na    c      6.7617 *    -8.6775 *     6.4236 *  0.0000     2          
   274  Na    c      0.0000       9.3537 *     8.6775 *  0.0000     1          
   275  Na    c      0.0000      -8.6775 *    -9.3537 *  0.0000     1          
   276  Cl    c      2.2539 *    11.6076 *    -4.8459 *  0.0000     2          
   277  Na    c      2.2539 *     4.8459 *   -11.6076 *  0.0000     2          
   278  O     c      4.5078 *     4.8459 *    10.9314 *  0.0000     2          
   279  O     c      9.0156 *    -8.6775 *    -2.5920 *  0.0000     2          
   280  Na    c      9.0156 *    -6.4236 *     6.4236 *  0.0000     2          
   281  Cl    c      6.7617 *   -10.9314 *    -0.3381 *  0.0000     2          
   282  Na    c      6.7617 *     0.3381 *    10.9314 *  0.0000     2          
   283  Na    c     11.2695 *     0.3381 *     6.4236 *  0.0000     2          
   284  Cl    c     11.2695 *    -6.4236 *    -0.3381 *  0.0000     2          
   285  Na    c      9.0156 *     0.3381 *    -9.3537 *  0.0000     2          
   286  Na    c      9.0156 *     9.3537 *    -0.3381 *  0.0000     2          
   287  Na    c      0.0000       7.0998 *    10.9314 *  0.0000     1          
   288  Na    c      0.0000     -10.9314 *    -7.0998 *  0.0000     1          
   289  Na    c     -4.5078 *    -8.6775 *     8.6775 *  0.0000     2          
   290  Cl    c      6.7617 *     7.0998 *     8.6775 *  0.0000     2          
   291  Na    c      6.7617 *    -8.6775 *    -7.0998 *  0.0000     2          
   292  O     c      4.5078 *    -4.1697 *   -11.6076 *  0.0000     2          
   293  O     c      9.0156 *     9.3537 *     1.9158 *  0.0000     2          
   294  Na    c      9.0156 *     7.0998 *     6.4236 *  0.0000     2          
   295  Na    c      9.0156 *    -6.4236 *    -7.0998 *  0.0000     2          
   296  Na    c      0.0000       0.3381 *    13.1853 *  0.0000     1          
   297  Na    c      0.0000     -13.1853 *    -0.3381 *  0.0000     1          
   298  Na    c      9.0156 *    -4.1697 *     8.6775 *  0.0000     2          
   299  Na    c      9.0156 *    -8.6775 *     4.1697 *  0.0000     2          
   300  Na    c      6.7617 *     9.3537 *     6.4236 *  0.0000     2          
   301  Cl    c      6.7617 *    -6.4236 *    -9.3537 *  0.0000     2          
   302  Na    c      0.0000       9.3537 *    -9.3537 *  0.0000     1          
   303  O     c      9.0156 *     9.3537 *    -2.5920 *  0.0000     2          
   304  Na    c      0.0000      11.6076 *     6.4236 *  0.0000     1          
   305  Na    c      0.0000      -6.4236 *   -11.6076 *  0.0000     1          
   306  Cl    c     11.2695 *     7.0998 *    -0.3381 *  0.0000     2          
   307  O     c      0.0000     -13.1853 *     1.9158 *  0.0000     1          
   308  Na    c     11.2695 *     0.3381 *    -7.0998 *  0.0000     2          
   309  O     c      4.5078 *     4.8459 *   -11.6076 *  0.0000     2          
   310  Na    c      9.0156 *     4.8459 *     8.6775 *  0.0000     2          
   311  Na    c      9.0156 *    -8.6775 *    -4.8459 *  0.0000     2          
   312  Cl    c      6.7617 *    11.6076 *    -0.3381 *  0.0000     2          
   313  O     c      0.0000     -13.1853 *    -2.5920 *  0.0000     1          
   314  Na    c      6.7617 *     0.3381 *   -11.6076 *  0.0000     2          
   315  Na    c      4.5078 *    -6.4236 *    10.9314 *  0.0000     2          
   316  Na    c      4.5078 *   -10.9314 *     6.4236 *  0.0000     2          
   317  Na    c      9.0156 *     7.0998 *    -7.0998 *  0.0000     2          
   318  Cl    c      2.2539 *    -1.9158 *    13.1853 *  0.0000     2          
   319  Na    c      2.2539 *   -13.1853 *     1.9158 *  0.0000     2          
   320  Cl    c      6.7617 *   -10.9314 *     4.1697 *  0.0000     2          
   321  Na    c      6.7617 *    -4.1697 *    10.9314 *  0.0000     2          
   322  Na    c      4.5078 *     9.3537 *     8.6775 *  0.0000     2          
   323  Na    c      4.5078 *    -8.6775 *    -9.3537 *  0.0000     2          
   324  Na    c     13.5234 *     0.3381 *    -0.3381 *  0.0000     2          
   325  Na    c      6.7617 *     9.3537 *    -7.0998 *  0.0000     2          
   326  Cl    c      6.7617 *     7.0998 *    -9.3537 *  0.0000     2          
   327  Na    c      0.0000       7.0998 *   -11.6076 *  0.0000     1          
   328  Na    c      0.0000      11.6076 *    -7.0998 *  0.0000     1          
   329  Cl    c      2.2539 *     2.5920 *    13.1853 *  0.0000     2          
   330  Na    c      2.2539 *   -13.1853 *    -2.5920 *  0.0000     2          
   331  Na    c     11.2695 *    -4.1697 *     6.4236 *  0.0000     2          
   332  Cl    c     11.2695 *    -6.4236 *     4.1697 *  0.0000     2          
   333  Na    c      9.0156 *     9.3537 *     4.1697 *  0.0000     2          
   334  Na    c      9.0156 *    -4.1697 *    -9.3537 *  0.0000     2          
   335  O     c     13.5234 *     0.3381 *     1.9158 *  0.0000     2          
   336  Cl    c      6.7617 *   -10.9314 *    -4.8459 *  0.0000     2          
   337  Na    c      6.7617 *     4.8459 *    10.9314 *  0.0000     2          
   338  O     c     13.5234 *     0.3381 *    -2.5920 *  0.0000     2          
   339  Na    c      4.5078 *     7.0998 *    10.9314 *  0.0000     2          
   340  Na    c      4.5078 *   -10.9314 *    -7.0998 *  0.0000     2          
   341  Na    c     13.5234 *    -1.9158 *     1.9158 *  0.0000     2          
   342  Na    c      0.0000      -4.1697 *    13.1853 *  0.0000     1          
   343  Na    c      0.0000     -13.1853 *     4.1697 *  0.0000     1          
   344  Na    c     11.2695 *     4.8459 *     6.4236 *  0.0000     2          
   345  Cl    c     11.2695 *    -6.4236 *    -4.8459 *  0.0000     2          
   346  Na    c      0.0000       0.3381 *   -13.8614 *  0.0000     1          
   347  Na    c      0.0000      13.8614 *    -0.3381 *  0.0000     1          
   348  Na    c      9.0156 *     4.8459 *    -9.3537 *  0.0000     2          
   349  Na    c      9.0156 *     9.3537 *    -4.8459 *  0.0000     2          
   350  Na    c     13.5234 *     2.5920 *     1.9158 *  0.0000     2          
   351  Na    c     13.5234 *    -1.9158 *    -2.5920 *  0.0000     2          
   352  Na    c      4.5078 *   -13.1853 *    -0.3381 *  0.0000     2          
   353  Na    c     -4.5078 *     0.3381 *    13.1853 *  0.0000     2          
   354  Cl    c     11.2695 *     7.0998 *     4.1697 *  0.0000     2          
   355  Na    c     11.2695 *    -4.1697 *    -7.0998 *  0.0000     2          
   356  O     c      0.0000      -8.6775 *    10.9314 *  0.0000     1          
   357  Na    c      4.5078 *     9.3537 *    -9.3537 *  0.0000     2          
   358  O     c      0.0000      13.8614 *     1.9158 *  0.0000     1          
   359  Na    c      4.5078 *    11.6076 *     6.4236 *  0.0000     2          
   360  Na    c      4.5078 *    -6.4236 *   -11.6076 *  0.0000     2          
   361  Na    c     13.5234 *     2.5920 *    -2.5920 *  0.0000     2          
   362  Na    c      0.0000       4.8459 *    13.1853 *  0.0000     1          
   363  Na    c      0.0000     -13.1853 *    -4.8459 *  0.0000     1          
   364  Cl    c      6.7617 *    11.6076 *     4.1697 *  0.0000     2          
   365  O     c      4.5078 *   -13.1853 *     1.9158 *  0.0000     2          
   366  Na    c      6.7617 *    -4.1697 *   -11.6076 *  0.0000     2          
   367  O     c      9.0156 *    -8.6775 *     6.4236 *  0.0000     2          
   368  O     c      0.0000      13.8614 *    -2.5920 *  0.0000     1          
   369  Cl    c      2.2539 *   -10.9314 *     8.6775 *  0.0000     2          
   370  Na    c      2.2539 *    -8.6775 *    10.9314 *  0.0000     2          
   371  Na    c     13.5234 *     0.3381 *     4.1697 *  0.0000     2          
   372  Na    c     13.5234 *    -4.1697 *    -0.3381 *  0.0000     2          
   373  O     c      4.5078 *   -13.1853 *    -2.5920 *  0.0000     2          
   374  Cl    c     11.2695 *     7.0998 *    -4.8459 *  0.0000     2          
   375  Na    c     11.2695 *     4.8459 *    -7.0998 *  0.0000     2          
   376  Cl    c      2.2539 *    -1.9158 *   -13.8614 *  0.0000     2          
   377  O     c      9.0156 *     0.3381 *    10.9314 *  0.0000     2          
   378  Na    c      2.2539 *    13.8614 *     1.9158 *  0.0000     2          
   379  Cl    c      6.7617 *    11.6076 *    -4.8459 *  0.0000     2          
   380  Na    c      6.7617 *     4.8459 *   -11.6076 *  0.0000     2          
   381  Cl    c      2.2539 *     2.5920 *   -13.8614 *  0.0000     2          
   382  Na    c      2.2539 *    13.8614 *    -2.5920 *  0.0000     2          
   383  O     c     13.5234 *    -4.1697 *     1.9158 *  0.0000     2          
   384  Na    c      9.0156 *    -1.9158 *    10.9314 *  0.0000     2          
   385  Na    c      9.0156 *   -10.9314 *     1.9158 *  0.0000     2          
   386  Na    c      4.5078 *    11.6076 *    -7.0998 *  0.0000     2          
   387  Na    c      4.5078 *     7.0998 *   -11.6076 *  0.0000     2          
   388  Cl    c     11.2695 *    -1.9158 *     8.6775 *  0.0000     2          
   389  Na    c     11.2695 *    -8.6775 *     1.9158 *  0.0000     2          
   390  Na    c     13.5234 *     0.3381 *    -4.8459 *  0.0000     2          
   391  Na    c     13.5234 *     4.8459 *    -0.3381 *  0.0000     2          
   392  O     c      9.0156 *    -8.6775 *    -7.0998 *  0.0000     2          
   393  O     c      0.0000       9.3537 *    10.9314 *  0.0000     1          
   394  O     c     13.5234 *    -4.1697 *    -2.5920 *  0.0000     2          
   395  Na    c      9.0156 *     2.5920 *    10.9314 *  0.0000     2          
   396  Na    c      9.0156 *   -10.9314 *    -2.5920 *  0.0000     2          
   397  Cl    c     11.2695 *     2.5920 *     8.6775 *  0.0000     2          
   398  Na    c     11.2695 *    -8.6775 *    -2.5920 *  0.0000     2          
   399  Na    c      0.0000      13.8614 *     4.1697 *  0.0000     1          
   400  Na    c      0.0000      -4.1697 *   -13.8614 *  0.0000     1          
   401  O     c      0.0000      -8.6775 *   -11.6076 *  0.0000     1          
   402  O     c      9.0156 *     9.3537 *     6.4236 *  0.0000     2          
   403  O     c     13.5234 *     4.8459 *     1.9158 *  0.0000     2          
   404  Na    c      4.5078 *    -4.1697 *    13.1853 *  0.0000     2          
   405  Na    c      4.5078 *   -13.1853 *     4.1697 *  0.0000     2          
   406  Cl    c      2.2539 *   -10.9314 *    -9.3537 *  0.0000     2          
   407  Na    c      2.2539 *     9.3537 *    10.9314 *  0.0000     2          
   408  Na    c      4.5078 *    13.8614 *    -0.3381 *  0.0000     2          
   409  Na    c     -4.5078 *     0.3381 *   -13.8614 *  0.0000     2          
   410  O     c     13.5234 *     4.8459 *    -2.5920 *  0.0000     2          
   411  Cl    c      2.2539 *    11.6076 *     8.6775 *  0.0000     2          
   412  O     c      0.0000     -13.1853 *     6.4236 *  0.0000     1          
   413  Na    c      2.2539 *    -8.6775 *   -11.6076 *  0.0000     2          
   414  O     c      4.5078 *    -8.6775 *    10.9314 *  0.0000     2          
   415  Na    c      0.0000       4.8459 *   -13.8614 *  0.0000     1          
   416  Na    c      0.0000      13.8614 *    -4.8459 *  0.0000     1          
   417  O     c      9.0156 *     0.3381 *   -11.6076 *  0.0000     2          
   418  O     c      4.5078 *    13.8614 *     1.9158 *  0.0000     2          
   419  Na    c      4.5078 *     4.8459 *    13.1853 *  0.0000     2          
   420  Na    c      4.5078 *   -13.1853 *    -4.8459 *  0.0000     2          
   421  Na    c     13.5234 *    -4.1697 *     4.1697 *  0.0000     2          
   422  Cl    c     11.2695 *    -1.9158 *    -9.3537 *  0.0000     2          
   423  O     c      9.0156 *    -4.1697 *    10.9314 *  0.0000     2          
   424  Na    c     11.2695 *     9.3537 *     1.9158 *  0.0000     2          
   425  O     c      4.5078 *    13.8614 *    -2.5920 *  0.0000     2          
   426  O     c      9.0156 *     9.3537 *    -7.0998 *  0.0000     2          
   427  Na    c      9.0156 *    -1.9158 *   -11.6076 *  0.0000     2          
   428  Na    c      9.0156 *    11.6076 *     1.9158 *  0.0000     2          
   429  Na    c      2.2539 *   -13.1853 *     6.4236 *  0.0000     2          
   430  Cl    c      2.2539 *    -6.4236 *    13.1853 *  0.0000     2          
   431  Cl    c     11.2695 *     2.5920 *    -9.3537 *  0.0000     2          
   432  Na    c     11.2695 *     9.3537 *    -2.5920 *  0.0000     2          
   433  O     c      0.0000       9.3537 *   -11.6076 *  0.0000     1          
   434  Na    c      9.0156 *     2.5920 *   -11.6076 *  0.0000     2          
   435  Na    c      9.0156 *    11.6076 *    -2.5920 *  0.0000     2          
   436  Cl    c      6.7617 *    -1.9158 *    13.1853 *  0.0000     2          
   437  Na    c      6.7617 *   -13.1853 *     1.9158 *  0.0000     2          
   438  Na    c     13.5234 *     4.8459 *     4.1697 *  0.0000     2          
   439  Na    c     13.5234 *    -4.1697 *    -4.8459 *  0.0000     2          
   440  O     c      0.0000     -13.1853 *    -7.0998 *  0.0000     1          
   441  O     c      9.0156 *     4.8459 *    10.9314 *  0.0000     2          
   442  O     c     13.5234 *     0.3381 *     6.4236 *  0.0000     2          
   443  Cl    c      6.7617 *     2.5920 *    13.1853 *  0.0000     2          
   444  Na    c      6.7617 *   -13.1853 *    -2.5920 *  0.0000     2          
   445  Cl    c      2.2539 *    11.6076 *    -9.3537 *  0.0000     2          
   446  Na    c      2.2539 *     9.3537 *   -11.6076 *  0.0000     2          
   447  O     c     -4.5078 *     9.3537 *    10.9314 *  0.0000     2          
   448  Na    c     13.5234 *    -1.9158 *     6.4236 *  0.0000     2          
   449  Na    c     13.5234 *    -6.4236 *     1.9158 *  0.0000     2          
   450  Cl    c      2.2539 *     7.0998 *    13.1853 *  0.0000     2          
   451  Na    c      2.2539 *   -13.1853 *    -7.0998 *  0.0000     2          
   452  Na    c      4.5078 *    13.8614 *     4.1697 *  0.0000     2          
   453  Na    c      4.5078 *    -4.1697 *   -13.8614 *  0.0000     2          
   454  Na    c     13.5234 *     4.8459 *    -4.8459 *  0.0000     2          
   455  O     c      4.5078 *    -8.6775 *   -11.6076 *  0.0000     2          
   456  Na    c     13.5234 *     2.5920 *     6.4236 *  0.0000     2          
   457  Na    c     13.5234 *    -6.4236 *    -2.5920 *  0.0000     2          
   458  Na    c      9.0156 *    -8.6775 *     8.6775 *  0.0000     2          
   459  O     c      0.0000      13.8614 *     6.4236 *  0.0000     1          
   460  O     c      9.0156 *    -4.1697 *   -11.6076 *  0.0000     2          
   461  O     c     13.5234 *     0.3381 *    -7.0998 *  0.0000     2          
   462  O     c      4.5078 *   -13.1853 *     6.4236 *  0.0000     2          
   463  Na    c      4.5078 *     4.8459 *   -13.8614 *  0.0000     2          
   464  Na    c      4.5078 *    13.8614 *    -4.8459 *  0.0000     2          
   465  Na    c     13.5234 *     7.0998 *     1.9158 *  0.0000     2          
   466  Na    c     13.5234 *    -1.9158 *    -7.0998 *  0.0000     2          
   467  O     c      0.0000       0.3381 *    15.4392 *  0.0000     1          
   468  Na    c      2.2539 *    13.8614 *     6.4236 *  0.0000     2          
   469  Cl    c      2.2539 *    -6.4236 *   -13.8614 *  0.0000     2          
   470  Na    c      0.0000     -10.9314 *    10.9314 *  0.0000     1          
   471  O     c      9.0156 *     4.8459 *   -11.6076 *  0.0000     2          
   472  Na    c     13.5234 *     2.5920 *    -7.0998 *  0.0000     2          
   473  Na    c     13.5234 *     7.0998 *    -2.5920 *  0.0000     2          
   474  Cl    c      6.7617 *   -10.9314 *     8.6775 *  0.0000     2          
   475  Na    c      6.7617 *    -8.6775 *    10.9314 *  0.0000     2          
   476  Cl    c      6.7617 *    -1.9158 *   -13.8614 *  0.0000     2          
   477  O     c     13.5234 *    -4.1697 *     6.4236 *  0.0000     2          
   478  Na    c      6.7617 *    13.8614 *     1.9158 *  0.0000     2          
   479  Na    c      0.0000      -1.9158 *    15.4392 *  0.0000     1          
   480  Na    c      0.0000     -15.4392 *     1.9158 *  0.0000     1          
   481  Na    c      9.0156 *    -6.4236 *    10.9314 *  0.0000     2          
   482  Na    c      9.0156 *   -10.9314 *     6.4236 *  0.0000     2          
   483  O     c      0.0000      13.8614 *    -7.0998 *  0.0000     1          
   484  O     c      4.5078 *     9.3537 *   -11.6076 *  0.0000     2          
   485  Cl    c      2.2539 *   -15.4392 *    -0.3381 *  0.0000     2          
   486  Cl    c     11.2695 *    -6.4236 *     8.6775 *  0.0000     2          
   487  Na    c      2.2539 *     0.3381 *    15.4392 *  0.0000     2          
   488  Na    c     11.2695 *    -8.6775 *     6.4236 *  0.0000     2          
   489  Na    c      9.0156 *     9.3537 *     8.6775 *  0.0000     2          
   490  Na    c      9.0156 *    -8.6775 *    -9.3537 *  0.0000     2          
   491  O     c      4.5078 *   -13.1853 *    -7.0998 *  0.0000     2          
   492  Cl    c      6.7617 *     2.5920 *   -13.8614 *  0.0000     2          
   493  Na    c      6.7617 *    13.8614 *    -2.5920 *  0.0000     2          
   494  Na    c      0.0000       2.5920 *    15.4392 *  0.0000     1          
   495  Na    c      0.0000     -15.4392 *    -2.5920 *  0.0000     1          
   496  Cl    c     11.2695 *   -10.9314 *    -0.3381 *  0.0000     2          
   497  Na    c     11.2695 *     0.3381 *    10.9314 *  0.0000     2          
   498  Cl    c      2.2539 *     7.0998 *   -13.8614 *  0.0000     2          
   499  Na    c      2.2539 *    13.8614 *    -7.0998 *  0.0000     2          
   500  O     c     13.5234 *     4.8459 *     6.4236 *  0.0000     2          
   501  Na    c      0.0000      -8.6775 *    13.1853 *  0.0000     1          
   502  Na    c      0.0000     -13.1853 *     8.6775 *  0.0000     1          
   503  O     c     13.5234 *    -4.1697 *    -7.0998 *  0.0000     2          
   504  Na    c      9.0156 *     7.0998 *    10.9314 *  0.0000     2          
   505  Na    c      9.0156 *   -10.9314 *    -7.0998 *  0.0000     2          
   506  Cl    c     11.2695 *     7.0998 *     8.6775 *  0.0000     2          
   507  Cl    c    -15.7773 *    -1.9158 *    -0.3381 *  0.0000     2          
   508  Na    c     11.2695 *    -8.6775 *    -7.0998 *  0.0000     2          
   509  Na    c    -15.7773 *     0.3381 *     1.9158 *  0.0000     2          
   510  Cl    c      6.7617 *   -10.9314 *    -9.3537 *  0.0000     2          
   511  Na    c      6.7617 *     9.3537 *    10.9314 *  0.0000     2          
   512  O     c      4.5078 *    13.8614 *     6.4236 *  0.0000     2          
   513  Na    c      0.0000      11.6076 *    10.9314 *  0.0000     1          
   514  Na    c      0.0000     -10.9314 *   -11.6076 *  0.0000     1          
   515  Na    c      9.0156 *   -13.1853 *    -0.3381 *  0.0000     2          
   516  Na    c      9.0156 *     0.3381 *    13.1853 *  0.0000     2          
   517  Cl    c      6.7617 *    11.6076 *     8.6775 *  0.0000     2          
   518  Cl    c    -15.7773 *     2.5920 *    -0.3381 *  0.0000     2          
   519  Na    c      6.7617 *    -8.6775 *   -11.6076 *  0.0000     2          
   520  Na    c    -15.7773 *     0.3381 *    -2.5920 *  0.0000     2          
   521  O     c      0.0000      -4.1697 *    15.4392 *  0.0000     1          
   522  Na    c     11.2695 *     9.3537 *     6.4236 *  0.0000     2          
   523  Cl    c     11.2695 *    -6.4236 *    -9.3537 *  0.0000     2          
   524  Na    c      9.0156 *     9.3537 *    -9.3537 *  0.0000     2          
   525  O     c     13.5234 *     4.8459 *    -7.0998 *  0.0000     2          
   526  Na    c      9.0156 *    11.6076 *     6.4236 *  0.0000     2          
   527  Na    c      9.0156 *    -6.4236 *   -11.6076 *  0.0000     2          
   528  Na    c     13.5234 *     0.3381 *     8.6775 *  0.0000     2          
   529  Na    c     13.5234 *    -8.6775 *    -0.3381 *  0.0000     2          
   530  O     c      9.0156 *   -13.1853 *     1.9158 *  0.0000     2          
   531  O     c      4.5078 *     0.3381 *    15.4392 *  0.0000     2          
   532  Na    c      4.5078 *   -10.9314 *    10.9314 *  0.0000     2          
   533  O     c      0.0000       0.3381 *   -16.1153 *  0.0000     1          
   534  Cl    c      2.2539 *   -15.4392 *     4.1697 *  0.0000     2          
   535  Cl    c      6.7617 *    -6.4236 *    13.1853 *  0.0000     2          
   536  Na    c      2.2539 *    -4.1697 *    15.4392 *  0.0000     2          
   537  Na    c      6.7617 *   -13.1853 *     6.4236 *  0.0000     2          
   538  Na    c      0.0000       9.3537 *    13.1853 *  0.0000     1          
   539  Na    c      0.0000     -13.1853 *    -9.3537 *  0.0000     1          
   540  O     c      9.0156 *   -13.1853 *    -2.5920 *  0.0000     2          
   541  Na    c     11.2695 *     0.3381 *   -11.6076 *  0.0000     2          
   542  Cl    c     11.2695 *    11.6076 *    -0.3381 *  0.0000     2          
   543  O     c      0.0000       4.8459 *    15.4392 *  0.0000     1          
   544  O     c     13.5234 *    -8.6775 *     1.9158 *  0.0000     2          
   545  Na    c      4.5078 *    -1.9158 *    15.4392 *  0.0000     2          
   546  Na    c      4.5078 *   -15.4392 *     1.9158 *  0.0000     2          
   547  O     c      4.5078 *    13.8614 *    -7.0998 *  0.0000     2          
   548  Na    c      0.0000      16.1153 *     1.9158 *  0.0000     1          
   549  Na    c      0.0000      -1.9158 *   -16.1153 *  0.0000     1          
   550  Cl    c     11.2695 *   -10.9314 *     4.1697 *  0.0000     2          
   551  Na    c     11.2695 *    -4.1697 *    10.9314 *  0.0000     2          
   552  Na    c      2.2539 *     0.3381 *   -16.1153 *  0.0000     2          
   553  Cl    c      2.2539 *    16.1153 *    -0.3381 *  0.0000     2          
   554  Cl    c     11.2695 *     7.0998 *    -9.3537 *  0.0000     2          
   555  O     c     13.5234 *    -8.6775 *    -2.5920 *  0.0000     2          
   556  Na    c     11.2695 *     9.3537 *    -7.0998 *  0.0000     2          
   557  Na    c      4.5078 *   -15.4392 *    -2.5920 *  0.0000     2          
   558  Na    c     -4.5078 *     2.5920 *    15.4392 *  0.0000     2          
   559  Na    c     13.5234 *    -6.4236 *     6.4236 *  0.0000     2          
   560  Na    c      0.0000       2.5920 *   -16.1153 *  0.0000     1          
   561  Na    c      0.0000      16.1153 *    -2.5920 *  0.0000     1          
   562  Na    c      9.0156 *     7.0998 *   -11.6076 *  0.0000     2          
   563  Na    c      9.0156 *    11.6076 *    -7.0998 *  0.0000     2          
   564  Cl    c      2.2539 *   -15.4392 *    -4.8459 *  0.0000     2          
   565  Na    c      2.2539 *     4.8459 *    15.4392 *  0.0000     2          
   566  Na    c      0.0000      13.8614 *     8.6775 *  0.0000     1          
   567  Na    c      0.0000      -8.6775 *   -13.8614 *  0.0000     1          
   568  Cl    c      6.7617 *    11.6076 *    -9.3537 *  0.0000     2          
   569  Na    c      6.7617 *     9.3537 *   -11.6076 *  0.0000     2          
   570  Na    c      4.5078 *   -13.1853 *     8.6775 *  0.0000     2          
   571  Na    c     -4.5078 *    -8.6775 *    13.1853 *  0.0000     2          
   572  Na    c      0.0000      11.6076 *   -11.6076 *  0.0000     1          
   573  Cl    c      6.7617 *     7.0998 *    13.1853 *  0.0000     2          
   574  Cl    c     11.2695 *   -10.9314 *    -4.8459 *  0.0000     2          
   575  Cl    c    -15.7773 *    -1.9158 *     4.1697 *  0.0000     2          
   576  Na    c      6.7617 *   -13.1853 *    -7.0998 *  0.0000     2          
   577  Na    c    -15.7773 *    -4.1697 *     1.9158 *  0.0000     2          
   578  Na    c     11.2695 *     4.8459 *    10.9314 *  0.0000     2          
   579  Na    c     13.5234 *     0.3381 *    -9.3537 *  0.0000     2          
   580  Na    c     13.5234 *     9.3537 *    -0.3381 *  0.0000     2          
   581  Na    c      9.0156 *    -4.1697 *    13.1853 *  0.0000     2          
   582  Na    c      9.0156 *   -13.1853 *     4.1697 *  0.0000     2          
   583  Na    c    -15.7773 *    -4.1697 *    -2.5920 *  0.0000     2          
   584  Cl    c    -15.7773 *     2.5920 *     4.1697 *  0.0000     2          
   585  Na    c      9.0156 *     0.3381 *   -13.8614 *  0.0000     2          
   586  Na    c      9.0156 *    13.8614 *    -0.3381 *  0.0000     2          
   587  O     c     13.5234 *     9.3537 *     1.9158 *  0.0000     2          
   588  Na    c      4.5078 *    11.6076 *    10.9314 *  0.0000     2          
   589  Na    c      4.5078 *   -10.9314 *   -11.6076 *  0.0000     2          
   590  Na    c     13.5234 *     7.0998 *     6.4236 *  0.0000     2          
   591  Na    c     13.5234 *    -6.4236 *    -7.0998 *  0.0000     2          
   592  Na    c     13.5234 *    -4.1697 *     8.6775 *  0.0000     2          
   593  Na    c     13.5234 *    -8.6775 *     4.1697 *  0.0000     2          
   594  Cl    c    -15.7773 *    -1.9158 *    -4.8459 *  0.0000     2          
   595  O     c      4.5078 *    -4.1697 *    15.4392 *  0.0000     2          
   596  O     c      9.0156 *    -8.6775 *    10.9314 *  0.0000     2          
   597  Na    c    -15.7773 *     4.8459 *     1.9158 *  0.0000     2          
   598  O     c      0.0000      -4.1697 *   -16.1153 *  0.0000     1          
   599  O     c      9.0156 *    13.8614 *     1.9158 *  0.0000     2          
   600  O     c     13.5234 *     9.3537 *    -2.5920 *  0.0000     2          
   601  Na    c      9.0156 *   -13.1853 *    -4.8459 *  0.0000     2          
   602  Na    c      9.0156 *     4.8459 *    13.1853 *  0.0000     2          
   603  Cl    c     11.2695 *    11.6076 *     4.1697 *  0.0000     2          
   604  Cl    c    -15.7773 *     2.5920 *    -4.8459 *  0.0000     2          
   605  Na    c     11.2695 *    -4.1697 *   -11.6076 *  0.0000     2          
   606  Na    c    -15.7773 *     4.8459 *    -2.5920 *  0.0000     2          
   607  Cl    c      6.7617 *    -6.4236 *   -13.8614 *  0.0000     2          
   608  Na    c      6.7617 *    13.8614 *     6.4236 *  0.0000     2          
   609  Na    c      0.0000      -6.4236 *    15.4392 *  0.0000     1          
   610  Na    c      0.0000     -15.4392 *     6.4236 *  0.0000     1          
   611  Na    c      0.0000       9.3537 *   -13.8614 *  0.0000     1          
   612  Na    c      0.0000      13.8614 *    -9.3537 *  0.0000     1          
   613  O     c      4.5078 *     0.3381 *   -16.1153 *  0.0000     2          
   614  O     c      9.0156 *    13.8614 *    -2.5920 *  0.0000     2          
   615  Na    c      4.5078 *   -13.1853 *    -9.3537 *  0.0000     2          
   616  Na    c     -4.5078 *     9.3537 *    13.1853 *  0.0000     2          
   617  Na    c     13.5234 *    -8.6775 *    -4.8459 *  0.0000     2          
   618  Na    c     13.5234 *     4.8459 *     8.6775 *  0.0000     2          
   619  Na    c      2.2539 *    -4.1697 *   -16.1153 *  0.0000     2          
   620  Cl    c      2.2539 *    16.1153 *     4.1697 *  0.0000     2          
   621  O     c     -4.5078 *     4.8459 *    15.4392 *  0.0000     2          
   622  O     c      0.0000       4.8459 *   -16.1153 *  0.0000     1          
   623  Na    c      4.5078 *    16.1153 *     1.9158 *  0.0000     2          
   624  Na    c      4.5078 *    -1.9158 *   -16.1153 *  0.0000     2          
   625  Na    c     13.5234 *     7.0998 *    -7.0998 *  0.0000     2          
   626  Na    c      6.7617 *     0.3381 *    15.4392 *  0.0000     2          
   627  Cl    c      6.7617 *   -15.4392 *    -0.3381 *  0.0000     2          
   628  Cl    c     11.2695 *    11.6076 *    -4.8459 *  0.0000     2          
   629  Na    c     11.2695 *     4.8459 *   -11.6076 *  0.0000     2          
   630  Na    c      4.5078 *    16.1153 *    -2.5920 *  0.0000     2          
   631  Na    c     -4.5078 *     2.5920 *   -16.1153 *  0.0000     2          
   632  Na    c      4.5078 *    13.8614 *     8.6775 *  0.0000     2          
   633  Na    c      4.5078 *    -8.6775 *   -13.8614 *  0.0000     2          
   634  Na    c     13.5234 *     9.3537 *     4.1697 *  0.0000     2          
   635  Na    c     13.5234 *    -4.1697 *    -9.3537 *  0.0000     2          
   636  Cl    c      2.2539 *    16.1153 *    -4.8459 *  0.0000     2          
   637  Na    c      2.2539 *     4.8459 *   -16.1153 *  0.0000     2          
   638  Cl    c      6.7617 *     7.0998 *   -13.8614 *  0.0000     2          
   639  Na    c      6.7617 *    13.8614 *    -7.0998 *  0.0000     2          
   640  O     c      9.0156 *     9.3537 *    10.9314 *  0.0000     2          
   641  Na    c      0.0000       7.0998 *    15.4392 *  0.0000     1          
   642  Na    c      0.0000     -15.4392 *    -7.0998 *  0.0000     1          
   643  Na    c      4.5078 *    11.6076 *   -11.6076 *  0.0000     2          
   644  Na    c    -15.7773 *     0.3381 *     6.4236 *  0.0000     2          
   645  Cl    c    -15.7773 *    -6.4236 *    -0.3381 *  0.0000     2          
   646  Na    c      9.0156 *    13.8614 *     4.1697 *  0.0000     2          
   647  Na    c      9.0156 *    -4.1697 *   -13.8614 *  0.0000     2          
   648  O     c      9.0156 *    -8.6775 *   -11.6076 *  0.0000     2          
   649  O     c      0.0000     -13.1853 *    10.9314 *  0.0000     1          
   650  Na    c     13.5234 *     4.8459 *    -9.3537 *  0.0000     2          
   651  Na    c     13.5234 *     9.3537 *    -4.8459 *  0.0000     2          
   652  O     c      9.0156 *   -13.1853 *     6.4236 *  0.0000     2          
   653  Na    c      9.0156 *     4.8459 *   -13.8614 *  0.0000     2          
   654  Na    c      9.0156 *    13.8614 *    -4.8459 *  0.0000     2          
   655  O     c      4.5078 *    -4.1697 *   -16.1153 *  0.0000     2          
   656  Cl    c      2.2539 *   -10.9314 *    13.1853 *  0.0000     2          
   657  Na    c      2.2539 *   -13.1853 *    10.9314 *  0.0000     2          
   658  Na    c    -15.7773 *     0.3381 *    -7.0998 *  0.0000     2          
   659  Cl    c    -15.7773 *     7.0998 *    -0.3381 *  0.0000     2          
   660  O     c     13.5234 *    -8.6775 *     6.4236 *  0.0000     2          
   661  Na    c      4.5078 *   -15.4392 *     6.4236 *  0.0000     2          
   662  Na    c     -4.5078 *    -6.4236 *    15.4392 *  0.0000     2          
   663  Na    c      4.5078 *     9.3537 *   -13.8614 *  0.0000     2          
   664  Na    c      4.5078 *    13.8614 *    -9.3537 *  0.0000     2          
   665  Na    c      0.0000      16.1153 *     6.4236 *  0.0000     1          
   666  Na    c      0.0000      -6.4236 *   -16.1153 *  0.0000     1          
   667  Cl    c      6.7617 *   -15.4392 *     4.1697 *  0.0000     2          
   668  Na    c      6.7617 *    -4.1697 *    15.4392 *  0.0000     2          
   669  O     c     13.5234 *     0.3381 *    10.9314 *  0.0000     2          
   670  O     c     -4.5078 *     4.8459 *   -16.1153 *  0.0000     2          
   671  O     c      9.0156 *     9.3537 *   -11.6076 *  0.0000     2          
   672  Cl    c     11.2695 *    -1.9158 *    13.1853 *  0.0000     2          
   673  Na    c     11.2695 *   -13.1853 *     1.9158 *  0.0000     2          
   674  O     c      9.0156 *   -13.1853 *    -7.0998 *  0.0000     2          
   675  Na    c      6.7617 *     0.3381 *   -16.1153 *  0.0000     2          
   676  Cl    c      6.7617 *    16.1153 *    -0.3381 *  0.0000     2          
   677  Na    c     13.5234 *    -1.9158 *    10.9314 *  0.0000     2          
   678  Na    c     13.5234 *   -10.9314 *     1.9158 *  0.0000     2          
   679  Na    c     11.2695 *   -13.1853 *    -2.5920 *  0.0000     2          
   680  Cl    c     11.2695 *     2.5920 *    13.1853 *  0.0000     2          
   681  Na    c    -15.7773 *    -4.1697 *     6.4236 *  0.0000     2          
   682  Cl    c      6.7617 *   -15.4392 *    -4.8459 *  0.0000     2          
   683  Cl    c    -15.7773 *    -6.4236 *     4.1697 *  0.0000     2          
   684  Na    c      6.7617 *     4.8459 *    15.4392 *  0.0000     2          
   685  O     c      0.0000     -13.1853 *   -11.6076 *  0.0000     1          
   686  O     c     13.5234 *    -8.6775 *    -7.0998 *  0.0000     2          
   687  Na    c      4.5078 *     7.0998 *    15.4392 *  0.0000     2          
   688  Na    c      4.5078 *   -15.4392 *    -7.0998 *  0.0000     2          
   689  Na    c     13.5234 *     2.5920 *    10.9314 *  0.0000     2          
   690  Na    c     13.5234 *   -10.9314 *    -2.5920 *  0.0000     2          
   691  Na    c      0.0000       7.0998 *   -16.1153 *  0.0000     1          
   692  Na    c      0.0000      16.1153 *    -7.0998 *  0.0000     1          
   693  O     c      0.0000      13.8614 *    10.9314 *  0.0000     1          
   694  O     c     13.5234 *     9.3537 *     6.4236 *  0.0000     2          
   695  Na    c      0.0000       0.3381 *    17.6931 *  0.0000     1          
   696  Na    c      0.0000     -17.6931 *    -0.3381 *  0.0000     1          
   697  Cl    c      2.2539 *    11.6076 *    13.1853 *  0.0000     2          
   698  Na    c      2.2539 *   -13.1853 *   -11.6076 *  0.0000     2          
   699  Cl    c    -15.7773 *    -6.4236 *    -4.8459 *  0.0000     2          
[...]
   1325 y          2.253894      2.267226     0.013332    Cartesian    0.59
   1325 z        -15.777255    -15.762033     0.015222    Cartesian   -0.10
   1326 x          2.253894      2.253894     0.000000    Cartesian    0.00
   1326 y         20.285042     20.275276    -0.009767    Cartesian   -0.05
   1326 z          2.253894      2.239819    -0.014075    Cartesian   -0.62
   1327 x         15.777255     15.775663    -0.001592    Cartesian   -0.01
   1327 y          6.761681      6.760412    -0.001268    Cartesian   -0.02
   1327 z        -11.269468    -11.249547     0.019921    Cartesian   -0.18
   1328 x         13.523362     13.545113     0.021751    Cartesian    0.16
   1328 y         -4.507787     -4.504916     0.002872    Cartesian   -0.06
   1328 z         13.523362     13.549363     0.026001    Cartesian    0.19
   1329 x         18.031149     18.090074     0.058925    Cartesian    0.33
   1329 y          4.507787      4.503441    -0.004346    Cartesian   -0.10
   1329 z         -9.015574     -9.040253    -0.024679    Cartesian    0.27
   1330 x         11.269468     11.257363    -0.012105    Cartesian   -0.11
   1330 y          6.761681      6.740774    -0.020907    Cartesian   -0.31
   1330 z         15.777255     15.765886    -0.011369    Cartesian   -0.07
   1331 x          2.253894      2.253894     0.000000    Cartesian    0.00
   1331 y         20.285042     20.285135     0.000093    Cartesian    0.00
   1331 z         -2.253894     -2.249545     0.004349    Cartesian   -0.19
   1332 x          4.507787      4.498158    -0.009629    Cartesian   -0.21
   1332 y         -0.000000      0.003076     0.003076    Cartesian *******
   1332 z        -18.031149    -18.129398    -0.098249    Cartesian    0.54
   1333 x         -2.253894     -2.254472    -0.000579    Cartesian    0.03
   1333 y         11.269468     11.275977     0.006509    Cartesian    0.06
   1333 z         15.777255     15.763016    -0.014240    Cartesian   -0.09
   1334 x         20.285042     20.279951    -0.005091    Cartesian   -0.03
   1334 y         -2.253894     -2.242479     0.011415    Cartesian   -0.51
   1334 z          2.253894      2.254532     0.000639    Cartesian    0.03
   1335 x          2.253894      2.253894     0.000000    Cartesian    0.00
   1335 y         11.269468     11.280999     0.011531    Cartesian    0.10
   1335 z        -15.777255    -15.755575     0.021680    Cartesian   -0.14
   1336 x          6.761681      6.766883     0.005203    Cartesian    0.08
   1336 y         15.777255     15.770291    -0.006964    Cartesian   -0.04
   1336 z        -11.269468    -11.250885     0.018584    Cartesian   -0.16
   1337 x         13.523362     13.542488     0.019127    Cartesian    0.14
   1337 y         13.523362     13.533283     0.009921    Cartesian    0.07
   1337 z         -9.015574     -9.018772    -0.003197    Cartesian    0.04
   1338 x          4.507787      4.526960     0.019172    Cartesian    0.43
   1338 y          4.507787      4.503257    -0.004530    Cartesian   -0.10
   1338 z        -18.031149    -17.973128     0.058021    Cartesian   -0.32
   1339 x         20.285042     20.283240    -0.001802    Cartesian   -0.01
   1339 y         -2.253894     -2.240112     0.013781    Cartesian   -0.61
   1339 z         -2.253894     -2.254465    -0.000571    Cartesian    0.03
   1340 x         13.523362     13.553487     0.030125    Cartesian    0.22
   1340 y          9.015574      9.010774    -0.004800    Cartesian   -0.05
   1340 z         13.523362     13.542161     0.018799    Cartesian    0.14
   1341 x          4.507787      4.515334     0.007547    Cartesian    0.17
   1341 y         18.031149     18.016291    -0.014858    Cartesian   -0.08
   1341 z         -9.015574     -9.029715    -0.014140    Cartesian    0.16
   1342 x         20.285042     20.282126    -0.002917    Cartesian   -0.01
   1342 y          6.761681      6.750923    -0.010758    Cartesian   -0.16
   1342 z          2.253894      2.238534    -0.015360    Cartesian   -0.68
   1343 x          9.015574      9.017606     0.002032    Cartesian    0.02
   1343 y         13.523362     13.562365     0.039003    Cartesian    0.29
   1343 z         13.523362     13.567566     0.044205    Cartesian    0.33
   1344 x          2.253894      2.253894     0.000000    Cartesian    0.00
   1344 y        -15.777255    -15.761567     0.015689    Cartesian   -0.10
   1344 z          6.761681      6.737219    -0.024461    Cartesian   -0.36
   1345 x         -2.253894     -2.256732    -0.002839    Cartesian    0.13
   1345 y         -6.761681     -6.730033     0.031648    Cartesian   -0.47
   1345 z        -15.777255    -15.763427     0.013828    Cartesian   -0.09
   1346 x         20.285042     20.283802    -0.001240    Cartesian   -0.01
   1346 y          6.761681      6.753136    -0.008545    Cartesian   -0.13
   1346 z         -2.253894     -2.239871     0.014023    Cartesian   -0.62
   1347 x          9.015574      9.034289     0.018715    Cartesian    0.21
   1347 y         -9.015574     -9.044141    -0.028566    Cartesian    0.32
   1347 z        -13.523362    -13.568735    -0.045373    Cartesian    0.34
   1348 x         11.269468     11.268022    -0.001447    Cartesian   -0.01
   1348 y         -2.253894     -2.248871     0.005022    Cartesian   -0.22
   1348 z        -15.777255    -15.765745     0.011510    Cartesian   -0.07
   1349 x          4.507787      4.478593    -0.029194    Cartesian   -0.65
   1349 y         -4.507787     -4.514168    -0.006381    Cartesian    0.14
   1349 z         18.031149     18.061097     0.029948    Cartesian    0.17
   1350 x          9.015574      9.016689     0.001115    Cartesian    0.01
   1350 y        -13.523362    -13.590197    -0.066835    Cartesian    0.49
   1350 z          9.015574      9.020385     0.004811    Cartesian    0.05
   1351 x         13.523362     13.530907     0.007545    Cartesian    0.06
   1351 y         -4.507787     -4.508318    -0.000530    Cartesian    0.01
   1351 z        -13.523362    -13.522291     0.001071    Cartesian   -0.01
   1352 x         15.777255     15.775958    -0.001297    Cartesian   -0.01
   1352 y        -11.269468    -11.248618     0.020850    Cartesian   -0.19
   1352 z          2.253894      2.247549    -0.006344    Cartesian   -0.28
   1353 x          6.761681      6.763116     0.001436    Cartesian    0.02
   1353 y         20.285042     20.273034    -0.012009    Cartesian   -0.06
   1353 z          2.253894      2.265661     0.011768    Cartesian    0.52
   1354 x          9.015574      8.998237    -0.017338    Cartesian   -0.19
   1354 y         -0.000000      0.007463     0.007463    Cartesian *******
   1354 z         18.031149     18.097236     0.066087    Cartesian    0.37
   1355 x          2.253894      2.253894     0.000000    Cartesian    0.00
   1355 y        -15.777255    -15.763255     0.014000    Cartesian   -0.09
   1355 z         -6.761681     -6.767782    -0.006101    Cartesian    0.09
   1356 x         15.777255     15.776039    -0.001216    Cartesian   -0.01
   1356 y        -11.269468    -11.253570     0.015898    Cartesian   -0.14
   1356 z         -2.253894     -2.248960     0.004933    Cartesian   -0.22
   1357 x          6.761681      6.762327     0.000646    Cartesian    0.01
   1357 y         20.285042     20.269963    -0.015079    Cartesian   -0.07
   1357 z         -2.253894     -2.269515    -0.015621    Cartesian    0.69
   1358 x         11.269468     11.268844    -0.000624    Cartesian   -0.01
   1358 y          6.761681      6.756536    -0.005145    Cartesian   -0.08
   1358 z        -15.777255    -15.758770     0.018486    Cartesian   -0.12
   1359 x          9.015574      9.044818     0.029243    Cartesian    0.32
   1359 y          4.507787      4.517986     0.010199    Cartesian    0.23
   1359 z         18.031149     18.079162     0.048013    Cartesian    0.27
   1360 x         13.523362     13.557544     0.034182    Cartesian    0.25
   1360 y        -13.523362    -13.542536    -0.019174    Cartesian    0.14
   1360 z          0.000000     -0.005599    -0.005599    Cartesian    0.00
   1361 x        -13.523362    -13.549790    -0.026428    Cartesian    0.20
   1361 y         -4.507787     -4.493669     0.014118    Cartesian   -0.31
   1361 z          9.015574      9.034929     0.019355    Cartesian    0.21
   1362 x         20.285042     20.283482    -0.001561    Cartesian   -0.01
   1362 y          2.253894      2.262003     0.008110    Cartesian    0.36
   1362 z          6.761681      6.750462    -0.011219    Cartesian   -0.17
   1363 x         -2.253894     -2.254055    -0.000161    Cartesian    0.01
   1363 y         11.269468     11.268019    -0.001449    Cartesian   -0.01
   1363 z        -15.777255    -15.757895     0.019360    Cartesian   -0.12
   1364 x          4.507787      4.509498     0.001711    Cartesian    0.04
   1364 y          9.015574      9.011689    -0.003885    Cartesian   -0.04
   1364 z         18.031149     18.053215     0.022067    Cartesian    0.12
   1365 x        -13.523362    -13.540192    -0.016830    Cartesian    0.12
   1365 y         -9.015574     -9.020917    -0.005342    Cartesian    0.06
   1365 z          0.000000     -0.003994    -0.003994    Cartesian    0.00
   1366 x         13.523362     13.555394     0.032032    Cartesian    0.24
   1366 y          9.015574      8.996653    -0.018921    Cartesian   -0.21
   1366 z        -13.523362    -13.549182    -0.025820    Cartesian    0.19
   1367 x          9.015574      9.012916    -0.002658    Cartesian   -0.03
   1367 y        -13.523362    -13.591187    -0.067826    Cartesian    0.50
   1367 z         -9.015574     -9.020996    -0.005422    Cartesian    0.06
   1368 x          9.015574      9.020538     0.004963    Cartesian    0.06
   1368 y         13.523362     13.560175     0.036813    Cartesian    0.27
   1368 z        -13.523362    -13.560233    -0.036872    Cartesian    0.27
   1369 x          6.761681      6.760837    -0.000844    Cartesian   -0.01
   1369 y        -15.777255    -15.756649     0.020606    Cartesian   -0.13
   1369 z          6.761681      6.773476     0.011795    Cartesian    0.17
   1370 x        -13.523362    -13.562317    -0.038955    Cartesian    0.29
   1370 y          9.015574      9.030703     0.015129    Cartesian    0.17
   1370 z          9.015574      8.986397    -0.029177    Cartesian   -0.32
   1371 x         11.269468     11.269753     0.000285    Cartesian    0.00
   1371 y        -11.269468    -11.258360     0.011108    Cartesian   -0.10
   1371 z         11.269468     11.260423    -0.009045    Cartesian   -0.08
   1372 x         20.285042     20.282850    -0.002192    Cartesian   -0.01
   1372 y          2.253894      2.261867     0.007973    Cartesian    0.35
   1372 z         -6.761681     -6.750672     0.011009    Cartesian   -0.16
   1373 x        -13.523362    -13.536810    -0.013448    Cartesian    0.10
   1373 y         -4.507787     -4.505051     0.002736    Cartesian   -0.06
   1373 z         -9.015574     -9.014097     0.001477    Cartesian   -0.02
   1374 x         15.777255     15.768784    -0.008471    Cartesian   -0.05
   1374 y         -6.761681     -6.750485     0.011196    Cartesian   -0.17
   1374 z         11.269468     11.267453    -0.002015    Cartesian   -0.02
   1375 x          2.253894      2.253894     0.000000    Cartesian    0.00
   1375 y         20.285042     20.261150    -0.023892    Cartesian   -0.12
   1375 z          6.761681      6.769679     0.007998    Cartesian    0.12
   1376 x         15.777255     15.766051    -0.011205    Cartesian   -0.07
   1376 y         15.777255     15.767282    -0.009973    Cartesian   -0.06
   1376 z          2.253894      2.252958    -0.000935    Cartesian   -0.04
   1377 x          9.015574      9.044013     0.028439    Cartesian    0.32
   1377 y         18.031149     18.067549     0.036400    Cartesian    0.20
   1377 z          9.015574      9.035733     0.020158    Cartesian    0.22
   1378 x         15.777255     15.766686    -0.010569    Cartesian   -0.07
   1378 y         15.777255     15.767793    -0.009463    Cartesian   -0.06
   1378 z         -2.253894     -2.254062    -0.000168    Cartesian    0.01
   1379 x         13.523362     13.532726     0.009364    Cartesian    0.07
   1379 y        -13.523362    -13.515504     0.007858    Cartesian   -0.06
   1379 z          4.507787      4.498484    -0.009303    Cartesian   -0.21
   1380 x          6.761681      6.761148    -0.000533    Cartesian   -0.01
   1380 y        -15.777255    -15.754188     0.023068    Cartesian   -0.15
   1380 z         -6.761681     -6.770791    -0.009111    Cartesian    0.13
   1381 x        -13.523362    -13.577790    -0.054429    Cartesian    0.40
   1381 y         13.523362     13.535739     0.012378    Cartesian    0.09
   1381 z          0.000000     -0.000865    -0.000865    Cartesian    0.00
   1382 x          4.507787      4.491255    -0.016533    Cartesian   -0.37
   1382 y         -4.507787     -4.536102    -0.028315    Cartesian    0.63
   1382 z        -18.031149    -18.007091     0.024058    Cartesian   -0.13
   1383 x         20.285042     20.287535     0.002493    Cartesian    0.01
   1383 y         -2.253894     -2.250140     0.003754    Cartesian   -0.17
   1383 z          6.761681      6.753040    -0.008641    Cartesian   -0.13
   1384 x        -13.523362    -13.565128    -0.041766    Cartesian    0.31
   1384 y         -9.015574     -9.023226    -0.007652    Cartesian    0.08
   1384 z          4.507787      4.513863     0.006076    Cartesian    0.13
   1385 x         13.523362     13.532133     0.008771    Cartesian    0.06
   1385 y         18.031149     18.037557     0.006409    Cartesian    0.04
   1385 z          0.000000      0.000148     0.000148    Cartesian    0.00
   1386 x          9.015574      8.965551    -0.050024    Cartesian   -0.55
   1386 y         -0.000000     -0.002041    -0.002041    Cartesian *******
   1386 z        -18.031149    -18.082133    -0.050984    Cartesian    0.28
   1387 x        -13.523362    -13.563895    -0.040533    Cartesian    0.30
   1387 y          9.015574      9.020258     0.004684    Cartesian    0.05
   1387 z         -9.015574     -9.016540    -0.000965    Cartesian    0.01
   1388 x          2.253894      2.253894     0.000000    Cartesian    0.00
   1388 y         20.285042     20.281953    -0.003090    Cartesian   -0.02
   1388 z         -6.761681     -6.754258     0.007423    Cartesian   -0.11
   1389 x         13.523362     13.532849     0.009488    Cartesian    0.07
   1389 y        -13.523362    -13.510507     0.012855    Cartesian   -0.10
   1389 z         -4.507787     -4.497394     0.010394    Cartesian   -0.23
   1390 x         11.269468     11.270343     0.000875    Cartesian    0.01
   1390 y        -11.269468    -11.258075     0.011393    Cartesian   -0.10
   1390 z        -11.269468    -11.260227     0.009241    Cartesian   -0.08
   1391 x          9.015574      9.080576     0.065001    Cartesian    0.72
   1391 y          4.507787      4.509870     0.002083    Cartesian    0.05
   1391 z        -18.031149    -18.054817    -0.023668    Cartesian    0.13
   1392 x         20.285042     20.277742    -0.007301    Cartesian   -0.04
   1392 y          6.761681      6.758019    -0.003661    Cartesian   -0.05
   1392 z          6.761681      6.761552    -0.000129    Cartesian   -0.00
   1393 x         15.777255     15.776148    -0.001107    Cartesian   -0.01
   1393 y         11.269468     11.262986    -0.006482    Cartesian   -0.06
   1393 z         11.269468     11.255527    -0.013941    Cartesian   -0.12
   1394 x        -13.523362    -13.564127    -0.040766    Cartesian    0.30
   1394 y         -9.015574     -9.025910    -0.010335    Cartesian    0.11
   1394 z         -4.507787     -4.516176    -0.008389    Cartesian    0.19
   1395 x          4.507787      4.513410     0.005623    Cartesian    0.12
   1395 y          9.015574      8.988886    -0.026688    Cartesian   -0.30
   1395 z        -18.031149    -18.101174    -0.070026    Cartesian    0.39
   1396 x          9.015574      9.029083     0.013508    Cartesian    0.15
   1396 y         18.031149     18.050823     0.019674    Cartesian    0.11
   1396 z         -9.015574     -9.038471    -0.022896    Cartesian    0.25
   1397 x         11.269468     11.269498     0.000030    Cartesian    0.00
   1397 y         15.777255     15.765418    -0.011837    Cartesian   -0.08
   1397 z         11.269468     11.262413    -0.007055    Cartesian   -0.06
   1398 x         15.777255     15.773053    -0.004202    Cartesian   -0.03
   1398 y         -6.761681     -6.749212     0.012469    Cartesian   -0.18
   1398 z        -11.269468    -11.265742     0.003727    Cartesian   -0.03
   1399 x         20.285042     20.288337     0.003295    Cartesian    0.02
   1399 y         -2.253894     -2.250014     0.003880    Cartesian   -0.17
   1399 z         -6.761681     -6.752308     0.009373    Cartesian   -0.14
   1400 x         11.269468     11.263208    -0.006260    Cartesian   -0.06
   1400 y         -6.761681     -6.757574     0.004107    Cartesian   -0.06
   1400 z         15.777255     15.772244    -0.005011    Cartesian   -0.03
   1401 x         11.269468     11.268617    -0.000851    Cartesian   -0.01
   1401 y        -15.777255    -15.771371     0.005884    Cartesian   -0.04
   1401 z          2.253894      2.247261    -0.006633    Cartesian   -0.29
   1402 x          2.253894      2.253894     0.000000    Cartesian    0.00
   1402 y          2.253894      2.261947     0.008054    Cartesian    0.36
   1402 z         20.285042     20.280461    -0.004581    Cartesian   -0.02
   1403 x         15.777255     15.772942    -0.004313    Cartesian   -0.03
   1403 y        -11.269468    -11.255670     0.013798    Cartesian   -0.12
   1403 z          6.761681      6.760664    -0.001017    Cartesian   -0.02
   1404 x          6.761681      6.759909    -0.001772    Cartesian   -0.03
   1404 y         20.285042     20.288223     0.003181    Cartesian    0.02
   1404 z          6.761681      6.748456    -0.013225    Cartesian   -0.20
   1405 x         20.285042     20.278348    -0.006694    Cartesian   -0.03
   1405 y          6.761681      6.758209    -0.003471    Cartesian   -0.05
   1405 z         -6.761681     -6.760919     0.000761    Cartesian   -0.01
--------------------------------------------------------------------------------


  Time to end of optimisation  =     1862.3903 seconds


  Peak dynamic memory used =    1946.58 MB 


  Timing analysis for GULP :

--------------------------------------------------------------------------------
  Task / Subroutine                                          Time (Seconds)
--------------------------------------------------------------------------------
  Calculation of reciprocal space energy and derivatives          0.0002
  Calculation of reciprocal space energy using symmetry           0.0003
  Calculation of real space energy and derivatives                0.0014
  Calculation of real space energy using symmetry                 0.0032
  Calculation for region 1 energy and derivatives (2-b)         870.3879
  Calculation for region 2a energy                              262.0801
  Calculation for region 2b energy                                0.0274
  Calculation and manipulation of Hessian matrix                  3.5223
  Calculation of matrix inversion                               716.9844
  Symmetry generation of equivalent positions                     0.0018
--------------------------------------------------------------------------------
  Total CPU time                                               1862.3904
--------------------------------------------------------------------------------


  Dump file written as Na3OCl.grs


  Job Finished at 18:49.08 20th November   2020                               

