********************************************************************************
*                       GENERAL UTILITY LATTICE PROGRAM                        *
*                                 Julian Gale                                  *
*                       Curtin Institute for Computation                       *
*                    School of Molecular and Life Sciences                     *
*                    Curtin University, Western Australia                      *
********************************************************************************
* Version = 5.2.0 * Last modified =  10th September 2020                       *
********************************************************************************
*  optimise     - perform optimisation run                                     *
*  conp         - constant pressure calculation                                *
*  property     - calculate properties for final geometry                      *
*  defect       - perform defect calculation after bulk run                    *
*  compare      - compare initial and final structures                         *
********************************************************************************

  Job Started  at 19:14.51 20th November   2020                               

  Number of CPUs =     1


  Total number of configurations input =      1

********************************************************************************
*  Input for Configuration =   1                                               *
********************************************************************************

  Formula = ClONa3                                                      

  Number of irreducible atoms/shells =       5


  Total number atoms/shells =       7

  Dimensionality = 3               :  Bulk   


  Symmetry :

  Crystal family                   :  Cubic       
  Crystal class  (Groth - 1921)    :  Cubic Hexakisoctahedral              

  Space group (centrosymmetric)    :  P M 3 M         

  Patterson group                  :  P m -3 m 

  Cartesian lattice vectors (Angstroms) :

        4.504000    0.000000    0.000000
        0.000000    4.504000    0.000000
        0.000000    0.000000    4.504000

  Cell parameters (Angstroms/Degrees):

  a =       4.5040    alpha =  90.0000
  b =       4.5040    beta  =  90.0000
  c =       4.5040    gamma =  90.0000

  Initial cell volume =          91.368216 Angs**3

  Temperature of configuration =   0.00     K 

  Pressure of configuration =         0.000 GPa 

  Fractional coordinates of asymmetric unit :

--------------------------------------------------------------------------------
   No.  Atomic       x           y          z         Charge      Occupancy
        Label      (Frac)      (Frac)     (Frac)        (e)         (Frac)  
--------------------------------------------------------------------------------
      1 Cl    c    0.000000    0.000000    0.000000     1.48500    1.000000    
      2 O     c    0.500000    0.500000    0.500000     0.18300    1.000000    
      3 Na    c    0.500000    0.500000    0.000000     1.00000    1.000000    
      4 Cl    s    0.000000    0.000000    0.000000    -2.48500    1.000000    
      5 O     s    0.500000    0.500000    0.500000    -2.18300    1.000000    
--------------------------------------------------------------------------------


  Constraints : 

--------------------------------------------------------------------------------
  Constraint no.      Unconstrained     Constrained    Coefficient    Offset
                         Variable         Variable
--------------------------------------------------------------------------------
           1              Strain 1        Strain 2       1.00000      0.0000
           2              Strain 1        Strain 3       1.00000      0.0000
--------------------------------------------------------------------------------


********************************************************************************
*  General input information                                                   *
********************************************************************************

  Species output for all configurations : 

--------------------------------------------------------------------------------
  Species    Type    Atomic    Atomic    Charge       Radii (Angs)     Library
                     Number     Mass       (e)     Cova   Ionic  VDW   Symbol
--------------------------------------------------------------------------------
    Na       Core       11      22.99   1.000000   0.970  0.000  2.300          
    O        Core        8      16.00   0.183000   0.730  0.000  1.360          
    O        Shell       8       0.00  -2.183000   0.730  0.000  1.360          
    Cl       Core       17      35.45   1.485000   0.990  0.000  1.650          
    Cl       Shell      17       0.00  -2.485000   0.990  0.000  1.650          
--------------------------------------------------------------------------------


  Lattice summation method               =    Ewald          (3-D)
                                         =    Parry          (2-D)
                                         =    Saunders et al (1-D)
  Accuracy factor for lattice sums       =   12.000


  Analytic derivatives to be used

  Time limit = Infinity

  Maximum range for interatomic potentials =    100000.000000 Angstroms

  General interatomic potentials :

--------------------------------------------------------------------------------
Atom  Types   Potential      Parameter       Value         Units   Cutoffs(Ang)
  1     2                                                            Min /  Max 
--------------------------------------------------------------------------------
O    c O    s Spring (c-s)  Spring k 2       593.72000    eV*Ang^-2 0.000  0.800
                            Spring k 4       0.0000000    eV*Ang^-4 
--------------------------------------------------------------------------------
Cl   c Cl   s Spring (c-s)  Spring k 2       29.380000    eV*Ang^-2 0.000  0.800
                            Spring k 4       0.0000000    eV*Ang^-4 
--------------------------------------------------------------------------------
Na   c Na   c Buckingham    Buckingham A     1788.1900    eV        0.000 12.000
                            Buckingham rho  0.15900000    Ang       
                            Buckingham C     0.0000000    eV*Ang^6  
--------------------------------------------------------------------------------
Na   c O    s Buckingham    Buckingham A     1226.8400    eV        0.000 12.000
                            Buckingham rho  0.30700000    Ang       
                            Buckingham C     0.0000000    eV*Ang^6  
--------------------------------------------------------------------------------
Na   c Cl   s Buckingham    Buckingham A     2314.7000    eV        0.000 12.000
                            Buckingham rho  0.29000000    Ang       
                            Buckingham C     0.0000000    eV*Ang^6  
--------------------------------------------------------------------------------
O    s O    s Buckingham    Buckingham A     22764.300    eV        0.000 12.000
                            Buckingham rho  0.14900000    Ang       
                            Buckingham C     13.190000    eV*Ang^6  
--------------------------------------------------------------------------------
O    s Cl   s Buckingham    Buckingham A     8286.9100    eV        0.000 12.000
                            Buckingham rho  0.25900000    Ang       
                            Buckingham C     62.200000    eV*Ang^6  
--------------------------------------------------------------------------------
Cl   s Cl   s Buckingham    Buckingham A     1227.2000    eV        0.000 12.000
                            Buckingham rho  0.32100000    Ang       
                            Buckingham C     14.530000    eV*Ang^6  
--------------------------------------------------------------------------------

********************************************************************************
*  Output for configuration   1                                                *
********************************************************************************


  Components of energy : 

--------------------------------------------------------------------------------
  Interatomic potentials     =           5.13022605 eV    
  Monopole - monopole (real) =         -10.03624526 eV    
  Monopole - monopole (recip)=         -29.53581274 eV    
  Monopole - monopole (total)=         -39.57205800 eV    
--------------------------------------------------------------------------------
  Total lattice energy       =         -34.44183194 eV    
--------------------------------------------------------------------------------
  Total lattice energy       =           -3323.1103 kJ/(mole unit cells)
--------------------------------------------------------------------------------


  Number of variables =        1

  Maximum number of calculations  =          1000
  Maximum Hessian update interval =            10
  Maximum step size               =   1.000000000
  Maximum parameter tolerance     =   0.000010000
  Maximum function  tolerance     =   0.000010000
  Maximum gradient  tolerance     =   0.001000000
  Maximum gradient  component     =   0.010000000

  Symmetry constrained optimisation

  Symmetry used for second derivatives

  Cell parameters to be optimised using strains

  Newton-Raphson optimiser to be used

  BFGS hessian update to be used

  Lower half triangular hessian to be used

  Start of bulk optimisation :

  Cycle:      0 Energy:       -34.441832  Gnorm:      0.196570  CPU:    0.006
  ** Hessian calculated **
  Cycle:      1 Energy:       -34.441914  Gnorm:      0.000103  CPU:    0.008


  **** Optimisation achieved ****


  Final energy =     -34.44191447 eV
  Final Gnorm  =       0.00000000

  Components of energy : 

--------------------------------------------------------------------------------
  Interatomic potentials     =           5.09689708 eV    
  Monopole - monopole (real) =         -10.02781331 eV    
  Monopole - monopole (recip)=         -29.51099824 eV    
  Monopole - monopole (total)=         -39.53881155 eV    
--------------------------------------------------------------------------------
  Total lattice energy       =         -34.44191447 eV    
--------------------------------------------------------------------------------
  Total lattice energy       =           -3323.1183 kJ/(mole unit cells)
--------------------------------------------------------------------------------

  Final asymmetric unit coordinates :

--------------------------------------------------------------------------------
   No.  Atomic        x           y           z         Radius
        Label       (Frac)      (Frac)      (Frac)       (Angs) 
--------------------------------------------------------------------------------
     1  Cl    c     0.000000    0.000000    0.000000    0.000000
     2  O     c     0.500000    0.500000    0.500000    0.000000
     3  Na    c     0.500000    0.500000    0.000000    0.000000
     4  Cl    s     0.000000    0.000000    0.000000    0.000000
     5  O     s     0.500000    0.500000    0.500000    0.000000
--------------------------------------------------------------------------------

  Final Cartesian lattice vectors (Angstroms) :

        4.507787    0.000000    0.000000
        0.000000    4.507787    0.000000
        0.000000    0.000000    4.507787


  Final cell parameters and derivatives :

--------------------------------------------------------------------------------
       a            4.507787 Angstrom     dE/de1(xx)     0.000000 eV/strain
       b            4.507787 Angstrom     dE/de2(yy)     0.000000 eV/strain
       c            4.507787 Angstrom     dE/de3(zz)     0.000000 eV/strain
       alpha       90.000000 Degrees      dE/de4(yz)     0.000000 eV/strain
       beta        90.000000 Degrees      dE/de5(xz)     0.000000 eV/strain
       gamma       90.000000 Degrees      dE/de6(xy)     0.000000 eV/strain
--------------------------------------------------------------------------------

  Primitive cell volume =            91.598892 Angs**3

  Density of cell =      2.183054 g/cm**3

  Non-primitive cell volume =            91.598892 Angs**3


  Final internal derivatives :

--------------------------------------------------------------------------------
   No.  Atomic          a             b             c           Radius
        Label          (eV)          (eV)          (eV)        (eV/Angs)
--------------------------------------------------------------------------------
      1 Cl    c       0.000000      0.000000      0.000000      0.000000
      2 O     c       0.000000      0.000000      0.000000      0.000000
      3 Na    c       0.000000      0.000000      0.000000      0.000000
      4 Cl    s       0.000000      0.000000      0.000000      0.000000
      5 O     s       0.000000      0.000000      0.000000      0.000000
--------------------------------------------------------------------------------
  Maximum abs         0.000000      0.000000      0.000000      0.000000
--------------------------------------------------------------------------------

  Comparison of initial and final structures : 

--------------------------------------------------------------------------------
  Parameter   Initial value   Final value   Difference    Units      Percent
--------------------------------------------------------------------------------
    Volume        91.368216     91.598892     0.230676    Angs**3      0.25
    a              4.504000      4.507787     0.003787    Angstroms    0.08
    b              4.504000      4.507787     0.003787    Angstroms    0.08
    c              4.504000      4.507787     0.003787    Angstroms    0.08
    alpha         90.000000     90.000000     0.000000    Degrees      0.00
    beta          90.000000     90.000000     0.000000    Degrees      0.00
    gamma         90.000000     90.000000     0.000000    Degrees      0.00
      1 x          0.000000      0.000000     0.000000    Fractional   0.00
      1 y          0.000000      0.000000     0.000000    Fractional   0.00
      1 z          0.000000      0.000000     0.000000    Fractional   0.00
      2 x          0.500000      0.500000     0.000000    Fractional   0.00
      2 y          0.500000      0.500000     0.000000    Fractional   0.00
      2 z          0.500000      0.500000     0.000000    Fractional   0.00
      3 x          0.500000      0.500000     0.000000    Fractional   0.00
      3 y          0.500000      0.500000     0.000000    Fractional   0.00
      3 z          0.000000      0.000000     0.000000    Fractional   0.00
      4 x          0.000000      0.000000     0.000000    Fractional   0.00
      4 y          0.000000      0.000000     0.000000    Fractional   0.00
      4 z          0.000000      0.000000     0.000000    Fractional   0.00
      5 x          0.500000      0.500000     0.000000    Fractional   0.00
      5 y          0.500000      0.500000     0.000000    Fractional   0.00
      5 z          0.500000      0.500000     0.000000    Fractional   0.00
--------------------------------------------------------------------------------


  Born effective charge tensors : 

-------------------------------------------------------------------------------
  Atom             x           y             z
-------------------------------------------------------------------------------
    1 Cl    x      -1.0181     -0.0000      0.0000
            y      -0.0000     -1.0181      0.0000
            z       0.0000      0.0000     -1.0181
-------------------------------------------------------------------------------
    2 O     x      -2.2647      0.0000     -0.0000
            y       0.0000     -2.2647     -0.0000
            z      -0.0000     -0.0000     -2.2647
-------------------------------------------------------------------------------
    3 Na    x       1.2258     -0.0000      0.0000
            y      -0.0000      1.2258     -0.0000
            z       0.0000     -0.0000      0.8313
-------------------------------------------------------------------------------




  Elastic Constant Matrix: (Units=GPa)

-------------------------------------------------------------------------------
  Indices      1         2         3         4         5         6    
-------------------------------------------------------------------------------
       1     95.8177   20.0737   20.0737   -0.0000   -0.0000    0.0000
       2     20.0737   95.8177   20.0737   -0.0000   -0.0000    0.0000
       3     20.0737   20.0737   95.8177   -0.0000   -0.0000    0.0000
       4     -0.0000   -0.0000   -0.0000   20.0737   -0.0000    0.0000
       5     -0.0000   -0.0000   -0.0000   -0.0000   20.0737    0.0000
       6      0.0000    0.0000    0.0000    0.0000    0.0000   20.0737
-------------------------------------------------------------------------------


  Elastic Compliance Matrix: (Units=1/GPa)

-------------------------------------------------------------------------------
  Indices      1         2         3         4         5         6    
-------------------------------------------------------------------------------
       1    0.011253 -0.001949 -0.001949  0.000000  0.000000 -0.000000
       2   -0.001949  0.011253 -0.001949  0.000000  0.000000  0.000000
       3   -0.001949 -0.001949  0.011253  0.000000  0.000000 -0.000000
       4    0.000000  0.000000  0.000000  0.049816  0.000000 -0.000000
       5    0.000000  0.000000  0.000000  0.000000  0.049816 -0.000000
       6   -0.000000  0.000000 -0.000000 -0.000000 -0.000000  0.049816
-------------------------------------------------------------------------------

  Mechanical properties :

-------------------------------------------------------------------------------
  Convention :                    Reuss         Voigt         Hill
-------------------------------------------------------------------------------
  Bulk  Modulus (GPa)     =      45.32174      45.32174      45.32174
  Shear Modulus (GPa)     =      24.72085      27.19304      25.95695
-------------------------------------------------------------------------------
  Velocity S-wave (km/s)  =       3.36511       3.52937       3.44822
  Velocity P-wave (km/s)  =       5.98827       6.11304       6.05098
-------------------------------------------------------------------------------
  Compressibility (1/GPa) =    0.02206447
-------------------------------------------------------------------------------
  Stress axis :                     x             y             z
-------------------------------------------------------------------------------
  Youngs Moduli (GPa)     =      88.86373      88.86373      88.86373
-------------------------------------------------------------------------------
  Poissons Ratio (x)      =                     0.17321       0.17321
  Poissons Ratio (y)      =       0.17321                     0.17321
  Poissons Ratio (z)      =       0.17321       0.17321
-------------------------------------------------------------------------------


  Piezoelectric Strain Matrix: (Units=C/m**2)

-------------------------------------------------------------------------------
  Indices      1         2         3         4         5         6    
-------------------------------------------------------------------------------
       x    -0.00000  -0.00000  -0.00000   0.00000  -0.00000  -0.00000
       y    -0.00000  -0.00000   0.00000  -0.00000   0.00000   0.00000
       z    -0.00000  -0.00000  -0.00000  -0.00000   0.00000   0.00000
-------------------------------------------------------------------------------


  Piezoelectric Stress Matrix: (Units=10**-11 C/N)

-------------------------------------------------------------------------------
  Indices      1         2         3         4         5         6    
-------------------------------------------------------------------------------
       x    -0.00000   0.00000   0.00000   0.00000  -0.00000  -0.00000
       y    -0.00000  -0.00000   0.00000  -0.00000   0.00000   0.00000
       z     0.00000   0.00000  -0.00000  -0.00000   0.00000   0.00000
-------------------------------------------------------------------------------


  Static dielectric constant tensor : 

-------------------------------------------------------------------------------
              x         y         z
-------------------------------------------------------------------------------
       x    22.84729   0.00000   0.00000
       y     0.00000  22.84729  -0.00000
       z     0.00000  -0.00000  22.84729
--------------------------------------------------------------------------------

  High frequency dielectric constant tensor : 

-------------------------------------------------------------------------------
              x         y         z
-------------------------------------------------------------------------------
       x     1.47557   0.00000  -0.00000
       y     0.00000   1.47557  -0.00000
       z    -0.00000  -0.00000   1.47557
-------------------------------------------------------------------------------

  Static refractive indices : 

-------------------------------------------------------------------------------
    1 =    4.77988      2 =    4.77988      3 =    4.77988
-------------------------------------------------------------------------------

  High frequency refractive indices : 

-------------------------------------------------------------------------------
    1 =    1.21473      2 =    1.21473      3 =    1.21473
-------------------------------------------------------------------------------


  Time to end of optimisation =       0.0111 seconds

********************************************************************************
*  Defect calculation for configuration   1 :                                  *
********************************************************************************

  Total number of defects =      3

  Total charge on defect  =  -1.00

  Defect centre is at   0.5000   0.4750   0.0250  Frac

  Region 1 radius =  20.0000      Number of ions =   2578

  Number of symmetry inequivalent region 1 ions  =   1409

  Region 2 radius =  24.0000      Number of ions =   1832

  Number of symmetry inequivalent region 2a ions =    973

  Region 2a mode = 4 : screened electrostatics due to region 1 
                       neglect correction to region 1 forces from 2a
                       region 2a displacements based on defects only

  Region 2a ions will only interact with defects in region 1

  Vacancies:

--------------------------------------------------------------------------------
    Specification type     Symbol/Number         x          y          z
--------------------------------------------------------------------------------
    Fractional                               0.500000   0.500000   0.000000
    Fractional                               0.500000   0.000000   0.500000
--------------------------------------------------------------------------------

  Interstitials:

--------------------------------------------------------------------------------
    Specification type     Symbol/Number         x          y          z
--------------------------------------------------------------------------------
    Atom/Fractional         Na               0.500000   0.475000   0.025000
--------------------------------------------------------------------------------


  Symmetry reduced region 1 (Relative to defect centre) :

--------------------------------------------------------------------------------
   No.   Atomic       x            y             z       Radius  Multiplicity   
         Label      (Angs)       (Angs)        (Angs)    (Angs)     
--------------------------------------------------------------------------------
     1  Na    c      0.0000       0.0000       0.0000    0.0000     1    Defect
     2  O     c      0.0000       0.1127 *     2.1412 *  0.0000     1          
     3  O     c      0.0000       0.1127 *    -2.3666 *  0.0000     1          
     4  Cl    c      2.2539 *    -2.1412 *    -0.1127 *  0.0000     2          
     5  Na    c      2.2539 *     0.1127 *     2.1412 *  0.0000     2          
     6  Na    c      0.0000       2.3666 *     2.1412 *  0.0000     1          
     7  Na    c      0.0000      -2.1412 *    -2.3666 *  0.0000     1          
     8  Cl    c      2.2539 *     2.3666 *    -0.1127 *  0.0000     2          
     9  Na    c      2.2539 *     0.1127 *    -2.3666 *  0.0000     2          
    10  Na    c      0.0000       2.3666 *    -2.3666 *  0.0000     1          
    11  Na    c      0.0000       0.1127 *     4.3951 *  0.0000     1          
    12  Na    c      0.0000      -4.3951 *    -0.1127 *  0.0000     1          
    13  Na    c     -4.5078 *     0.1127 *    -0.1127 *  0.0000     2          
    14  Na    c      0.0000       4.6205 *    -0.1127 *  0.0000     1          
    15  Na    c      0.0000       0.1127 *    -4.6205 *  0.0000     1          
    16  O     c      0.0000      -4.3951 *     2.1412 *  0.0000     1          
    17  O     c     -4.5078 *     0.1127 *     2.1412 *  0.0000     2          
    18  O     c      0.0000      -4.3951 *    -2.3666 *  0.0000     1          
    19  O     c      0.0000       4.6205 *     2.1412 *  0.0000     1          
    20  O     c     -4.5078 *     0.1127 *    -2.3666 *  0.0000     2          
    21  O     c      0.0000       4.6205 *    -2.3666 *  0.0000     1          
    22  Cl    c      2.2539 *    -2.1412 *     4.3951 *  0.0000     2          
    23  Na    c      2.2539 *    -4.3951 *     2.1412 *  0.0000     2          
    24  Na    c     -4.5078 *    -2.1412 *     2.1412 *  0.0000     2          
    25  Cl    c      2.2539 *     2.3666 *     4.3951 *  0.0000     2          
    26  Na    c      2.2539 *    -4.3951 *    -2.3666 *  0.0000     2          
    27  Na    c     -4.5078 *    -2.1412 *    -2.3666 *  0.0000     2          
    28  Na    c     -4.5078 *     2.3666 *     2.1412 *  0.0000     2          
    29  Na    c      2.2539 *     4.6205 *     2.1412 *  0.0000     2          
    30  Cl    c      2.2539 *    -2.1412 *    -4.6205 *  0.0000     2          
    31  Na    c     -4.5078 *     2.3666 *    -2.3666 *  0.0000     2          
    32  Na    c      2.2539 *     4.6205 *    -2.3666 *  0.0000     2          
    33  Cl    c      2.2539 *     2.3666 *    -4.6205 *  0.0000     2          
    34  Na    c      0.0000      -4.3951 *     4.3951 *  0.0000     1          
    35  Na    c      4.5078 *     0.1127 *     4.3951 *  0.0000     2          
    36  Na    c     -4.5078 *    -4.3951 *    -0.1127 *  0.0000     2          
    37  Na    c      0.0000       4.6205 *     4.3951 *  0.0000     1          
    38  Na    c      0.0000      -4.3951 *    -4.6205 *  0.0000     1          
    39  Na    c      4.5078 *     4.6205 *    -0.1127 *  0.0000     2          
    40  Na    c     -4.5078 *     0.1127 *    -4.6205 *  0.0000     2          
    41  Na    c      0.0000       4.6205 *    -4.6205 *  0.0000     1          
    42  O     c      0.0000       0.1127 *     6.6490 *  0.0000     1          
    43  O     c     -4.5078 *    -4.3951 *     2.1412 *  0.0000     2          
    44  O     c     -4.5078 *    -4.3951 *    -2.3666 *  0.0000     2          
    45  O     c      4.5078 *     4.6205 *     2.1412 *  0.0000     2          
    46  O     c      0.0000       0.1127 *    -6.8744 *  0.0000     1          
    47  O     c      4.5078 *     4.6205 *    -2.3666 *  0.0000     2          
    48  Na    c      0.0000      -2.1412 *     6.6490 *  0.0000     1          
    49  Na    c      0.0000      -6.6490 *     2.1412 *  0.0000     1          
    50  Cl    c      2.2539 *    -6.6490 *    -0.1127 *  0.0000     2          
    51  Na    c      2.2539 *     0.1127 *     6.6490 *  0.0000     2          
    52  Na    c      0.0000       2.3666 *     6.6490 *  0.0000     1          
    53  Na    c      0.0000      -6.6490 *    -2.3666 *  0.0000     1          
    54  Cl    c      6.7617 *    -2.1412 *    -0.1127 *  0.0000     2          
    55  Na    c      6.7617 *     0.1127 *     2.1412 *  0.0000     2          
    56  Cl    c      6.7617 *     2.3666 *    -0.1127 *  0.0000     2          
    57  Na    c      6.7617 *     0.1127 *    -2.3666 *  0.0000     2          
    58  Na    c      0.0000       6.8744 *     2.1412 *  0.0000     1          
    59  Na    c      0.0000      -2.1412 *    -6.8744 *  0.0000     1          
    60  Cl    c      2.2539 *     6.8744 *    -0.1127 *  0.0000     2          
    61  Na    c      2.2539 *     0.1127 *    -6.8744 *  0.0000     2          
    62  Na    c      0.0000       2.3666 *    -6.8744 *  0.0000     1          
    63  Na    c      0.0000       6.8744 *    -2.3666 *  0.0000     1          
    64  Na    c     -4.5078 *    -4.3951 *     4.3951 *  0.0000     2          
    65  Na    c      4.5078 *     4.6205 *     4.3951 *  0.0000     2          
    66  Na    c     -4.5078 *    -4.3951 *    -4.6205 *  0.0000     2          
    67  Na    c      4.5078 *     4.6205 *    -4.6205 *  0.0000     2          
    68  O     c      0.0000      -4.3951 *     6.6490 *  0.0000     1          
    69  O     c     -4.5078 *     0.1127 *     6.6490 *  0.0000     2          
    70  O     c      0.0000       4.6205 *     6.6490 *  0.0000     1          
    71  O     c      0.0000      -4.3951 *    -6.8744 *  0.0000     1          
    72  O     c      4.5078 *     0.1127 *    -6.8744 *  0.0000     2          
    73  O     c      0.0000       4.6205 *    -6.8744 *  0.0000     1          
    74  Cl    c      2.2539 *    -6.6490 *     4.3951 *  0.0000     2          
    75  Na    c      2.2539 *    -4.3951 *     6.6490 *  0.0000     2          
    76  Na    c     -4.5078 *    -6.6490 *     2.1412 *  0.0000     2          
    77  Na    c      4.5078 *    -2.1412 *     6.6490 *  0.0000     2          
    78  Cl    c      6.7617 *    -2.1412 *     4.3951 *  0.0000     2          
    79  Na    c      6.7617 *    -4.3951 *     2.1412 *  0.0000     2          
    80  Na    c     -4.5078 *     2.3666 *     6.6490 *  0.0000     2          
    81  Na    c     -4.5078 *    -6.6490 *    -2.3666 *  0.0000     2          
    82  Na    c      2.2539 *     4.6205 *     6.6490 *  0.0000     2          
    83  Cl    c      2.2539 *    -6.6490 *    -4.6205 *  0.0000     2          
    84  Cl    c      6.7617 *     2.3666 *     4.3951 *  0.0000     2          
    85  Na    c      6.7617 *    -4.3951 *    -2.3666 *  0.0000     2          
    86  Cl    c      2.2539 *     6.8744 *     4.3951 *  0.0000     2          
    87  Na    c      2.2539 *    -4.3951 *    -6.8744 *  0.0000     2          
    88  Na    c      6.7617 *     4.6205 *     2.1412 *  0.0000     2          
    89  Cl    c      6.7617 *    -2.1412 *    -4.6205 *  0.0000     2          
    90  Na    c      4.5078 *     6.8744 *     2.1412 *  0.0000     2          
    91  Na    c      4.5078 *    -2.1412 *    -6.8744 *  0.0000     2          
    92  Na    c      6.7617 *     4.6205 *    -2.3666 *  0.0000     2          
    93  Cl    c      6.7617 *     2.3666 *    -4.6205 *  0.0000     2          
    94  Na    c      4.5078 *     2.3666 *    -6.8744 *  0.0000     2          
    95  Na    c      4.5078 *     6.8744 *    -2.3666 *  0.0000     2          
    96  Na    c      2.2539 *     4.6205 *    -6.8744 *  0.0000     2          
    97  Cl    c      2.2539 *     6.8744 *    -4.6205 *  0.0000     2          
    98  Na    c      0.0000       0.1127 *     8.9029 *  0.0000     1          
    99  Na    c      0.0000      -8.9029 *    -0.1127 *  0.0000     1          
   100  Na    c      9.0156 *     0.1127 *    -0.1127 *  0.0000     2          
   101  Na    c      0.0000       0.1127 *    -9.1283 *  0.0000     1          
   102  Na    c      0.0000       9.1283 *    -0.1127 *  0.0000     1          
   103  O     c      0.0000      -8.9029 *     2.1412 *  0.0000     1          
   104  O     c     -4.5078 *    -4.3951 *     6.6490 *  0.0000     2          
   105  O     c      0.0000      -8.9029 *    -2.3666 *  0.0000     1          
   106  O     c      4.5078 *     4.6205 *     6.6490 *  0.0000     2          
   107  O     c      9.0156 *     0.1127 *     2.1412 *  0.0000     2          
   108  O     c     -4.5078 *    -4.3951 *    -6.8744 *  0.0000     2          
   109  O     c      9.0156 *     0.1127 *    -2.3666 *  0.0000     2          
   110  O     c      0.0000       9.1283 *     2.1412 *  0.0000     1          
   111  Na    c      0.0000      -6.6490 *     6.6490 *  0.0000     1          
   112  Na    c      2.2539 *    -8.9029 *     2.1412 *  0.0000     2          
   113  Cl    c      2.2539 *    -2.1412 *     8.9029 *  0.0000     2          
   114  O     c      0.0000       9.1283 *    -2.3666 *  0.0000     1          
   115  O     c      4.5078 *     4.6205 *    -6.8744 *  0.0000     2          
   116  Cl    c      2.2539 *     2.3666 *     8.9029 *  0.0000     2          
   117  Na    c      2.2539 *    -8.9029 *    -2.3666 *  0.0000     2          
   118  Cl    c      6.7617 *    -6.6490 *    -0.1127 *  0.0000     2          
   119  Na    c      6.7617 *     0.1127 *     6.6490 *  0.0000     2          
   120  Na    c      9.0156 *    -2.1412 *     2.1412 *  0.0000     2          
   121  Na    c      0.0000       6.8744 *     6.6490 *  0.0000     1          
   122  Na    c      0.0000      -6.6490 *    -6.8744 *  0.0000     1          
   123  Na    c      9.0156 *     2.3666 *     2.1412 *  0.0000     2          
   124  Na    c      9.0156 *    -2.1412 *    -2.3666 *  0.0000     2          
   125  Na    c      9.0156 *     2.3666 *    -2.3666 *  0.0000     2          
   126  Cl    c      2.2539 *    -2.1412 *    -9.1283 *  0.0000     2          
   127  Cl    c      6.7617 *     6.8744 *    -0.1127 *  0.0000     2          
   128  Na    c      2.2539 *     9.1283 *     2.1412 *  0.0000     2          
   129  Na    c      6.7617 *     0.1127 *    -6.8744 *  0.0000     2          
   130  Cl    c      2.2539 *     2.3666 *    -9.1283 *  0.0000     2          
   131  Na    c      2.2539 *     9.1283 *    -2.3666 *  0.0000     2          
   132  Na    c      0.0000       6.8744 *    -6.8744 *  0.0000     1          
   133  Na    c      0.0000      -4.3951 *     8.9029 *  0.0000     1          
   134  Na    c      0.0000      -8.9029 *     4.3951 *  0.0000     1          
   135  Na    c     -4.5078 *     0.1127 *     8.9029 *  0.0000     2          
   136  Na    c     -4.5078 *    -8.9029 *    -0.1127 *  0.0000     2          
   137  Na    c      0.0000       4.6205 *     8.9029 *  0.0000     1          
   138  Na    c      0.0000      -8.9029 *    -4.6205 *  0.0000     1          
   139  Na    c      9.0156 *     0.1127 *     4.3951 *  0.0000     2          
   140  Na    c      9.0156 *    -4.3951 *    -0.1127 *  0.0000     2          
   141  Na    c      0.0000       9.1283 *     4.3951 *  0.0000     1          
   142  Na    c      9.0156 *     4.6205 *    -0.1127 *  0.0000     2          
   143  Na    c      0.0000      -4.3951 *    -9.1283 *  0.0000     1          
   144  Na    c      9.0156 *     0.1127 *    -4.6205 *  0.0000     2          
   145  Na    c     -4.5078 *     0.1127 *    -9.1283 *  0.0000     2          
   146  Na    c     -4.5078 *     9.1283 *    -0.1127 *  0.0000     2          
   147  O     c     -4.5078 *    -8.9029 *     2.1412 *  0.0000     2          
   148  Na    c      0.0000       4.6205 *    -9.1283 *  0.0000     1          
   149  Na    c      0.0000       9.1283 *    -4.6205 *  0.0000     1          
   150  O     c     -4.5078 *    -8.9029 *    -2.3666 *  0.0000     2          
   151  O     c      9.0156 *    -4.3951 *     2.1412 *  0.0000     2          
   152  O     c      9.0156 *    -4.3951 *    -2.3666 *  0.0000     2          
   153  O     c      9.0156 *     4.6205 *     2.1412 *  0.0000     2          
   154  O     c      9.0156 *     4.6205 *    -2.3666 *  0.0000     2          
   155  O     c     -4.5078 *     9.1283 *     2.1412 *  0.0000     2          
   156  Na    c     -4.5078 *    -6.6490 *     6.6490 *  0.0000     2          
   157  Cl    c      6.7617 *    -6.6490 *     4.3951 *  0.0000     2          
   158  O     c     -4.5078 *     9.1283 *    -2.3666 *  0.0000     2          
   159  Na    c      6.7617 *    -4.3951 *     6.6490 *  0.0000     2          
   160  Na    c      6.7617 *     4.6205 *     6.6490 *  0.0000     2          
   161  Cl    c      6.7617 *    -6.6490 *    -4.6205 *  0.0000     2          
   162  Na    c     -4.5078 *    -6.6490 *    -6.8744 *  0.0000     2          
   163  Na    c      4.5078 *     6.8744 *     6.6490 *  0.0000     2          
   164  Cl    c      6.7617 *     6.8744 *     4.3951 *  0.0000     2          
   165  Na    c      6.7617 *    -4.3951 *    -6.8744 *  0.0000     2          
   166  Cl    c      6.7617 *     6.8744 *    -4.6205 *  0.0000     2          
   167  Na    c      6.7617 *     4.6205 *    -6.8744 *  0.0000     2          
   168  Na    c      4.5078 *     6.8744 *    -6.8744 *  0.0000     2          
   169  Na    c      4.5078 *    -8.9029 *     4.3951 *  0.0000     2          
   170  Na    c     -4.5078 *    -4.3951 *     8.9029 *  0.0000     2          
   171  Na    c      9.0156 *    -4.3951 *     4.3951 *  0.0000     2          
   172  Na    c      4.5078 *     4.6205 *     8.9029 *  0.0000     2          
   173  Na    c     -4.5078 *    -8.9029 *    -4.6205 *  0.0000     2          
   174  Na    c      9.0156 *     4.6205 *     4.3951 *  0.0000     2          
   175  Na    c      9.0156 *    -4.3951 *    -4.6205 *  0.0000     2          
   176  Na    c     -4.5078 *     9.1283 *     4.3951 *  0.0000     2          
   177  Na    c     -4.5078 *    -4.3951 *    -9.1283 *  0.0000     2          
   178  O     c      0.0000      -8.9029 *     6.6490 *  0.0000     1          
   179  Na    c      9.0156 *     4.6205 *    -4.6205 *  0.0000     2          
   180  O     c      0.0000       0.1127 *    11.1568 *  0.0000     1          
   181  Na    c      4.5078 *     4.6205 *    -9.1283 *  0.0000     2          
   182  Na    c     -4.5078 *     9.1283 *    -4.6205 *  0.0000     2          
   183  O     c      9.0156 *     0.1127 *     6.6490 *  0.0000     2          
   184  O     c      0.0000      -8.9029 *    -6.8744 *  0.0000     1          
   185  O     c      0.0000       9.1283 *     6.6490 *  0.0000     1          
   186  Cl    c      2.2539 *    -6.6490 *     8.9029 *  0.0000     2          
   187  O     c      9.0156 *     0.1127 *    -6.8744 *  0.0000     2          
   188  Na    c      2.2539 *    -8.9029 *     6.6490 *  0.0000     2          
   189  Na    c      0.0000      -2.1412 *    11.1568 *  0.0000     1          
   190  Na    c      0.0000     -11.1568 *     2.1412 *  0.0000     1          
   191  Cl    c      6.7617 *    -2.1412 *     8.9029 *  0.0000     2          
   192  O     c      0.0000       0.1127 *   -11.3822 *  0.0000     1          
   193  Na    c      6.7617 *    -8.9029 *     2.1412 *  0.0000     2          
   194  Cl    c      2.2539 *   -11.1568 *    -0.1127 *  0.0000     2          
   195  Na    c      2.2539 *     0.1127 *    11.1568 *  0.0000     2          
   196  Na    c      9.0156 *    -2.1412 *     6.6490 *  0.0000     2          
   197  Na    c      9.0156 *    -6.6490 *     2.1412 *  0.0000     2          
   198  Na    c      0.0000       2.3666 *    11.1568 *  0.0000     1          
   199  Na    c      0.0000     -11.1568 *    -2.3666 *  0.0000     1          
   200  Cl    c      6.7617 *     2.3666 *     8.9029 *  0.0000     2          
   201  O     c      0.0000       9.1283 *    -6.8744 *  0.0000     1          
   202  Na    c      6.7617 *    -8.9029 *    -2.3666 *  0.0000     2          
   203  Na    c      9.0156 *     2.3666 *     6.6490 *  0.0000     2          
   204  Na    c      9.0156 *    -6.6490 *    -2.3666 *  0.0000     2          
   205  Cl    c      2.2539 *     6.8744 *     8.9029 *  0.0000     2          
   206  Cl    c     11.2695 *    -2.1412 *    -0.1127 *  0.0000     2          
   207  Na    c      2.2539 *    -8.9029 *    -6.8744 *  0.0000     2          
   208  Na    c     11.2695 *     0.1127 *     2.1412 *  0.0000     2          
   209  Cl    c     11.2695 *     2.3666 *    -0.1127 *  0.0000     2          
   210  Na    c     11.2695 *     0.1127 *    -2.3666 *  0.0000     2          
   211  Cl    c      2.2539 *    -6.6490 *    -9.1283 *  0.0000     2          
   212  Na    c      2.2539 *     9.1283 *     6.6490 *  0.0000     2          
   213  Na    c      9.0156 *     6.8744 *     2.1412 *  0.0000     2          
   214  Na    c      9.0156 *    -2.1412 *    -6.8744 *  0.0000     2          
   215  Na    c      6.7617 *     9.1283 *     2.1412 *  0.0000     2          
   216  Cl    c      6.7617 *    -2.1412 *    -9.1283 *  0.0000     2          
   217  Na    c      0.0000      -2.1412 *   -11.3822 *  0.0000     1          
   218  Na    c      9.0156 *     2.3666 *    -6.8744 *  0.0000     2          
   219  Na    c      9.0156 *     6.8744 *    -2.3666 *  0.0000     2          
   220  Na    c      0.0000      11.3822 *     2.1412 *  0.0000     1          
   221  Na    c      2.2539 *     0.1127 *   -11.3822 *  0.0000     2          
   222  Na    c      6.7617 *     9.1283 *    -2.3666 *  0.0000     2          
   223  Cl    c      2.2539 *    11.3822 *    -0.1127 *  0.0000     2          
   224  Cl    c      6.7617 *     2.3666 *    -9.1283 *  0.0000     2          
   225  Na    c      0.0000       2.3666 *   -11.3822 *  0.0000     1          
   226  Na    c      0.0000      11.3822 *    -2.3666 *  0.0000     1          
   227  Cl    c      2.2539 *     6.8744 *    -9.1283 *  0.0000     2          
   228  Na    c      2.2539 *     9.1283 *    -6.8744 *  0.0000     2          
   229  O     c     -4.5078 *    -8.9029 *     6.6490 *  0.0000     2          
   230  O     c      0.0000      -4.3951 *    11.1568 *  0.0000     1          
   231  O     c      4.5078 *     0.1127 *    11.1568 *  0.0000     2          
   232  O     c      9.0156 *    -4.3951 *     6.6490 *  0.0000     2          
   233  O     c      0.0000       4.6205 *    11.1568 *  0.0000     1          
   234  O     c      9.0156 *     4.6205 *     6.6490 *  0.0000     2          
   235  O     c     -4.5078 *    -8.9029 *    -6.8744 *  0.0000     2          
   236  O     c     -4.5078 *     9.1283 *     6.6490 *  0.0000     2          
   237  O     c      9.0156 *    -4.3951 *    -6.8744 *  0.0000     2          
   238  O     c      0.0000      -4.3951 *   -11.3822 *  0.0000     1          
   239  Cl    c      2.2539 *   -11.1568 *     4.3951 *  0.0000     2          
   240  Na    c      2.2539 *    -4.3951 *    11.1568 *  0.0000     2          
   241  Na    c      4.5078 *    -2.1412 *    11.1568 *  0.0000     2          
   242  Na    c      4.5078 *   -11.1568 *     2.1412 *  0.0000     2          
   243  O     c      4.5078 *     0.1127 *   -11.3822 *  0.0000     2          
   244  O     c      9.0156 *     4.6205 *    -6.8744 *  0.0000     2          
   245  Na    c      4.5078 *     2.3666 *    11.1568 *  0.0000     2          
   246  Na    c      4.5078 *   -11.1568 *    -2.3666 *  0.0000     2          
   247  Cl    c     11.2695 *    -2.1412 *     4.3951 *  0.0000     2          
   248  Na    c     11.2695 *    -4.3951 *     2.1412 *  0.0000     2          
   249  O     c      0.0000       4.6205 *   -11.3822 *  0.0000     1          
   250  O     c      4.5078 *     9.1283 *    -6.8744 *  0.0000     2          
   251  Cl    c      2.2539 *   -11.1568 *    -4.6205 *  0.0000     2          
   252  Na    c      2.2539 *     4.6205 *    11.1568 *  0.0000     2          
   253  Cl    c     11.2695 *     2.3666 *     4.3951 *  0.0000     2          
   254  Na    c     11.2695 *    -4.3951 *    -2.3666 *  0.0000     2          
   255  Cl    c     11.2695 *    -2.1412 *    -4.6205 *  0.0000     2          
   256  Na    c     11.2695 *     4.6205 *     2.1412 *  0.0000     2          
   257  Cl    c     11.2695 *     2.3666 *    -4.6205 *  0.0000     2          
   258  Na    c     11.2695 *     4.6205 *    -2.3666 *  0.0000     2          
   259  Cl    c      2.2539 *    11.3822 *     4.3951 *  0.0000     2          
   260  Na    c      2.2539 *    -4.3951 *   -11.3822 *  0.0000     2          
   261  Na    c      4.5078 *    -2.1412 *   -11.3822 *  0.0000     2          
   262  Na    c      4.5078 *    11.3822 *     2.1412 *  0.0000     2          
   263  Na    c      4.5078 *     2.3666 *   -11.3822 *  0.0000     2          
   264  Na    c      4.5078 *    11.3822 *    -2.3666 *  0.0000     2          
   265  Na    c      2.2539 *     4.6205 *   -11.3822 *  0.0000     2          
   266  Cl    c      2.2539 *    11.3822 *    -4.6205 *  0.0000     2          
   267  Na    c      0.0000      -8.9029 *     8.9029 *  0.0000     1          
   268  Na    c      9.0156 *     0.1127 *     8.9029 *  0.0000     2          
   269  Na    c      9.0156 *    -8.9029 *    -0.1127 *  0.0000     2          
   270  Na    c      0.0000       9.1283 *     8.9029 *  0.0000     1          
   271  Na    c      0.0000      -8.9029 *    -9.1283 *  0.0000     1          
   272  O     c     -4.5078 *    -4.3951 *    11.1568 *  0.0000     2          
   273  Na    c      9.0156 *     0.1127 *    -9.1283 *  0.0000     2          
   274  Na    c      9.0156 *     9.1283 *    -0.1127 *  0.0000     2          
   275  O     c      9.0156 *    -8.9029 *     2.1412 *  0.0000     2          
   276  O     c      9.0156 *    -8.9029 *    -2.3666 *  0.0000     2          
   277  O     c      4.5078 *     4.6205 *    11.1568 *  0.0000     2          
   278  Na    c      0.0000       9.1283 *    -9.1283 *  0.0000     1          
   279  Na    c      0.0000      -6.6490 *    11.1568 *  0.0000     1          
   280  Na    c      0.0000     -11.1568 *     6.6490 *  0.0000     1          
   281  Cl    c      6.7617 *    -6.6490 *     8.9029 *  0.0000     2          
   282  O     c     -4.5078 *    -4.3951 *   -11.3822 *  0.0000     2          
   283  Na    c      6.7617 *    -8.9029 *     6.6490 *  0.0000     2          
   284  O     c      9.0156 *     9.1283 *     2.1412 *  0.0000     2          
   285  Na    c      9.0156 *    -6.6490 *     6.6490 *  0.0000     2          
   286  Cl    c      6.7617 *   -11.1568 *    -0.1127 *  0.0000     2          
   287  O     c      9.0156 *     9.1283 *    -2.3666 *  0.0000     2          
   288  Na    c      6.7617 *     0.1127 *    11.1568 *  0.0000     2          
   289  Cl    c     11.2695 *    -6.6490 *    -0.1127 *  0.0000     2          
   290  O     c      4.5078 *     4.6205 *   -11.3822 *  0.0000     2          
   291  Na    c     11.2695 *     0.1127 *     6.6490 *  0.0000     2          
   292  Na    c      0.0000       6.8744 *    11.1568 *  0.0000     1          
   293  Na    c      0.0000     -11.1568 *    -6.8744 *  0.0000     1          
   294  Cl    c      6.7617 *     6.8744 *     8.9029 *  0.0000     2          
   295  Na    c      6.7617 *    -8.9029 *    -6.8744 *  0.0000     2          
   296  Na    c      9.0156 *     6.8744 *     6.6490 *  0.0000     2          
   297  Na    c      9.0156 *    -6.6490 *    -6.8744 *  0.0000     2          
   298  Cl    c      6.7617 *    -6.6490 *    -9.1283 *  0.0000     2          
   299  Na    c      6.7617 *     9.1283 *     6.6490 *  0.0000     2          
   300  Na    c      0.0000      -6.6490 *   -11.3822 *  0.0000     1          
   301  Na    c      0.0000      11.3822 *     6.6490 *  0.0000     1          
   302  Cl    c     11.2695 *     6.8744 *    -0.1127 *  0.0000     2          
   303  Na    c     11.2695 *     0.1127 *    -6.8744 *  0.0000     2          
   304  Na    c      6.7617 *     0.1127 *   -11.3822 *  0.0000     2          
   305  Cl    c      6.7617 *    11.3822 *    -0.1127 *  0.0000     2          
   306  Na    c      9.0156 *     6.8744 *    -6.8744 *  0.0000     2          
   307  Cl    c      6.7617 *     6.8744 *    -9.1283 *  0.0000     2          
   308  Na    c      6.7617 *     9.1283 *    -6.8744 *  0.0000     2          
   309  Na    c      0.0000       6.8744 *   -11.3822 *  0.0000     1          
   310  Na    c      0.0000      11.3822 *    -6.8744 *  0.0000     1          
   311  Na    c     -4.5078 *    -8.9029 *     8.9029 *  0.0000     2          
   312  Na    c      0.0000       0.1127 *    13.4107 *  0.0000     1          
   313  Na    c      0.0000     -13.4107 *    -0.1127 *  0.0000     1          
   314  Na    c      9.0156 *    -8.9029 *     4.3951 *  0.0000     2          
   315  Na    c      9.0156 *    -4.3951 *     8.9029 *  0.0000     2          
   316  Na    c      9.0156 *     4.6205 *     8.9029 *  0.0000     2          
   317  Na    c      9.0156 *    -8.9029 *    -4.6205 *  0.0000     2          
   318  Na    c     -4.5078 *     9.1283 *     8.9029 *  0.0000     2          
   319  Na    c     -4.5078 *    -8.9029 *    -9.1283 *  0.0000     2          
   320  Na    c     13.5234 *     0.1127 *    -0.1127 *  0.0000     2          
   321  Na    c      9.0156 *     9.1283 *     4.3951 *  0.0000     2          
   322  Na    c      9.0156 *    -4.3951 *    -9.1283 *  0.0000     2          
   323  O     c      0.0000     -13.4107 *     2.1412 *  0.0000     1          
   324  O     c      0.0000     -13.4107 *    -2.3666 *  0.0000     1          
   325  Na    c      0.0000       0.1127 *   -13.6361 *  0.0000     1          
   326  Na    c      0.0000      13.6361 *    -0.1127 *  0.0000     1          
   327  Na    c      9.0156 *     4.6205 *    -9.1283 *  0.0000     2          
   328  Na    c      9.0156 *     9.1283 *    -4.6205 *  0.0000     2          
   329  Na    c      4.5078 *     9.1283 *    -9.1283 *  0.0000     2          
   330  O     c     13.5234 *     0.1127 *     2.1412 *  0.0000     2          
   331  O     c     13.5234 *     0.1127 *    -2.3666 *  0.0000     2          
   332  Na    c      4.5078 *   -11.1568 *     6.6490 *  0.0000     2          
   333  Na    c     -4.5078 *    -6.6490 *    11.1568 *  0.0000     2          
   334  Cl    c      2.2539 *    -2.1412 *    13.4107 *  0.0000     2          
   335  Na    c      2.2539 *   -13.4107 *     2.1412 *  0.0000     2          
   336  Cl    c      6.7617 *   -11.1568 *     4.3951 *  0.0000     2          
   337  Na    c      6.7617 *    -4.3951 *    11.1568 *  0.0000     2          
   338  Cl    c      2.2539 *     2.3666 *    13.4107 *  0.0000     2          
   339  Cl    c     11.2695 *    -6.6490 *     4.3951 *  0.0000     2          
   340  Na    c      2.2539 *   -13.4107 *    -2.3666 *  0.0000     2          
   341  O     c      0.0000      13.6361 *     2.1412 *  0.0000     1          
   342  Na    c     11.2695 *    -4.3951 *     6.6490 *  0.0000     2          
   343  O     c      0.0000      13.6361 *    -2.3666 *  0.0000     1          
   344  Cl    c      6.7617 *   -11.1568 *    -4.6205 *  0.0000     2          
   345  Na    c      6.7617 *     4.6205 *    11.1568 *  0.0000     2          
   346  Na    c      4.5078 *     6.8744 *    11.1568 *  0.0000     2          
   347  Na    c      4.5078 *   -11.1568 *    -6.8744 *  0.0000     2          
   348  Na    c     13.5234 *    -2.1412 *     2.1412 *  0.0000     2          
   349  Cl    c     11.2695 *    -6.6490 *    -4.6205 *  0.0000     2          
   350  Na    c     11.2695 *     4.6205 *     6.6490 *  0.0000     2          
   351  Na    c     13.5234 *     2.3666 *     2.1412 *  0.0000     2          
   352  Na    c     13.5234 *    -2.1412 *    -2.3666 *  0.0000     2          
   353  Cl    c     11.2695 *     6.8744 *     4.3951 *  0.0000     2          
   354  Na    c     11.2695 *    -4.3951 *    -6.8744 *  0.0000     2          
   355  Na    c     -4.5078 *    -6.6490 *   -11.3822 *  0.0000     2          
   356  Na    c      4.5078 *    11.3822 *     6.6490 *  0.0000     2          
   357  Na    c     13.5234 *     2.3666 *    -2.3666 *  0.0000     2          
   358  Na    c      6.7617 *    -4.3951 *   -11.3822 *  0.0000     2          
   359  Cl    c      6.7617 *    11.3822 *     4.3951 *  0.0000     2          
   360  Cl    c      2.2539 *    -2.1412 *   -13.6361 *  0.0000     2          
   361  Cl    c     11.2695 *     6.8744 *    -4.6205 *  0.0000     2          
   362  Na    c      2.2539 *    13.6361 *     2.1412 *  0.0000     2          
   363  Na    c     11.2695 *     4.6205 *    -6.8744 *  0.0000     2          
   364  Cl    c      2.2539 *     2.3666 *   -13.6361 *  0.0000     2          
   365  Na    c      2.2539 *    13.6361 *    -2.3666 *  0.0000     2          
   366  Na    c      6.7617 *     4.6205 *   -11.3822 *  0.0000     2          
   367  Cl    c      6.7617 *    11.3822 *    -4.6205 *  0.0000     2          
   368  Na    c      4.5078 *     6.8744 *   -11.3822 *  0.0000     2          
   369  Na    c      4.5078 *    11.3822 *    -6.8744 *  0.0000     2          
   370  Na    c      0.0000      -4.3951 *    13.4107 *  0.0000     1          
   371  Na    c      0.0000     -13.4107 *     4.3951 *  0.0000     1          
   372  Na    c      4.5078 *     0.1127 *    13.4107 *  0.0000     2          
   373  Na    c      4.5078 *   -13.4107 *    -0.1127 *  0.0000     2          
   374  Na    c      0.0000       4.6205 *    13.4107 *  0.0000     1          
   375  Na    c      0.0000     -13.4107 *    -4.6205 *  0.0000     1          
   376  Na    c     13.5234 *     0.1127 *     4.3951 *  0.0000     2          
   377  Na    c     13.5234 *    -4.3951 *    -0.1127 *  0.0000     2          
   378  O     c      0.0000      -8.9029 *    11.1568 *  0.0000     1          
   379  Na    c     13.5234 *     0.1127 *    -4.6205 *  0.0000     2          
   380  Na    c     13.5234 *     4.6205 *    -0.1127 *  0.0000     2          
   381  O     c      4.5078 *   -13.4107 *     2.1412 *  0.0000     2          
   382  O     c      9.0156 *    -8.9029 *     6.6490 *  0.0000     2          
   383  Na    c      0.0000      13.6361 *     4.3951 *  0.0000     1          
   384  Na    c      0.0000      -4.3951 *   -13.6361 *  0.0000     1          
   385  O     c      4.5078 *   -13.4107 *    -2.3666 *  0.0000     2          
   386  O     c      9.0156 *     0.1127 *    11.1568 *  0.0000     2          
   387  Na    c      4.5078 *     0.1127 *   -13.6361 *  0.0000     2          
   388  Na    c      4.5078 *    13.6361 *    -0.1127 *  0.0000     2          
   389  O     c     13.5234 *    -4.3951 *     2.1412 *  0.0000     2          
   390  Na    c      0.0000       4.6205 *   -13.6361 *  0.0000     1          
   391  Na    c      0.0000      13.6361 *    -4.6205 *  0.0000     1          
   392  O     c      9.0156 *    -8.9029 *    -6.8744 *  0.0000     2          
   393  O     c      0.0000       9.1283 *    11.1568 *  0.0000     1          
   394  O     c     13.5234 *    -4.3951 *    -2.3666 *  0.0000     2          
   395  O     c      0.0000      -8.9029 *   -11.3822 *  0.0000     1          
   396  Cl    c      2.2539 *   -11.1568 *     8.9029 *  0.0000     2          
   397  O     c      9.0156 *     9.1283 *     6.6490 *  0.0000     2          
   398  O     c     13.5234 *     4.6205 *     2.1412 *  0.0000     2          
   399  Na    c      2.2539 *    -8.9029 *    11.1568 *  0.0000     2          
   400  O     c     13.5234 *     4.6205 *    -2.3666 *  0.0000     2          
   401  Na    c      9.0156 *    -2.1412 *    11.1568 *  0.0000     2          
   402  Na    c      9.0156 *   -11.1568 *     2.1412 *  0.0000     2          
   403  Na    c     11.2695 *    -8.9029 *     2.1412 *  0.0000     2          
   404  Cl    c     11.2695 *    -2.1412 *     8.9029 *  0.0000     2          
   405  O     c      4.5078 *    13.6361 *     2.1412 *  0.0000     2          
   406  O     c      9.0156 *     0.1127 *   -11.3822 *  0.0000     2          
   407  Na    c      9.0156 *     2.3666 *    11.1568 *  0.0000     2          
   408  Na    c      9.0156 *   -11.1568 *    -2.3666 *  0.0000     2          
   409  Na    c     11.2695 *    -8.9029 *    -2.3666 *  0.0000     2          
   410  Cl    c     11.2695 *     2.3666 *     8.9029 *  0.0000     2          
   411  O     c      4.5078 *    13.6361 *    -2.3666 *  0.0000     2          
   412  O     c      9.0156 *     9.1283 *    -6.8744 *  0.0000     2          
   413  O     c      0.0000       9.1283 *   -11.3822 *  0.0000     1          
   414  Cl    c      2.2539 *   -11.1568 *    -9.1283 *  0.0000     2          
   415  Na    c      2.2539 *     9.1283 *    11.1568 *  0.0000     2          
   416  Cl    c      2.2539 *    11.3822 *     8.9029 *  0.0000     2          
   417  Na    c      2.2539 *    -8.9029 *   -11.3822 *  0.0000     2          
   418  Cl    c     11.2695 *    -2.1412 *    -9.1283 *  0.0000     2          
   419  Na    c     11.2695 *     9.1283 *     2.1412 *  0.0000     2          
   420  Na    c      9.0156 *    -2.1412 *   -11.3822 *  0.0000     2          
   421  Na    c      9.0156 *    11.3822 *     2.1412 *  0.0000     2          
   422  Cl    c     11.2695 *     2.3666 *    -9.1283 *  0.0000     2          
   423  Na    c     11.2695 *     9.1283 *    -2.3666 *  0.0000     2          
   424  Na    c      9.0156 *     2.3666 *   -11.3822 *  0.0000     2          
   425  Na    c      9.0156 *    11.3822 *    -2.3666 *  0.0000     2          
   426  Na    c      2.2539 *     9.1283 *   -11.3822 *  0.0000     2          
   427  Cl    c      2.2539 *    11.3822 *    -9.1283 *  0.0000     2          
   428  Na    c      4.5078 *   -13.4107 *     4.3951 *  0.0000     2          
   429  Na    c     -4.5078 *    -4.3951 *    13.4107 *  0.0000     2          
   430  Na    c      4.5078 *     4.6205 *    13.4107 *  0.0000     2          
   431  Na    c      4.5078 *   -13.4107 *    -4.6205 *  0.0000     2          
   432  Na    c     13.5234 *    -4.3951 *     4.3951 *  0.0000     2          
   433  Na    c     13.5234 *     4.6205 *     4.3951 *  0.0000     2          
   434  Na    c     13.5234 *    -4.3951 *    -4.6205 *  0.0000     2          
   435  O     c      0.0000     -13.4107 *     6.6490 *  0.0000     1          
   436  O     c     -4.5078 *    -8.9029 *    11.1568 *  0.0000     2          
   437  O     c      9.0156 *    -4.3951 *    11.1568 *  0.0000     2          
   438  Na    c      4.5078 *    13.6361 *     4.3951 *  0.0000     2          
   439  Na    c     -4.5078 *    -4.3951 *   -13.6361 *  0.0000     2          
   440  Na    c     13.5234 *     4.6205 *    -4.6205 *  0.0000     2          
   441  O     c      0.0000     -13.4107 *    -6.8744 *  0.0000     1          
   442  O     c      9.0156 *     4.6205 *    11.1568 *  0.0000     2          
   443  O     c     13.5234 *     0.1127 *     6.6490 *  0.0000     2          
   444  Na    c      4.5078 *     4.6205 *   -13.6361 *  0.0000     2          
   445  Na    c      4.5078 *    13.6361 *    -4.6205 *  0.0000     2          
   446  O     c      4.5078 *     9.1283 *    11.1568 *  0.0000     2          
   447  Cl    c      2.2539 *    -6.6490 *    13.4107 *  0.0000     2          
   448  O     c     -4.5078 *    -8.9029 *   -11.3822 *  0.0000     2          
   449  Na    c      2.2539 *   -13.4107 *     6.6490 *  0.0000     2          
   450  Na    c      6.7617 *   -13.4107 *     2.1412 *  0.0000     2          
   451  Cl    c      6.7617 *    -2.1412 *    13.4107 *  0.0000     2          
   452  O     c      0.0000      13.6361 *     6.6490 *  0.0000     1          
   453  O     c      9.0156 *    -4.3951 *   -11.3822 *  0.0000     2          
   454  O     c     13.5234 *     0.1127 *    -6.8744 *  0.0000     2          
   455  Na    c      6.7617 *   -13.4107 *    -2.3666 *  0.0000     2          
   456  Cl    c      6.7617 *     2.3666 *    13.4107 *  0.0000     2          
   457  Na    c     13.5234 *    -2.1412 *     6.6490 *  0.0000     2          
   458  Na    c     13.5234 *    -6.6490 *     2.1412 *  0.0000     2          
   459  Cl    c      2.2539 *     6.8744 *    13.4107 *  0.0000     2          
   460  Na    c      2.2539 *   -13.4107 *    -6.8744 *  0.0000     2          
   461  O     c      9.0156 *     4.6205 *   -11.3822 *  0.0000     2          
   462  Na    c     13.5234 *     2.3666 *     6.6490 *  0.0000     2          
   463  Na    c     13.5234 *    -6.6490 *    -2.3666 *  0.0000     2          
   464  O     c      0.0000      13.6361 *    -6.8744 *  0.0000     1          
   465  O     c      4.5078 *     9.1283 *   -11.3822 *  0.0000     2          
   466  Na    c     13.5234 *     6.8744 *     2.1412 *  0.0000     2          
   467  Na    c     13.5234 *    -2.1412 *    -6.8744 *  0.0000     2          
   468  Cl    c      2.2539 *    -6.6490 *   -13.6361 *  0.0000     2          
   469  Na    c      2.2539 *    13.6361 *     6.6490 *  0.0000     2          
   470  Na    c     13.5234 *     2.3666 *    -6.8744 *  0.0000     2          
   471  Na    c     13.5234 *     6.8744 *    -2.3666 *  0.0000     2          
   472  Na    c      6.7617 *    13.6361 *     2.1412 *  0.0000     2          
   473  Cl    c      6.7617 *    -2.1412 *   -13.6361 *  0.0000     2          
   474  Na    c      6.7617 *    13.6361 *    -2.3666 *  0.0000     2          
   475  Cl    c      6.7617 *     2.3666 *   -13.6361 *  0.0000     2          
   476  Cl    c      2.2539 *     6.8744 *   -13.6361 *  0.0000     2          
   477  Na    c      2.2539 *    13.6361 *    -6.8744 *  0.0000     2          
   478  Na    c      9.0156 *    -8.9029 *     8.9029 *  0.0000     2          
   479  Na    c      9.0156 *    -8.9029 *    -9.1283 *  0.0000     2          
   480  Na    c      9.0156 *     9.1283 *     8.9029 *  0.0000     2          
   481  O     c      4.5078 *   -13.4107 *     6.6490 *  0.0000     2          
   482  O     c      0.0000       0.1127 *    15.6646 *  0.0000     1          
   483  O     c     13.5234 *    -4.3951 *     6.6490 *  0.0000     2          
   484  O     c      4.5078 *   -13.4107 *    -6.8744 *  0.0000     2          
   485  Na    c      9.0156 *     9.1283 *    -9.1283 *  0.0000     2          
   486  O     c     13.5234 *     4.6205 *     6.6490 *  0.0000     2          
   487  Na    c      0.0000     -11.1568 *    11.1568 *  0.0000     1          
   488  Cl    c      6.7617 *   -11.1568 *     8.9029 *  0.0000     2          
   489  Na    c      6.7617 *    -8.9029 *    11.1568 *  0.0000     2          
   490  O     c     13.5234 *    -4.3951 *    -6.8744 *  0.0000     2          
   491  Na    c      0.0000      -2.1412 *    15.6646 *  0.0000     1          
   492  Na    c      0.0000     -15.6646 *     2.1412 *  0.0000     1          
   493  Na    c      9.0156 *    -6.6490 *    11.1568 *  0.0000     2          
   494  Na    c      9.0156 *   -11.1568 *     6.6490 *  0.0000     2          
   495  Cl    c     11.2695 *    -6.6490 *     8.9029 *  0.0000     2          
   496  O     c      4.5078 *    13.6361 *     6.6490 *  0.0000     2          
   497  Na    c     11.2695 *    -8.9029 *     6.6490 *  0.0000     2          
   498  Cl    c      2.2539 *   -15.6646 *    -0.1127 *  0.0000     2          
   499  Na    c      2.2539 *     0.1127 *    15.6646 *  0.0000     2          
   500  Na    c      0.0000       2.3666 *    15.6646 *  0.0000     1          
   501  Na    c      0.0000     -15.6646 *    -2.3666 *  0.0000     1          
   502  Cl    c     11.2695 *   -11.1568 *    -0.1127 *  0.0000     2          
   503  Na    c     11.2695 *     0.1127 *    11.1568 *  0.0000     2          
   504  O     c     13.5234 *     4.6205 *    -6.8744 *  0.0000     2          
   505  O     c      0.0000       0.1127 *   -15.8899 *  0.0000     1          
   506  Na    c      9.0156 *     6.8744 *    11.1568 *  0.0000     2          
   507  Na    c      9.0156 *   -11.1568 *    -6.8744 *  0.0000     2          
   508  Cl    c    -15.7773 *    -2.1412 *    -0.1127 *  0.0000     2          
   509  Na    c     11.2695 *    -8.9029 *    -6.8744 *  0.0000     2          
   510  Na    c    -15.7773 *     0.1127 *     2.1412 *  0.0000     2          
   511  Cl    c     11.2695 *     6.8744 *     8.9029 *  0.0000     2          
   512  O     c      4.5078 *    13.6361 *    -6.8744 *  0.0000     2          
   513  Cl    c      6.7617 *   -11.1568 *    -9.1283 *  0.0000     2          
   514  Na    c      6.7617 *     9.1283 *    11.1568 *  0.0000     2          
   515  Na    c      0.0000     -11.1568 *   -11.3822 *  0.0000     1          
   516  Na    c      0.0000      11.3822 *    11.1568 *  0.0000     1          
   517  Cl    c     11.2695 *    -6.6490 *    -9.1283 *  0.0000     2          
   518  Cl    c    -15.7773 *     2.3666 *    -0.1127 *  0.0000     2          
   519  Na    c    -15.7773 *     0.1127 *    -2.3666 *  0.0000     2          
   520  Na    c      6.7617 *    -8.9029 *   -11.3822 *  0.0000     2          
   521  Na    c     11.2695 *     9.1283 *     6.6490 *  0.0000     2          
   522  Cl    c      6.7617 *    11.3822 *     8.9029 *  0.0000     2          
   523  Na    c      9.0156 *    -6.6490 *   -11.3822 *  0.0000     2          
   524  Na    c      9.0156 *    11.3822 *     6.6490 *  0.0000     2          
   525  Na    c     11.2695 *     0.1127 *   -11.3822 *  0.0000     2          
   526  Cl    c     11.2695 *    11.3822 *    -0.1127 *  0.0000     2          
   527  Na    c      0.0000      15.8899 *     2.1412 *  0.0000     1          
   528  Na    c      0.0000      -2.1412 *   -15.8899 *  0.0000     1          
   529  Na    c     11.2695 *     9.1283 *    -6.8744 *  0.0000     2          
   530  Cl    c     11.2695 *     6.8744 *    -9.1283 *  0.0000     2          
   531  Na    c      2.2539 *     0.1127 *   -15.8899 *  0.0000     2          
   532  Cl    c      2.2539 *    15.8899 *    -0.1127 *  0.0000     2          
   533  Na    c      0.0000       2.3666 *   -15.8899 *  0.0000     1          
   534  Na    c      0.0000      15.8899 *    -2.3666 *  0.0000     1          
   535  Na    c      9.0156 *     6.8744 *   -11.3822 *  0.0000     2          
   536  Na    c      9.0156 *    11.3822 *    -6.8744 *  0.0000     2          
   537  Na    c      6.7617 *     9.1283 *   -11.3822 *  0.0000     2          
   538  Cl    c      6.7617 *    11.3822 *    -9.1283 *  0.0000     2          
   539  Na    c      0.0000      -8.9029 *    13.4107 *  0.0000     1          
   540  Na    c      0.0000     -13.4107 *     8.9029 *  0.0000     1          
   541  Na    c      0.0000      11.3822 *   -11.3822 *  0.0000     1          
   542  Na    c      9.0156 *     0.1127 *    13.4107 *  0.0000     2          
   543  Na    c      9.0156 *   -13.4107 *    -0.1127 *  0.0000     2          
   544  Na    c     13.5234 *     0.1127 *     8.9029 *  0.0000     2          
   545  Na    c     13.5234 *    -8.9029 *    -0.1127 *  0.0000     2          
   546  Na    c      0.0000       9.1283 *    13.4107 *  0.0000     1          
   547  Na    c      0.0000     -13.4107 *    -9.1283 *  0.0000     1          
   548  O     c      0.0000      -4.3951 *    15.6646 *  0.0000     1          
   549  Na    c      0.0000      13.6361 *     8.9029 *  0.0000     1          
   550  Na    c      0.0000      -8.9029 *   -13.6361 *  0.0000     1          
   551  O     c      4.5078 *     0.1127 *    15.6646 *  0.0000     2          
   552  O     c      9.0156 *   -13.4107 *     2.1412 *  0.0000     2          
   553  Na    c     13.5234 *     0.1127 *    -9.1283 *  0.0000     2          
   554  Na    c     13.5234 *     9.1283 *    -0.1127 *  0.0000     2          
   555  O     c      9.0156 *   -13.4107 *    -2.3666 *  0.0000     2          
   556  O     c      0.0000       4.6205 *    15.6646 *  0.0000     1          
   557  O     c     13.5234 *    -8.9029 *     2.1412 *  0.0000     2          
   558  Na    c      9.0156 *     0.1127 *   -13.6361 *  0.0000     2          
   559  Na    c      9.0156 *    13.6361 *    -0.1127 *  0.0000     2          
   560  O     c     13.5234 *    -8.9029 *    -2.3666 *  0.0000     2          
   561  Na    c      0.0000       9.1283 *   -13.6361 *  0.0000     1          
   562  Na    c      0.0000      13.6361 *    -9.1283 *  0.0000     1          
   563  Na    c      4.5078 *   -11.1568 *    11.1568 *  0.0000     2          
   564  Cl    c      6.7617 *    -6.6490 *    13.4107 *  0.0000     2          
   565  Na    c      6.7617 *   -13.4107 *     6.6490 *  0.0000     2          
   566  Cl    c      2.2539 *   -15.6646 *     4.3951 *  0.0000     2          
   567  Na    c      2.2539 *    -4.3951 *    15.6646 *  0.0000     2          
   568  Na    c      4.5078 *    -2.1412 *    15.6646 *  0.0000     2          
   569  Na    c      4.5078 *   -15.6646 *     2.1412 *  0.0000     2          
   570  Cl    c     11.2695 *   -11.1568 *     4.3951 *  0.0000     2          
   571  Na    c     11.2695 *    -4.3951 *    11.1568 *  0.0000     2          
   572  O     c     13.5234 *     9.1283 *     2.1412 *  0.0000     2          
   573  Na    c      4.5078 *     2.3666 *    15.6646 *  0.0000     2          
   574  Na    c      4.5078 *   -15.6646 *    -2.3666 *  0.0000     2          
   575  Na    c     13.5234 *    -6.6490 *     6.6490 *  0.0000     2          
   576  Cl    c      2.2539 *   -15.6646 *    -4.6205 *  0.0000     2          
   577  Na    c      2.2539 *     4.6205 *    15.6646 *  0.0000     2          
   578  O     c      0.0000      -4.3951 *   -15.8899 *  0.0000     1          
   579  O     c      9.0156 *    13.6361 *     2.1412 *  0.0000     2          
   580  O     c     13.5234 *     9.1283 *    -2.3666 *  0.0000     2          
   581  Cl    c      6.7617 *     6.8744 *    13.4107 *  0.0000     2          
   582  Na    c      6.7617 *   -13.4107 *    -6.8744 *  0.0000     2          
   583  Cl    c    -15.7773 *    -2.1412 *     4.3951 *  0.0000     2          
   584  O     c      9.0156 *    13.6361 *    -2.3666 *  0.0000     2          
   585  Na    c    -15.7773 *    -4.3951 *     2.1412 *  0.0000     2          
   586  Cl    c     11.2695 *   -11.1568 *    -4.6205 *  0.0000     2          
   587  O     c      4.5078 *     0.1127 *   -15.8899 *  0.0000     2          
   588  Na    c     11.2695 *     4.6205 *    11.1568 *  0.0000     2          
   589  Na    c    -15.7773 *    -4.3951 *    -2.3666 *  0.0000     2          
   590  Cl    c    -15.7773 *     2.3666 *     4.3951 *  0.0000     2          
   591  O     c      0.0000       4.6205 *   -15.8899 *  0.0000     1          
   592  Na    c      4.5078 *   -11.1568 *   -11.3822 *  0.0000     2          
   593  Na    c     13.5234 *     6.8744 *     6.6490 *  0.0000     2          
   594  Na    c     13.5234 *    -6.6490 *    -6.8744 *  0.0000     2          
   595  Na    c      4.5078 *    11.3822 *    11.1568 *  0.0000     2          
   596  Cl    c    -15.7773 *    -2.1412 *    -4.6205 *  0.0000     2          
   597  Na    c    -15.7773 *     4.6205 *     2.1412 *  0.0000     2          
   598  Na    c    -15.7773 *     4.6205 *    -2.3666 *  0.0000     2          
   599  Cl    c      6.7617 *    -6.6490 *   -13.6361 *  0.0000     2          
   600  Cl    c     11.2695 *    11.3822 *     4.3951 *  0.0000     2          
   601  Cl    c     15.7773 *     2.3666 *    -4.6205 *  0.0000     2          
   602  Na    c      6.7617 *    13.6361 *     6.6490 *  0.0000     2          
   603  Na    c     11.2695 *    -4.3951 *   -11.3822 *  0.0000     2          
   604  Na    c      2.2539 *    -4.3951 *   -15.8899 *  0.0000     2          
   605  Cl    c      2.2539 *    15.8899 *     4.3951 *  0.0000     2          
   606  Na    c      4.5078 *    15.8899 *     2.1412 *  0.0000     2          
   607  Na    c      4.5078 *    -2.1412 *   -15.8899 *  0.0000     2          
   608  Na    c     13.5234 *     6.8744 *    -6.8744 *  0.0000     2          
   609  Cl    c     11.2695 *    11.3822 *    -4.6205 *  0.0000     2          
   610  Na    c     11.2695 *     4.6205 *   -11.3822 *  0.0000     2          
   611  Na    c      4.5078 *    15.8899 *    -2.3666 *  0.0000     2          
   612  Na    c     -4.5078 *     2.3666 *   -15.8899 *  0.0000     2          
   613  Cl    c      6.7617 *     6.8744 *   -13.6361 *  0.0000     2          
   614  Na    c      6.7617 *    13.6361 *    -6.8744 *  0.0000     2          
   615  Na    c      2.2539 *     4.6205 *   -15.8899 *  0.0000     2          
   616  Cl    c      2.2539 *    15.8899 *    -4.6205 *  0.0000     2          
   617  Na    c      4.5078 *    -8.9029 *    13.4107 *  0.0000     2          
   618  Na    c      4.5078 *   -13.4107 *     8.9029 *  0.0000     2          
   619  Na    c      4.5078 *    11.3822 *   -11.3822 *  0.0000     2          
   620  Na    c      9.0156 *    -4.3951 *    13.4107 *  0.0000     2          
   621  Na    c      9.0156 *   -13.4107 *     4.3951 *  0.0000     2          
   622  Na    c     13.5234 *    -4.3951 *     8.9029 *  0.0000     2          
   623  Na    c     13.5234 *    -8.9029 *     4.3951 *  0.0000     2          
   624  Na    c      9.0156 *     4.6205 *    13.4107 *  0.0000     2          
   625  Na    c      9.0156 *   -13.4107 *    -4.6205 *  0.0000     2          
   626  Na    c      4.5078 *     9.1283 *    13.4107 *  0.0000     2          
   627  Na    c      4.5078 *   -13.4107 *    -9.1283 *  0.0000     2          
   628  Na    c     13.5234 *     4.6205 *     8.9029 *  0.0000     2          
   629  Na    c     13.5234 *    -8.9029 *    -4.6205 *  0.0000     2          
   630  O     c      4.5078 *    -4.3951 *    15.6646 *  0.0000     2          
   631  O     c      9.0156 *    -8.9029 *    11.1568 *  0.0000     2          
   632  Na    c      4.5078 *    13.6361 *     8.9029 *  0.0000     2          
   633  Na    c      4.5078 *    -8.9029 *   -13.6361 *  0.0000     2          
   634  Na    c     13.5234 *     9.1283 *     4.3951 *  0.0000     2          
   635  Na    c     13.5234 *    -4.3951 *    -9.1283 *  0.0000     2          
   636  Na    c      9.0156 *    13.6361 *     4.3951 *  0.0000     2          
   637  Na    c      9.0156 *    -4.3951 *   -13.6361 *  0.0000     2          
   638  O     c      4.5078 *     4.6205 *    15.6646 *  0.0000     2          
   639  Na    c     13.5234 *     4.6205 *    -9.1283 *  0.0000     2          
   640  Na    c     13.5234 *     9.1283 *    -4.6205 *  0.0000     2          
   641  Na    c      9.0156 *     4.6205 *   -13.6361 *  0.0000     2          
   642  Na    c      9.0156 *    13.6361 *    -4.6205 *  0.0000     2          
   643  O     c      9.0156 *     9.1283 *    11.1568 *  0.0000     2          
   644  Na    c      4.5078 *     9.1283 *   -13.6361 *  0.0000     2          
   645  Na    c      4.5078 *    13.6361 *    -9.1283 *  0.0000     2          
   646  Na    c      0.0000      -6.6490 *    15.6646 *  0.0000     1          
   647  Na    c      0.0000     -15.6646 *     6.6490 *  0.0000     1          
   648  O     c      9.0156 *    -8.9029 *   -11.3822 *  0.0000     2          
   649  Cl    c      6.7617 *   -15.6646 *    -0.1127 *  0.0000     2          
   650  Na    c      6.7617 *     0.1127 *    15.6646 *  0.0000     2          
   651  O     c      4.5078 *    -4.3951 *   -15.8899 *  0.0000     2          
   652  Na    c      0.0000       6.8744 *    15.6646 *  0.0000     1          
   653  Na    c      0.0000     -15.6646 *    -6.8744 *  0.0000     1          
   654  Cl    c    -15.7773 *    -6.6490 *    -0.1127 *  0.0000     2          
   655  Na    c    -15.7773 *     0.1127 *     6.6490 *  0.0000     2          
   656  O     c      4.5078 *     4.6205 *   -15.8899 *  0.0000     2          
   657  O     c      9.0156 *     9.1283 *   -11.3822 *  0.0000     2          
   658  Na    c    -15.7773 *     0.1127 *    -6.8744 *  0.0000     2          
   659  Cl    c    -15.7773 *     6.8744 *    -0.1127 *  0.0000     2          
   660  Na    c      0.0000      15.8899 *     6.6490 *  0.0000     1          
   661  Na    c      0.0000      -6.6490 *   -15.8899 *  0.0000     1          
   662  Na    c      6.7617 *     0.1127 *   -15.8899 *  0.0000     2          
   663  Cl    c      6.7617 *    15.8899 *    -0.1127 *  0.0000     2          
   664  Na    c      0.0000       6.8744 *   -15.8899 *  0.0000     1          
   665  Na    c      0.0000      15.8899 *    -6.8744 *  0.0000     1          
   666  O     c      0.0000     -13.4107 *    11.1568 *  0.0000     1          
   667  O     c      9.0156 *   -13.4107 *     6.6490 *  0.0000     2          
   668  O     c     13.5234 *    -8.9029 *     6.6490 *  0.0000     2          
   669  O     c     13.5234 *     0.1127 *    11.1568 *  0.0000     2          
   670  O     c      9.0156 *   -13.4107 *    -6.8744 *  0.0000     2          
   671  O     c      0.0000     -13.4107 *   -11.3822 *  0.0000     1          
   672  Cl    c      2.2539 *   -11.1568 *    13.4107 *  0.0000     2          
   673  O     c     13.5234 *    -8.9029 *    -6.8744 *  0.0000     2          
   674  Na    c      2.2539 *   -13.4107 *    11.1568 *  0.0000     2          
   675  Na    c      4.5078 *    -6.6490 *    15.6646 *  0.0000     2          
   676  Na    c      4.5078 *   -15.6646 *     6.6490 *  0.0000     2          
   677  Cl    c      6.7617 *   -15.6646 *     4.3951 *  0.0000     2          
   678  O     c      0.0000      13.6361 *    11.1568 *  0.0000     1          
   679  Na    c      6.7617 *    -4.3951 *    15.6646 *  0.0000     2          
   680  O     c     13.5234 *     9.1283 *     6.6490 *  0.0000     2          
   681  Cl    c     11.2695 *    -2.1412 *    13.4107 *  0.0000     2          
   682  Na    c     11.2695 *   -13.4107 *     2.1412 *  0.0000     2          
   683  O     c      9.0156 *    13.6361 *     6.6490 *  0.0000     2          
   684  Na    c     13.5234 *    -2.1412 *    11.1568 *  0.0000     2          
   685  Na    c     13.5234 *   -11.1568 *     2.1412 *  0.0000     2          
   686  Na    c     11.2695 *   -13.4107 *    -2.3666 *  0.0000     2          
   687  Cl    c      6.7617 *   -15.6646 *    -4.6205 *  0.0000     2          
   688  Cl    c     11.2695 *     2.3666 *    13.4107 *  0.0000     2          
   689  Cl    c    -15.7773 *    -6.6490 *     4.3951 *  0.0000     2          
   690  Na    c      6.7617 *     4.6205 *    15.6646 *  0.0000     2          
   691  Na    c    -15.7773 *    -4.3951 *     6.6490 *  0.0000     2          
   692  O     c     13.5234 *     0.1127 *   -11.3822 *  0.0000     2          
   693  Na    c      4.5078 *     6.8744 *    15.6646 *  0.0000     2          
   694  Na    c      4.5078 *   -15.6646 *    -6.8744 *  0.0000     2          
   695  Na    c     13.5234 *   -11.1568 *    -2.3666 *  0.0000     2          
   696  Na    c     13.5234 *     2.3666 *    11.1568 *  0.0000     2          
   697  O     c     13.5234 *     9.1283 *    -6.8744 *  0.0000     2          
   698  Cl    c      2.2539 *    11.3822 *    13.4107 *  0.0000     2          
   699  Cl    c     15.7773 *    -6.6490 *    -4.6205 *  0.0000     2          
[...]
   1329 y          0.000000      0.007154     0.007154    Cartesian    0.00
   1329 z        -18.031149    -18.043865    -0.012716    Cartesian    0.07
   1330 x          4.507787      4.453990    -0.053797    Cartesian   -1.19
   1330 y          4.507787      4.505510    -0.002277    Cartesian   -0.05
   1330 z        -18.031149    -18.036866    -0.005717    Cartesian    0.03
   1331 x         13.523362     13.531197     0.007835    Cartesian    0.06
   1331 y         13.523362     13.534748     0.011386    Cartesian    0.08
   1331 z         -9.015574     -9.018046    -0.002472    Cartesian    0.03
   1332 x          4.507787      4.478229    -0.029558    Cartesian   -0.66
   1332 y         18.031149     18.036110     0.004961    Cartesian    0.03
   1332 z         -9.015574     -9.037675    -0.022100    Cartesian    0.25
   1333 x         -2.253894     -2.258358    -0.004464    Cartesian    0.20
   1333 y         -6.761681     -6.727637     0.034044    Cartesian   -0.50
   1333 z         15.777255     15.766901    -0.010354    Cartesian   -0.07
   1334 x          6.761681      6.760809    -0.000872    Cartesian   -0.01
   1334 y        -15.777255    -15.765254     0.012001    Cartesian   -0.08
   1334 z          2.253894      2.238298    -0.015595    Cartesian   -0.69
   1335 x         11.269468     11.265926    -0.003542    Cartesian   -0.03
   1335 y         -2.253894     -2.255704    -0.001810    Cartesian    0.08
   1335 z         15.777255     15.766916    -0.010340    Cartesian   -0.07
   1336 x          6.761681      6.771969     0.010288    Cartesian    0.15
   1336 y        -15.777255    -15.766338     0.010917    Cartesian   -0.07
   1336 z         -2.253894     -2.238792     0.015102    Cartesian   -0.67
   1337 x         11.269468     11.257105    -0.012363    Cartesian   -0.11
   1337 y          6.761681      6.747405    -0.014276    Cartesian   -0.21
   1337 z         15.777255     15.762299    -0.014956    Cartesian   -0.09
   1338 x          6.761681      6.761640    -0.000041    Cartesian   -0.00
   1338 y         11.269468     11.274913     0.005445    Cartesian    0.05
   1338 z         15.777255     15.761612    -0.015643    Cartesian   -0.10
   1339 x         20.285042     20.278513    -0.006529    Cartesian   -0.03
   1339 y         -2.253894     -2.241457     0.012436    Cartesian   -0.55
   1339 z          2.253894      2.254110     0.000216    Cartesian    0.01
   1340 x          9.015574      9.034515     0.018941    Cartesian    0.21
   1340 y         -9.015574     -9.052569    -0.036994    Cartesian    0.41
   1340 z         13.523362     13.578118     0.054757    Cartesian    0.40
   1341 x         20.285042     20.281099    -0.003944    Cartesian   -0.02
   1341 y         -2.253894     -2.225047     0.028846    Cartesian   -1.28
   1341 z         -2.253894     -2.257251    -0.003358    Cartesian    0.15
   1342 x         13.523362     13.543304     0.019942    Cartesian    0.15
   1342 y         -4.507787     -4.505198     0.002589    Cartesian   -0.06
   1342 z         13.523362     13.550428     0.027066    Cartesian    0.20
   1343 x         20.285042     20.281616    -0.003426    Cartesian   -0.02
   1343 y          6.761681      6.749978    -0.011702    Cartesian   -0.17
   1343 z          2.253894      2.241292    -0.012602    Cartesian   -0.56
   1344 x         20.285042     20.284272    -0.000771    Cartesian   -0.00
   1344 y          6.761681      6.765915     0.004234    Cartesian    0.06
   1344 z         -2.253894     -2.244345     0.009548    Cartesian   -0.42
   1345 x          6.761681      6.764008     0.002327    Cartesian    0.03
   1345 y         -6.761681     -6.727653     0.034028    Cartesian   -0.50
   1345 z        -15.777255    -15.766000     0.011256    Cartesian   -0.07
   1346 x         11.269468     11.262740    -0.006728    Cartesian   -0.06
   1346 y         -2.253894     -2.254121    -0.000228    Cartesian    0.01
   1346 z        -15.777255    -15.767179     0.010077    Cartesian   -0.06
   1347 x         13.523362     13.551804     0.028442    Cartesian    0.21
   1347 y          9.015574      9.008477    -0.007098    Cartesian   -0.08
   1347 z         13.523362     13.541472     0.018111    Cartesian    0.13
   1348 x          6.761681      6.762423     0.000743    Cartesian    0.01
   1348 y         20.285042     20.272771    -0.012272    Cartesian   -0.06
   1348 z          2.253894      2.265864     0.011970    Cartesian    0.53
   1349 x          6.761681      6.754370    -0.007311    Cartesian   -0.11
   1349 y         20.285042     20.271669    -0.013374    Cartesian   -0.07
   1349 z         -2.253894     -2.266797    -0.012904    Cartesian    0.57
   1350 x          9.015574      9.016111     0.000537    Cartesian    0.01
   1350 y         13.523362     13.562080     0.038718    Cartesian    0.29
   1350 z         13.523362     13.568029     0.044667    Cartesian    0.33
   1351 x         11.269468     11.265127    -0.004341    Cartesian   -0.04
   1351 y          6.761681      6.757511    -0.004169    Cartesian   -0.06
   1351 z        -15.777255    -15.757597     0.019659    Cartesian   -0.12
   1352 x          9.015574      9.033846     0.018271    Cartesian    0.20
   1352 y         -9.015574     -9.048272    -0.032697    Cartesian    0.36
   1352 z        -13.523362    -13.575010    -0.051648    Cartesian    0.38
   1353 x          6.761681      6.757785    -0.003895    Cartesian   -0.06
   1353 y         11.269468     11.268968    -0.000501    Cartesian   -0.00
   1353 z        -15.777255    -15.755965     0.021290    Cartesian   -0.13
   1354 x         13.523362     13.535386     0.012024    Cartesian    0.09
   1354 y         -4.507787     -4.501819     0.005968    Cartesian   -0.13
   1354 z        -13.523362    -13.545579    -0.022217    Cartesian    0.16
   1355 x         13.523362     13.552492     0.029130    Cartesian    0.22
   1355 y          9.015574      8.989360    -0.026215    Cartesian   -0.29
   1355 z        -13.523362    -13.561828    -0.038467    Cartesian    0.28
   1356 x          9.015574      9.020794     0.005219    Cartesian    0.06
   1356 y         13.523362     13.551023     0.027662    Cartesian    0.20
   1356 z        -13.523362    -13.548035    -0.024673    Cartesian    0.18
   1357 x          2.253894      2.253894     0.000000    Cartesian    0.00
   1357 y        -15.777255    -15.772570     0.004685    Cartesian   -0.03
   1357 z          6.761681      6.744926    -0.016755    Cartesian   -0.25
   1358 x         15.777255     15.774577    -0.002679    Cartesian   -0.02
   1358 y        -11.269468    -11.247856     0.021612    Cartesian   -0.19
   1358 z          2.253894      2.243561    -0.010333    Cartesian   -0.46
   1359 x          2.253894      2.253894     0.000000    Cartesian    0.00
   1359 y        -15.777255    -15.773959     0.003296    Cartesian   -0.02
   1359 z         -6.761681     -6.745526     0.016155    Cartesian   -0.24
   1360 x         15.777255     15.765504    -0.011751    Cartesian   -0.07
   1360 y        -11.269468    -11.261334     0.008134    Cartesian   -0.07
   1360 z         -2.253894     -2.253002     0.000891    Cartesian   -0.04
   1361 x         20.285042     20.282414    -0.002628    Cartesian   -0.01
   1361 y          2.253894      2.261477     0.007584    Cartesian    0.34
   1361 z          6.761681      6.750843    -0.010838    Cartesian   -0.16
   1362 x          4.507787      4.498719    -0.009068    Cartesian   -0.20
   1362 y         -4.507787     -4.512403    -0.004616    Cartesian    0.10
   1362 z         18.031149     18.049859     0.018710    Cartesian    0.10
   1363 x          9.015574      9.015162    -0.000413    Cartesian   -0.00
   1363 y        -13.523362    -13.588712    -0.065350    Cartesian    0.48
   1363 z          9.015574      9.016490     0.000916    Cartesian    0.01
   1364 x          9.015574      8.977977    -0.037597    Cartesian   -0.42
   1364 y          0.000000     -0.001496    -0.001496    Cartesian    0.00
   1364 z         18.031149     18.086932     0.055783    Cartesian    0.31
   1365 x          9.015574      9.065127     0.049553    Cartesian    0.55
   1365 y          4.507787      4.512532     0.004745    Cartesian    0.11
   1365 z         18.031149     18.080267     0.049118    Cartesian    0.27
   1366 x        -13.523362    -13.550790    -0.027428    Cartesian    0.20
   1366 y         -4.507787     -4.499611     0.008176    Cartesian   -0.18
   1366 z          9.015574      9.033256     0.017681    Cartesian    0.20
   1367 x         13.523362     13.537299     0.013938    Cartesian    0.10
   1367 y        -13.523362    -13.568970    -0.045608    Cartesian    0.34
   1367 z          0.000000     -0.009992    -0.009992    Cartesian    0.00
   1368 x         20.285042     20.281505    -0.003537    Cartesian   -0.02
   1368 y          2.253894      2.264170     0.010276    Cartesian    0.46
   1368 z         -6.761681     -6.750402     0.011279    Cartesian   -0.17
   1369 x          4.507787      4.511715     0.003927    Cartesian    0.09
   1369 y          9.015574      9.009450    -0.006124    Cartesian   -0.07
   1369 z         18.031149     18.052687     0.021538    Cartesian    0.12
   1370 x          2.253894      2.253894     0.000000    Cartesian    0.00
   1370 y         20.285042     20.260337    -0.024705    Cartesian   -0.12
   1370 z          6.761681      6.768019     0.006338    Cartesian    0.09
   1371 x        -13.523362    -13.532448    -0.009086    Cartesian    0.07
   1371 y         -9.015574     -9.005841     0.009734    Cartesian   -0.11
   1371 z          0.000000     -0.023329    -0.023329    Cartesian    0.00
   1372 x         15.777255     15.763675    -0.013581    Cartesian   -0.09
   1372 y         15.777255     15.767105    -0.010150    Cartesian   -0.06
   1372 z          2.253894      2.251299    -0.002594    Cartesian   -0.12
   1373 x         15.777255     15.775246    -0.002010    Cartesian   -0.01
   1373 y         15.777255     15.761732    -0.015523    Cartesian   -0.10
   1373 z         -2.253894     -2.254709    -0.000815    Cartesian    0.04
   1374 x          9.015574      9.011449    -0.004126    Cartesian   -0.05
   1374 y        -13.523362    -13.579031    -0.055669    Cartesian    0.41
   1374 z         -9.015574     -9.014165     0.001410    Cartesian   -0.02
   1375 x        -13.523362    -13.561212    -0.037850    Cartesian    0.28
   1375 y          9.015574      9.032160     0.016586    Cartesian    0.18
   1375 z          9.015574      8.983757    -0.031817    Cartesian   -0.35
   1376 x        -13.523362    -13.544177    -0.020815    Cartesian    0.15
   1376 y         -4.507787     -4.492281     0.015506    Cartesian   -0.34
   1376 z         -9.015574     -9.051324    -0.035750    Cartesian    0.40
   1377 x          2.253894      2.253894     0.000000    Cartesian    0.00
   1377 y         20.285042     20.258342    -0.026701    Cartesian   -0.13
   1377 z         -6.761681     -6.770388    -0.008707    Cartesian    0.13
   1378 x          9.015574      9.042069     0.026495    Cartesian    0.29
   1378 y         18.031149     18.066111     0.034962    Cartesian    0.19
   1378 z          9.015574      9.035979     0.020404    Cartesian    0.23
   1379 x          4.507787      4.496898    -0.010889    Cartesian   -0.24
   1379 y         -4.507787     -4.513391    -0.005604    Cartesian    0.12
   1379 z        -18.031149    -18.048903    -0.017754    Cartesian    0.10
   1380 x        -13.523362    -13.566415    -0.043053    Cartesian    0.32
   1380 y         13.523362     13.536457     0.013095    Cartesian    0.10
   1380 z          0.000000      0.003868     0.003868    Cartesian    0.00
   1381 x          9.015574      8.976527    -0.039047    Cartesian   -0.43
   1381 y          0.000000     -0.000095    -0.000095    Cartesian    0.00
   1381 z        -18.031149    -18.085877    -0.054728    Cartesian    0.30
   1382 x         18.031149     18.059342     0.028193    Cartesian    0.16
   1382 y          9.015574      9.033864     0.018290    Cartesian    0.20
   1382 z         -9.015574     -8.995445     0.020129    Cartesian   -0.22
   1383 x         13.523362     13.520123    -0.003238    Cartesian   -0.02
   1383 y         18.031149     18.030658    -0.000491    Cartesian   -0.00
   1383 z          0.000000     -0.016929    -0.016929    Cartesian    0.00
   1384 x          9.015574      9.070344     0.054770    Cartesian    0.61
   1384 y          4.507787      4.516760     0.008973    Cartesian    0.20
   1384 z        -18.031149    -18.072367    -0.041218    Cartesian    0.23
   1385 x          4.507787      4.507687    -0.000101    Cartesian   -0.00
   1385 y          9.015574      9.004530    -0.011044    Cartesian   -0.12
   1385 z        -18.031149    -18.045845    -0.014696    Cartesian    0.08
   1386 x          9.015574      9.029694     0.014119    Cartesian    0.16
   1386 y         18.031149     18.058826     0.027677    Cartesian    0.15
   1386 z         -9.015574     -9.032491    -0.016916    Cartesian    0.19
   1387 x          6.761681      6.764090     0.002409    Cartesian    0.04
   1387 y        -15.777255    -15.755678     0.021578    Cartesian   -0.14
   1387 z          6.761681      6.771775     0.010094    Cartesian    0.15
   1388 x         11.269468     11.269373    -0.000095    Cartesian   -0.00
   1388 y        -11.269468    -11.258828     0.010640    Cartesian   -0.09
   1388 z         11.269468     11.260390    -0.009078    Cartesian   -0.08
   1389 x         15.777255     15.767553    -0.009702    Cartesian   -0.06
   1389 y         -6.761681     -6.751374     0.010307    Cartesian   -0.15
   1389 z         11.269468     11.267443    -0.002025    Cartesian   -0.02
   1390 x          6.761681      6.761278    -0.000403    Cartesian   -0.01
   1390 y        -15.777255    -15.755128     0.022128    Cartesian   -0.14
   1390 z         -6.761681     -6.772958    -0.011277    Cartesian    0.17
   1391 x         20.285042     20.288146     0.003104    Cartesian    0.02
   1391 y         -2.253894     -2.250436     0.003458    Cartesian   -0.15
   1391 z          6.761681      6.751823    -0.009858    Cartesian   -0.15
   1392 x         11.269468     11.270820     0.001352    Cartesian    0.01
   1392 y        -11.269468    -11.258663     0.010805    Cartesian   -0.10
   1392 z        -11.269468    -11.258435     0.011033    Cartesian   -0.10
   1393 x         20.285042     20.277723    -0.007320    Cartesian   -0.04
   1393 y          6.761681      6.758074    -0.003607    Cartesian   -0.05
   1393 z          6.761681      6.760597    -0.001084    Cartesian   -0.02
   1394 x         15.777255     15.775556    -0.001700    Cartesian   -0.01
   1394 y         11.269468     11.262677    -0.006791    Cartesian   -0.06
   1394 z         11.269468     11.254830    -0.014638    Cartesian   -0.13
   1395 x         13.523362     13.528979     0.005618    Cartesian    0.04
   1395 y        -13.523362    -13.520084     0.003278    Cartesian   -0.02
   1395 z          4.507787      4.489344    -0.018443    Cartesian   -0.41
   1396 x         20.285042     20.286411     0.001369    Cartesian    0.01
   1396 y         -2.253894     -2.251629     0.002265    Cartesian   -0.10
   1396 z         -6.761681     -6.752474     0.009206    Cartesian   -0.14
   1397 x         11.269468     11.269108    -0.000360    Cartesian   -0.00
   1397 y         15.777255     15.765521    -0.011734    Cartesian   -0.07
   1397 z         11.269468     11.262186    -0.007282    Cartesian   -0.06
   1398 x         15.777255     15.768772    -0.008484    Cartesian   -0.05
   1398 y         -6.761681     -6.751693     0.009987    Cartesian   -0.15
   1398 z        -11.269468    -11.264703     0.004765    Cartesian   -0.04
   1399 x        -13.523362    -13.561277    -0.037915    Cartesian    0.28
   1399 y         -9.015574     -9.029262    -0.013687    Cartesian    0.15
   1399 z          4.507787      4.506911    -0.000876    Cartesian   -0.02
   1400 x         13.523362     13.537984     0.014623    Cartesian    0.11
   1400 y        -13.523362    -13.523068     0.000294    Cartesian   -0.00
   1400 z         -4.507787     -4.510775    -0.002988    Cartesian    0.07
   1401 x          6.761681      6.759451    -0.002230    Cartesian   -0.03
   1401 y         20.285042     20.288165     0.003123    Cartesian    0.02
   1401 z          6.761681      6.748117    -0.013564    Cartesian   -0.20
   1402 x         20.285042     20.280669    -0.004373    Cartesian   -0.02
   1402 y          6.761681      6.757534    -0.004147    Cartesian   -0.06
   1402 z         -6.761681     -6.760243     0.001438    Cartesian   -0.02
   1403 x         18.031149     18.086402     0.055254    Cartesian    0.31
   1403 y         -9.015574     -9.027115    -0.011541    Cartesian    0.13
   1403 z         -4.507787     -4.513491    -0.005704    Cartesian    0.13
   1404 x         15.777255     15.770951    -0.006304    Cartesian   -0.04
   1404 y         11.269468     11.262805    -0.006663    Cartesian   -0.06
   1404 z        -11.269468    -11.256435     0.013033    Cartesian   -0.12
   1405 x          6.761681      6.762324     0.000644    Cartesian    0.01
   1405 y         20.285042     20.286692     0.001650    Cartesian    0.01
   1405 z         -6.761681     -6.749356     0.012325    Cartesian   -0.18
   1406 x         11.269468     11.266245    -0.003223    Cartesian   -0.03
   1406 y         15.777255     15.768963    -0.008292    Cartesian   -0.05
   1406 z        -11.269468    -11.261992     0.007476    Cartesian   -0.07
   1407 x        -13.523362    -13.527788    -0.004426    Cartesian    0.03
   1407 y         13.523362     13.518995    -0.004367    Cartesian   -0.03
   1407 z          4.507787      4.497208    -0.010579    Cartesian   -0.23
   1408 x         13.523362     13.540974     0.017613    Cartesian    0.13
   1408 y         18.031149     18.074119     0.042970    Cartesian    0.24
   1408 z          4.507787      4.494781    -0.013007    Cartesian   -0.29
   1409 x        -13.523362    -13.528221    -0.004859    Cartesian    0.04
   1409 y         13.523362     13.538472     0.015111    Cartesian    0.11
   1409 z         -4.507787     -4.519726    -0.011939    Cartesian    0.26
--------------------------------------------------------------------------------


  Time to end of optimisation  =     2609.0206 seconds


  Peak dynamic memory used =    1963.81 MB 


  Timing analysis for GULP :

--------------------------------------------------------------------------------
  Task / Subroutine                                          Time (Seconds)
--------------------------------------------------------------------------------
  Calculation of reciprocal space energy and derivatives          0.0002
  Calculation of reciprocal space energy using symmetry           0.0003
  Calculation of real space energy and derivatives                0.0014
  Calculation of real space energy using symmetry                 0.0035
  Calculation for region 1 energy and derivatives (2-b)        1284.9923
  Calculation for region 2a energy                              380.7141
  Calculation for region 2b energy                                0.0410
  Calculation and manipulation of Hessian matrix                  4.3904
  Calculation of matrix inversion                               925.1947
  Symmetry generation of equivalent positions                     0.0019
--------------------------------------------------------------------------------
  Total CPU time                                               2609.0206
--------------------------------------------------------------------------------


  Dump file written as Na3OCl.grs


  Job Finished at 19:58.20 20th November   2020                               

