********************************************************************************
*                       GENERAL UTILITY LATTICE PROGRAM                        *
*                                 Julian Gale                                  *
*                       Curtin Institute for Computation                       *
*                    School of Molecular and Life Sciences                     *
*                    Curtin University, Western Australia                      *
********************************************************************************
* Version = 5.2.0 * Last modified =  10th September 2020                       *
********************************************************************************
*  optimise     - perform optimisation run                                     *
*  conp         - constant pressure calculation                                *
*  property     - calculate properties for final geometry                      *
*  defect       - perform defect calculation after bulk run                    *
*  compare      - compare initial and final structures                         *
********************************************************************************

  Job Started  at 17:35.07 19th November   2020                               

  Number of CPUs =     1


  Total number of configurations input =      1

********************************************************************************
*  Input for Configuration =   1                                               *
********************************************************************************

  Formula = ClONa3                                                      

  Number of irreducible atoms/shells =       5


  Total number atoms/shells =       7

  Dimensionality = 3               :  Bulk   


  Symmetry :

  Crystal family                   :  Cubic       
  Crystal class  (Groth - 1921)    :  Cubic Hexakisoctahedral              

  Space group (centrosymmetric)    :  P M 3 M         

  Patterson group                  :  P m -3 m 

  Cartesian lattice vectors (Angstroms) :

        4.504000    0.000000    0.000000
        0.000000    4.504000    0.000000
        0.000000    0.000000    4.504000

  Cell parameters (Angstroms/Degrees):

  a =       4.5040    alpha =  90.0000
  b =       4.5040    beta  =  90.0000
  c =       4.5040    gamma =  90.0000

  Initial cell volume =          91.368216 Angs**3

  Temperature of configuration =   0.00     K 

  Pressure of configuration =         0.000 GPa 

  Fractional coordinates of asymmetric unit :

--------------------------------------------------------------------------------
   No.  Atomic       x           y          z         Charge      Occupancy
        Label      (Frac)      (Frac)     (Frac)        (e)         (Frac)  
--------------------------------------------------------------------------------
      1 Cl    c    0.000000    0.000000    0.000000     1.48500    1.000000    
      2 O     c    0.500000    0.500000    0.500000     0.18300    1.000000    
      3 Na    c    0.500000    0.500000    0.000000     1.00000    1.000000    
      4 Cl    s    0.000000    0.000000    0.000000    -2.48500    1.000000    
      5 O     s    0.500000    0.500000    0.500000    -2.18300    1.000000    
--------------------------------------------------------------------------------


  Constraints : 

--------------------------------------------------------------------------------
  Constraint no.      Unconstrained     Constrained    Coefficient    Offset
                         Variable         Variable
--------------------------------------------------------------------------------
           1              Strain 1        Strain 2       1.00000      0.0000
           2              Strain 1        Strain 3       1.00000      0.0000
--------------------------------------------------------------------------------


********************************************************************************
*  General input information                                                   *
********************************************************************************

  Species output for all configurations : 

--------------------------------------------------------------------------------
  Species    Type    Atomic    Atomic    Charge       Radii (Angs)     Library
                     Number     Mass       (e)     Cova   Ionic  VDW   Symbol
--------------------------------------------------------------------------------
    Na       Core       11      22.99   1.000000   0.970  0.000  2.300          
    O        Core        8      16.00   0.183000   0.730  0.000  1.360          
    O        Shell       8       0.00  -2.183000   0.730  0.000  1.360          
    Cl       Core       17      35.45   1.485000   0.990  0.000  1.650          
    Cl       Shell      17       0.00  -2.485000   0.990  0.000  1.650          
--------------------------------------------------------------------------------


  Lattice summation method               =    Ewald          (3-D)
                                         =    Parry          (2-D)
                                         =    Saunders et al (1-D)
  Accuracy factor for lattice sums       =   12.000


  Analytic derivatives to be used

  Time limit = Infinity

  Maximum range for interatomic potentials =    100000.000000 Angstroms

  General interatomic potentials :

--------------------------------------------------------------------------------
Atom  Types   Potential      Parameter       Value         Units   Cutoffs(Ang)
  1     2                                                            Min /  Max 
--------------------------------------------------------------------------------
O    c O    s Spring (c-s)  Spring k 2       593.72000    eV*Ang^-2 0.000  0.800
                            Spring k 4       0.0000000    eV*Ang^-4 
--------------------------------------------------------------------------------
Cl   c Cl   s Spring (c-s)  Spring k 2       29.380000    eV*Ang^-2 0.000  0.800
                            Spring k 4       0.0000000    eV*Ang^-4 
--------------------------------------------------------------------------------
Na   c Na   c Buckingham    Buckingham A     1788.1900    eV        0.000 12.000
                            Buckingham rho  0.15900000    Ang       
                            Buckingham C     0.0000000    eV*Ang^6  
--------------------------------------------------------------------------------
Na   c O    s Buckingham    Buckingham A     1226.8400    eV        0.000 12.000
                            Buckingham rho  0.30700000    Ang       
                            Buckingham C     0.0000000    eV*Ang^6  
--------------------------------------------------------------------------------
Na   c Cl   s Buckingham    Buckingham A     2314.7000    eV        0.000 12.000
                            Buckingham rho  0.29000000    Ang       
                            Buckingham C     0.0000000    eV*Ang^6  
--------------------------------------------------------------------------------
O    s O    s Buckingham    Buckingham A     22764.300    eV        0.000 12.000
                            Buckingham rho  0.14900000    Ang       
                            Buckingham C     13.190000    eV*Ang^6  
--------------------------------------------------------------------------------
O    s Cl   s Buckingham    Buckingham A     8286.9100    eV        0.000 12.000
                            Buckingham rho  0.25900000    Ang       
                            Buckingham C     62.200000    eV*Ang^6  
--------------------------------------------------------------------------------
Cl   s Cl   s Buckingham    Buckingham A     1227.2000    eV        0.000 12.000
                            Buckingham rho  0.32100000    Ang       
                            Buckingham C     14.530000    eV*Ang^6  
--------------------------------------------------------------------------------

********************************************************************************
*  Output for configuration   1                                                *
********************************************************************************


  Components of energy : 

--------------------------------------------------------------------------------
  Interatomic potentials     =           5.13022605 eV    
  Monopole - monopole (real) =         -10.03624526 eV    
  Monopole - monopole (recip)=         -29.53581274 eV    
  Monopole - monopole (total)=         -39.57205800 eV    
--------------------------------------------------------------------------------
  Total lattice energy       =         -34.44183194 eV    
--------------------------------------------------------------------------------
  Total lattice energy       =           -3323.1103 kJ/(mole unit cells)
--------------------------------------------------------------------------------


  Number of variables =        1

  Maximum number of calculations  =          1000
  Maximum Hessian update interval =            10
  Maximum step size               =   1.000000000
  Maximum parameter tolerance     =   0.000010000
  Maximum function  tolerance     =   0.000010000
  Maximum gradient  tolerance     =   0.001000000
  Maximum gradient  component     =   0.010000000

  Symmetry constrained optimisation

  Symmetry used for second derivatives

  Cell parameters to be optimised using strains

  Newton-Raphson optimiser to be used

  BFGS hessian update to be used

  Lower half triangular hessian to be used

  Start of bulk optimisation :

  Cycle:      0 Energy:       -34.441832  Gnorm:      0.196570  CPU:    0.006
  ** Hessian calculated **
  Cycle:      1 Energy:       -34.441914  Gnorm:      0.000103  CPU:    0.008


  **** Optimisation achieved ****


  Final energy =     -34.44191447 eV
  Final Gnorm  =       0.00000000

  Components of energy : 

--------------------------------------------------------------------------------
  Interatomic potentials     =           5.09689708 eV    
  Monopole - monopole (real) =         -10.02781331 eV    
  Monopole - monopole (recip)=         -29.51099824 eV    
  Monopole - monopole (total)=         -39.53881155 eV    
--------------------------------------------------------------------------------
  Total lattice energy       =         -34.44191447 eV    
--------------------------------------------------------------------------------
  Total lattice energy       =           -3323.1183 kJ/(mole unit cells)
--------------------------------------------------------------------------------

  Final asymmetric unit coordinates :

--------------------------------------------------------------------------------
   No.  Atomic        x           y           z         Radius
        Label       (Frac)      (Frac)      (Frac)       (Angs) 
--------------------------------------------------------------------------------
     1  Cl    c     0.000000    0.000000    0.000000    0.000000
     2  O     c     0.500000    0.500000    0.500000    0.000000
     3  Na    c     0.500000    0.500000    0.000000    0.000000
     4  Cl    s     0.000000    0.000000    0.000000    0.000000
     5  O     s     0.500000    0.500000    0.500000    0.000000
--------------------------------------------------------------------------------

  Final Cartesian lattice vectors (Angstroms) :

        4.507787    0.000000    0.000000
        0.000000    4.507787    0.000000
        0.000000    0.000000    4.507787


  Final cell parameters and derivatives :

--------------------------------------------------------------------------------
       a            4.507787 Angstrom     dE/de1(xx)     0.000000 eV/strain
       b            4.507787 Angstrom     dE/de2(yy)     0.000000 eV/strain
       c            4.507787 Angstrom     dE/de3(zz)     0.000000 eV/strain
       alpha       90.000000 Degrees      dE/de4(yz)     0.000000 eV/strain
       beta        90.000000 Degrees      dE/de5(xz)     0.000000 eV/strain
       gamma       90.000000 Degrees      dE/de6(xy)     0.000000 eV/strain
--------------------------------------------------------------------------------

  Primitive cell volume =            91.598892 Angs**3

  Density of cell =      2.183054 g/cm**3

  Non-primitive cell volume =            91.598892 Angs**3


  Final internal derivatives :

--------------------------------------------------------------------------------
   No.  Atomic          a             b             c           Radius
        Label          (eV)          (eV)          (eV)        (eV/Angs)
--------------------------------------------------------------------------------
      1 Cl    c       0.000000      0.000000      0.000000      0.000000
      2 O     c       0.000000      0.000000      0.000000      0.000000
      3 Na    c       0.000000      0.000000      0.000000      0.000000
      4 Cl    s       0.000000      0.000000      0.000000      0.000000
      5 O     s       0.000000      0.000000      0.000000      0.000000
--------------------------------------------------------------------------------
  Maximum abs         0.000000      0.000000      0.000000      0.000000
--------------------------------------------------------------------------------

  Comparison of initial and final structures : 

--------------------------------------------------------------------------------
  Parameter   Initial value   Final value   Difference    Units      Percent
--------------------------------------------------------------------------------
    Volume        91.368216     91.598892     0.230676    Angs**3      0.25
    a              4.504000      4.507787     0.003787    Angstroms    0.08
    b              4.504000      4.507787     0.003787    Angstroms    0.08
    c              4.504000      4.507787     0.003787    Angstroms    0.08
    alpha         90.000000     90.000000     0.000000    Degrees      0.00
    beta          90.000000     90.000000     0.000000    Degrees      0.00
    gamma         90.000000     90.000000     0.000000    Degrees      0.00
      1 x          0.000000      0.000000     0.000000    Fractional   0.00
      1 y          0.000000      0.000000     0.000000    Fractional   0.00
      1 z          0.000000      0.000000     0.000000    Fractional   0.00
      2 x          0.500000      0.500000     0.000000    Fractional   0.00
      2 y          0.500000      0.500000     0.000000    Fractional   0.00
      2 z          0.500000      0.500000     0.000000    Fractional   0.00
      3 x          0.500000      0.500000     0.000000    Fractional   0.00
      3 y          0.500000      0.500000     0.000000    Fractional   0.00
      3 z          0.000000      0.000000     0.000000    Fractional   0.00
      4 x          0.000000      0.000000     0.000000    Fractional   0.00
      4 y          0.000000      0.000000     0.000000    Fractional   0.00
      4 z          0.000000      0.000000     0.000000    Fractional   0.00
      5 x          0.500000      0.500000     0.000000    Fractional   0.00
      5 y          0.500000      0.500000     0.000000    Fractional   0.00
      5 z          0.500000      0.500000     0.000000    Fractional   0.00
--------------------------------------------------------------------------------


  Born effective charge tensors : 

-------------------------------------------------------------------------------
  Atom             x           y             z
-------------------------------------------------------------------------------
    1 Cl    x      -1.0181     -0.0000      0.0000
            y      -0.0000     -1.0181      0.0000
            z       0.0000      0.0000     -1.0181
-------------------------------------------------------------------------------
    2 O     x      -2.2647      0.0000     -0.0000
            y       0.0000     -2.2647     -0.0000
            z      -0.0000     -0.0000     -2.2647
-------------------------------------------------------------------------------
    3 Na    x       1.2258     -0.0000      0.0000
            y      -0.0000      1.2258     -0.0000
            z       0.0000     -0.0000      0.8313
-------------------------------------------------------------------------------




  Elastic Constant Matrix: (Units=GPa)

-------------------------------------------------------------------------------
  Indices      1         2         3         4         5         6    
-------------------------------------------------------------------------------
       1     95.8177   20.0737   20.0737   -0.0000   -0.0000    0.0000
       2     20.0737   95.8177   20.0737   -0.0000   -0.0000    0.0000
       3     20.0737   20.0737   95.8177   -0.0000   -0.0000    0.0000
       4     -0.0000   -0.0000   -0.0000   20.0737   -0.0000    0.0000
       5     -0.0000   -0.0000   -0.0000   -0.0000   20.0737    0.0000
       6      0.0000    0.0000    0.0000    0.0000    0.0000   20.0737
-------------------------------------------------------------------------------


  Elastic Compliance Matrix: (Units=1/GPa)

-------------------------------------------------------------------------------
  Indices      1         2         3         4         5         6    
-------------------------------------------------------------------------------
       1    0.011253 -0.001949 -0.001949  0.000000  0.000000 -0.000000
       2   -0.001949  0.011253 -0.001949  0.000000  0.000000  0.000000
       3   -0.001949 -0.001949  0.011253  0.000000  0.000000 -0.000000
       4    0.000000  0.000000  0.000000  0.049816  0.000000 -0.000000
       5    0.000000  0.000000  0.000000  0.000000  0.049816 -0.000000
       6   -0.000000  0.000000 -0.000000 -0.000000 -0.000000  0.049816
-------------------------------------------------------------------------------

  Mechanical properties :

-------------------------------------------------------------------------------
  Convention :                    Reuss         Voigt         Hill
-------------------------------------------------------------------------------
  Bulk  Modulus (GPa)     =      45.32174      45.32174      45.32174
  Shear Modulus (GPa)     =      24.72085      27.19304      25.95695
-------------------------------------------------------------------------------
  Velocity S-wave (km/s)  =       3.36511       3.52937       3.44822
  Velocity P-wave (km/s)  =       5.98827       6.11304       6.05098
-------------------------------------------------------------------------------
  Compressibility (1/GPa) =    0.02206447
-------------------------------------------------------------------------------
  Stress axis :                     x             y             z
-------------------------------------------------------------------------------
  Youngs Moduli (GPa)     =      88.86373      88.86373      88.86373
-------------------------------------------------------------------------------
  Poissons Ratio (x)      =                     0.17321       0.17321
  Poissons Ratio (y)      =       0.17321                     0.17321
  Poissons Ratio (z)      =       0.17321       0.17321
-------------------------------------------------------------------------------


  Piezoelectric Strain Matrix: (Units=C/m**2)

-------------------------------------------------------------------------------
  Indices      1         2         3         4         5         6    
-------------------------------------------------------------------------------
       x    -0.00000  -0.00000  -0.00000   0.00000  -0.00000  -0.00000
       y    -0.00000  -0.00000   0.00000  -0.00000   0.00000   0.00000
       z    -0.00000  -0.00000  -0.00000  -0.00000   0.00000   0.00000
-------------------------------------------------------------------------------


  Piezoelectric Stress Matrix: (Units=10**-11 C/N)

-------------------------------------------------------------------------------
  Indices      1         2         3         4         5         6    
-------------------------------------------------------------------------------
       x    -0.00000   0.00000   0.00000   0.00000  -0.00000  -0.00000
       y    -0.00000  -0.00000   0.00000  -0.00000   0.00000   0.00000
       z     0.00000   0.00000  -0.00000  -0.00000   0.00000   0.00000
-------------------------------------------------------------------------------


  Static dielectric constant tensor : 

-------------------------------------------------------------------------------
              x         y         z
-------------------------------------------------------------------------------
       x    22.84729   0.00000   0.00000
       y     0.00000  22.84729  -0.00000
       z     0.00000  -0.00000  22.84729
--------------------------------------------------------------------------------

  High frequency dielectric constant tensor : 

-------------------------------------------------------------------------------
              x         y         z
-------------------------------------------------------------------------------
       x     1.47557   0.00000  -0.00000
       y     0.00000   1.47557  -0.00000
       z    -0.00000  -0.00000   1.47557
-------------------------------------------------------------------------------

  Static refractive indices : 

-------------------------------------------------------------------------------
    1 =    4.77988      2 =    4.77988      3 =    4.77988
-------------------------------------------------------------------------------

  High frequency refractive indices : 

-------------------------------------------------------------------------------
    1 =    1.21473      2 =    1.21473      3 =    1.21473
-------------------------------------------------------------------------------


  Time to end of optimisation =       0.0126 seconds

********************************************************************************
*  Defect calculation for configuration   1 :                                  *
********************************************************************************

  Total number of defects =      3

  Total charge on defect  =  -1.00

  Defect centre is at   0.5000   0.0500   0.4500  Frac

  Region 1 radius =  20.0000      Number of ions =   2560

  Number of symmetry inequivalent region 1 ions  =   1401

  Region 2 radius =  24.0000      Number of ions =   1860

  Number of symmetry inequivalent region 2a ions =    987

  Region 2a mode = 4 : screened electrostatics due to region 1 
                       neglect correction to region 1 forces from 2a
                       region 2a displacements based on defects only

  Region 2a ions will only interact with defects in region 1

  Vacancies:

--------------------------------------------------------------------------------
    Specification type     Symbol/Number         x          y          z
--------------------------------------------------------------------------------
    Fractional                               0.500000   0.500000   0.000000
    Fractional                               0.500000   0.000000   0.500000
--------------------------------------------------------------------------------

  Interstitials:

--------------------------------------------------------------------------------
    Specification type     Symbol/Number         x          y          z
--------------------------------------------------------------------------------
    Atom/Fractional         Na               0.500000   0.050000   0.450000
--------------------------------------------------------------------------------


  Symmetry reduced region 1 (Relative to defect centre) :

--------------------------------------------------------------------------------
   No.   Atomic       x            y             z       Radius  Multiplicity   
         Label      (Angs)       (Angs)        (Angs)    (Angs)     
--------------------------------------------------------------------------------
     1  Na    c      0.0000       0.0000       0.0000    0.0000     1    Defect
     2  O     c      0.0000       2.0285 *     0.2254 *  0.0000     1          
     3  O     c      0.0000      -2.4793 *     0.2254 *  0.0000     1          
     4  Cl    c      2.2539 *    -0.2254 *    -2.0285 *  0.0000     2          
     5  Na    c      2.2539 *     2.0285 *     0.2254 *  0.0000     2          
     6  Na    c      0.0000      -2.4793 *    -2.0285 *  0.0000     1          
     7  Na    c      0.0000       2.0285 *     2.4793 *  0.0000     1          
     8  Cl    c      2.2539 *    -0.2254 *     2.4793 *  0.0000     2          
     9  Na    c      2.2539 *    -2.4793 *     0.2254 *  0.0000     2          
    10  Na    c      0.0000      -2.4793 *     2.4793 *  0.0000     1          
    11  Na    c      0.0000      -0.2254 *    -4.2824 *  0.0000     1          
    12  Na    c      0.0000       4.2824 *     0.2254 *  0.0000     1          
    13  Na    c     -4.5078 *    -0.2254 *     0.2254 *  0.0000     2          
    14  Na    c      0.0000      -0.2254 *     4.7332 *  0.0000     1          
    15  Na    c      0.0000      -4.7332 *     0.2254 *  0.0000     1          
    16  O     c      0.0000       2.0285 *    -4.2824 *  0.0000     1          
    17  O     c     -4.5078 *     2.0285 *     0.2254 *  0.0000     2          
    18  O     c      0.0000      -2.4793 *    -4.2824 *  0.0000     1          
    19  O     c      0.0000       2.0285 *     4.7332 *  0.0000     1          
    20  O     c     -4.5078 *    -2.4793 *     0.2254 *  0.0000     2          
    21  Cl    c      2.2539 *     4.2824 *    -2.0285 *  0.0000     2          
    22  Na    c      2.2539 *     2.0285 *    -4.2824 *  0.0000     2          
    23  O     c      0.0000      -2.4793 *     4.7332 *  0.0000     1          
    24  Na    c     -4.5078 *     2.0285 *    -2.0285 *  0.0000     2          
    25  Cl    c      2.2539 *     4.2824 *     2.4793 *  0.0000     2          
    26  Na    c      2.2539 *    -2.4793 *    -4.2824 *  0.0000     2          
    27  Na    c     -4.5078 *    -2.4793 *    -2.0285 *  0.0000     2          
    28  Na    c     -4.5078 *     2.0285 *     2.4793 *  0.0000     2          
    29  Cl    c      2.2539 *    -4.7332 *    -2.0285 *  0.0000     2          
    30  Na    c      2.2539 *     2.0285 *     4.7332 *  0.0000     2          
    31  Na    c     -4.5078 *    -2.4793 *     2.4793 *  0.0000     2          
    32  Cl    c      2.2539 *    -4.7332 *     2.4793 *  0.0000     2          
    33  Na    c      2.2539 *    -2.4793 *     4.7332 *  0.0000     2          
    34  Na    c      0.0000       4.2824 *    -4.2824 *  0.0000     1          
    35  Na    c      4.5078 *     4.2824 *     0.2254 *  0.0000     2          
    36  Na    c     -4.5078 *    -0.2254 *    -4.2824 *  0.0000     2          
    37  Na    c      0.0000       4.2824 *     4.7332 *  0.0000     1          
    38  Na    c      0.0000      -4.7332 *    -4.2824 *  0.0000     1          
    39  O     c      0.0000       6.5363 *     0.2254 *  0.0000     1          
    40  Na    c     -4.5078 *    -4.7332 *     0.2254 *  0.0000     2          
    41  Na    c      4.5078 *    -0.2254 *     4.7332 *  0.0000     2          
    42  O     c     -4.5078 *     2.0285 *    -4.2824 *  0.0000     2          
    43  Na    c      0.0000      -4.7332 *     4.7332 *  0.0000     1          
    44  O     c     -4.5078 *    -2.4793 *    -4.2824 *  0.0000     2          
    45  O     c     -4.5078 *     2.0285 *     4.7332 *  0.0000     2          
    46  Na    c      0.0000       2.0285 *    -6.5363 *  0.0000     1          
    47  Na    c      0.0000       6.5363 *    -2.0285 *  0.0000     1          
    48  Na    c      2.2539 *     6.5363 *     0.2254 *  0.0000     2          
    49  Cl    c      2.2539 *    -0.2254 *    -6.5363 *  0.0000     2          
    50  O     c     -4.5078 *    -2.4793 *     4.7332 *  0.0000     2          
    51  Na    c      0.0000      -2.4793 *    -6.5363 *  0.0000     1          
    52  Na    c      0.0000       6.5363 *     2.4793 *  0.0000     1          
    53  O     c      0.0000      -6.9871 *     0.2254 *  0.0000     1          
    54  Cl    c      6.7617 *    -0.2254 *    -2.0285 *  0.0000     2          
    55  Na    c      6.7617 *     2.0285 *     0.2254 *  0.0000     2          
    56  Cl    c      6.7617 *    -0.2254 *     2.4793 *  0.0000     2          
    57  Na    c      6.7617 *    -2.4793 *     0.2254 *  0.0000     2          
    58  Na    c      0.0000       2.0285 *     6.9871 *  0.0000     1          
    59  Na    c      0.0000      -6.9871 *    -2.0285 *  0.0000     1          
    60  Cl    c      2.2539 *    -0.2254 *     6.9871 *  0.0000     2          
    61  Na    c      2.2539 *    -6.9871 *     0.2254 *  0.0000     2          
    62  Na    c      0.0000      -2.4793 *     6.9871 *  0.0000     1          
    63  Na    c      0.0000      -6.9871 *     2.4793 *  0.0000     1          
    64  Na    c      4.5078 *     4.2824 *    -4.2824 *  0.0000     2          
    65  O     c      0.0000       6.5363 *    -4.2824 *  0.0000     1          
    66  Na    c      4.5078 *     4.2824 *     4.7332 *  0.0000     2          
    67  Na    c     -4.5078 *    -4.7332 *    -4.2824 *  0.0000     2          
    68  O     c      4.5078 *     6.5363 *     0.2254 *  0.0000     2          
    69  O     c      0.0000       6.5363 *     4.7332 *  0.0000     1          
    70  Na    c      4.5078 *    -4.7332 *     4.7332 *  0.0000     2          
    71  Cl    c      2.2539 *     4.2824 *    -6.5363 *  0.0000     2          
    72  Na    c      2.2539 *     6.5363 *    -4.2824 *  0.0000     2          
    73  Na    c     -4.5078 *     2.0285 *    -6.5363 *  0.0000     2          
    74  Na    c      4.5078 *     6.5363 *    -2.0285 *  0.0000     2          
    75  O     c      0.0000      -6.9871 *    -4.2824 *  0.0000     1          
    76  Cl    c      6.7617 *     4.2824 *    -2.0285 *  0.0000     2          
    77  Na    c      6.7617 *     2.0285 *    -4.2824 *  0.0000     2          
    78  Na    c      4.5078 *    -2.4793 *    -6.5363 *  0.0000     2          
    79  Na    c      4.5078 *     6.5363 *     2.4793 *  0.0000     2          
    80  O     c      4.5078 *    -6.9871 *     0.2254 *  0.0000     2          
    81  Cl    c      2.2539 *    -4.7332 *    -6.5363 *  0.0000     2          
    82  Na    c      2.2539 *     6.5363 *     4.7332 *  0.0000     2          
    83  Cl    c      6.7617 *     4.2824 *     2.4793 *  0.0000     2          
    84  Na    c      6.7617 *    -2.4793 *    -4.2824 *  0.0000     2          
    85  O     c      0.0000      -6.9871 *     4.7332 *  0.0000     1          
    86  Cl    c      2.2539 *     4.2824 *     6.9871 *  0.0000     2          
    87  Cl    c      6.7617 *    -4.7332 *    -2.0285 *  0.0000     2          
    88  Na    c      6.7617 *     2.0285 *     4.7332 *  0.0000     2          
    89  Na    c      2.2539 *    -6.9871 *    -4.2824 *  0.0000     2          
    90  Na    c     -4.5078 *     2.0285 *     6.9871 *  0.0000     2          
    91  Na    c      4.5078 *    -6.9871 *    -2.0285 *  0.0000     2          
    92  Cl    c      6.7617 *    -4.7332 *     2.4793 *  0.0000     2          
    93  Na    c      6.7617 *    -2.4793 *     4.7332 *  0.0000     2          
    94  Na    c      4.5078 *    -2.4793 *     6.9871 *  0.0000     2          
    95  Na    c      4.5078 *    -6.9871 *     2.4793 *  0.0000     2          
    96  Cl    c      2.2539 *    -4.7332 *     6.9871 *  0.0000     2          
    97  Na    c      2.2539 *    -6.9871 *     4.7332 *  0.0000     2          
    98  Na    c      0.0000      -0.2254 *    -8.7902 *  0.0000     1          
    99  Na    c      0.0000       8.7902 *     0.2254 *  0.0000     1          
   100  Na    c      9.0156 *    -0.2254 *     0.2254 *  0.0000     2          
   101  O     c      4.5078 *     6.5363 *    -4.2824 *  0.0000     2          
   102  O     c      0.0000       2.0285 *    -8.7902 *  0.0000     1          
   103  O     c      0.0000      -2.4793 *    -8.7902 *  0.0000     1          
   104  Na    c      0.0000      -0.2254 *     9.2410 *  0.0000     1          
   105  Na    c      0.0000      -9.2410 *     0.2254 *  0.0000     1          
   106  O     c      4.5078 *     6.5363 *     4.7332 *  0.0000     2          
   107  Na    c      0.0000       6.5363 *    -6.5363 *  0.0000     1          
   108  O     c      9.0156 *     2.0285 *     0.2254 *  0.0000     2          
   109  Cl    c      2.2539 *     8.7902 *    -2.0285 *  0.0000     2          
   110  Na    c      2.2539 *     2.0285 *    -8.7902 *  0.0000     2          
   111  O     c      9.0156 *    -2.4793 *     0.2254 *  0.0000     2          
   112  O     c      4.5078 *    -6.9871 *    -4.2824 *  0.0000     2          
   113  Cl    c      6.7617 *    -0.2254 *    -6.5363 *  0.0000     2          
   114  Na    c      6.7617 *     6.5363 *     0.2254 *  0.0000     2          
   115  Cl    c      2.2539 *     8.7902 *     2.4793 *  0.0000     2          
   116  Na    c      2.2539 *    -2.4793 *    -8.7902 *  0.0000     2          
   117  O     c      0.0000       2.0285 *     9.2410 *  0.0000     1          
   118  Na    c      9.0156 *     2.0285 *    -2.0285 *  0.0000     2          
   119  O     c      0.0000      -2.4793 *     9.2410 *  0.0000     1          
   120  Na    c      0.0000       6.5363 *     6.9871 *  0.0000     1          
   121  O     c      4.5078 *    -6.9871 *     4.7332 *  0.0000     2          
   122  Na    c      0.0000      -6.9871 *    -6.5363 *  0.0000     1          
   123  Na    c      9.0156 *    -2.4793 *    -2.0285 *  0.0000     2          
   124  Na    c      9.0156 *     2.0285 *     2.4793 *  0.0000     2          
   125  Na    c      9.0156 *    -2.4793 *     2.4793 *  0.0000     2          
   126  Cl    c      2.2539 *    -9.2410 *    -2.0285 *  0.0000     2          
   127  Na    c      2.2539 *     2.0285 *     9.2410 *  0.0000     2          
   128  Cl    c      6.7617 *    -0.2254 *     6.9871 *  0.0000     2          
   129  Na    c      6.7617 *    -6.9871 *     0.2254 *  0.0000     2          
   130  Na    c      0.0000       4.2824 *    -8.7902 *  0.0000     1          
   131  Na    c      0.0000       8.7902 *    -4.2824 *  0.0000     1          
   132  Cl    c      2.2539 *    -9.2410 *     2.4793 *  0.0000     2          
   133  Na    c      2.2539 *    -2.4793 *     9.2410 *  0.0000     2          
   134  Na    c      0.0000      -6.9871 *     6.9871 *  0.0000     1          
   135  Na    c     -4.5078 *    -0.2254 *    -8.7902 *  0.0000     2          
   136  Na    c     -4.5078 *     8.7902 *     0.2254 *  0.0000     2          
   137  Na    c      9.0156 *    -0.2254 *    -4.2824 *  0.0000     2          
   138  Na    c      9.0156 *     4.2824 *     0.2254 *  0.0000     2          
   139  Na    c      0.0000       8.7902 *     4.7332 *  0.0000     1          
   140  Na    c      0.0000      -4.7332 *    -8.7902 *  0.0000     1          
   141  O     c     -4.5078 *     2.0285 *    -8.7902 *  0.0000     2          
   142  Na    c      0.0000       4.2824 *     9.2410 *  0.0000     1          
   143  Na    c      0.0000      -9.2410 *    -4.2824 *  0.0000     1          
   144  Na    c      9.0156 *    -0.2254 *     4.7332 *  0.0000     2          
   145  Na    c      9.0156 *    -4.7332 *     0.2254 *  0.0000     2          
   146  O     c      4.5078 *    -2.4793 *    -8.7902 *  0.0000     2          
   147  O     c      9.0156 *     2.0285 *    -4.2824 *  0.0000     2          
   148  Na    c     -4.5078 *    -0.2254 *     9.2410 *  0.0000     2          
   149  Na    c     -4.5078 *    -9.2410 *     0.2254 *  0.0000     2          
   150  O     c      9.0156 *    -2.4793 *    -4.2824 *  0.0000     2          
   151  Na    c      4.5078 *     6.5363 *    -6.5363 *  0.0000     2          
   152  Cl    c      6.7617 *     4.2824 *    -6.5363 *  0.0000     2          
   153  Na    c      6.7617 *     6.5363 *    -4.2824 *  0.0000     2          
   154  Na    c      0.0000      -4.7332 *     9.2410 *  0.0000     1          
   155  Na    c      0.0000      -9.2410 *     4.7332 *  0.0000     1          
   156  O     c      9.0156 *     2.0285 *     4.7332 *  0.0000     2          
   157  O     c     -4.5078 *     2.0285 *     9.2410 *  0.0000     2          
   158  O     c      9.0156 *    -2.4793 *     4.7332 *  0.0000     2          
   159  Na    c      6.7617 *     6.5363 *     4.7332 *  0.0000     2          
   160  Cl    c      6.7617 *    -4.7332 *    -6.5363 *  0.0000     2          
   161  O     c      4.5078 *    -2.4793 *     9.2410 *  0.0000     2          
   162  Na    c      4.5078 *     6.5363 *     6.9871 *  0.0000     2          
   163  Na    c      4.5078 *    -6.9871 *    -6.5363 *  0.0000     2          
   164  Cl    c      6.7617 *     4.2824 *     6.9871 *  0.0000     2          
   165  Na    c      6.7617 *    -6.9871 *    -4.2824 *  0.0000     2          
   166  Na    c      4.5078 *     4.2824 *    -8.7902 *  0.0000     2          
   167  Na    c      4.5078 *     8.7902 *    -4.2824 *  0.0000     2          
   168  Cl    c      6.7617 *    -4.7332 *     6.9871 *  0.0000     2          
   169  Na    c      6.7617 *    -6.9871 *     4.7332 *  0.0000     2          
   170  Na    c      4.5078 *    -6.9871 *     6.9871 *  0.0000     2          
   171  Na    c      9.0156 *     4.2824 *    -4.2824 *  0.0000     2          
   172  Na    c     -4.5078 *     8.7902 *     4.7332 *  0.0000     2          
   173  O     c      0.0000       6.5363 *    -8.7902 *  0.0000     1          
   174  Na    c      4.5078 *    -4.7332 *    -8.7902 *  0.0000     2          
   175  O     c      0.0000      11.0441 *     0.2254 *  0.0000     1          
   176  Na    c      9.0156 *     4.2824 *     4.7332 *  0.0000     2          
   177  Na    c      9.0156 *    -4.7332 *    -4.2824 *  0.0000     2          
   178  O     c      9.0156 *     6.5363 *     0.2254 *  0.0000     2          
   179  Na    c      4.5078 *     4.2824 *     9.2410 *  0.0000     2          
   180  Na    c      4.5078 *    -9.2410 *    -4.2824 *  0.0000     2          
   181  Cl    c      2.2539 *     8.7902 *    -6.5363 *  0.0000     2          
   182  Na    c      2.2539 *     6.5363 *    -8.7902 *  0.0000     2          
   183  Na    c      0.0000       2.0285 *   -11.0441 *  0.0000     1          
   184  Na    c      0.0000      11.0441 *    -2.0285 *  0.0000     1          
   185  Na    c      9.0156 *    -4.7332 *     4.7332 *  0.0000     2          
   186  O     c      0.0000      -6.9871 *    -8.7902 *  0.0000     1          
   187  Cl    c      2.2539 *    -0.2254 *   -11.0441 *  0.0000     2          
   188  Na    c      2.2539 *    11.0441 *     0.2254 *  0.0000     2          
   189  Cl    c      6.7617 *     8.7902 *    -2.0285 *  0.0000     2          
   190  Na    c      6.7617 *     2.0285 *    -8.7902 *  0.0000     2          
   191  O     c      0.0000       6.5363 *     9.2410 *  0.0000     1          
   192  Na    c      0.0000      -2.4793 *   -11.0441 *  0.0000     1          
   193  Na    c      0.0000      11.0441 *     2.4793 *  0.0000     1          
   194  Na    c      9.0156 *     6.5363 *    -2.0285 *  0.0000     2          
   195  Na    c      4.5078 *    -4.7332 *     9.2410 *  0.0000     2          
   196  Na    c      4.5078 *    -9.2410 *     4.7332 *  0.0000     2          
   197  Na    c      9.0156 *     2.0285 *    -6.5363 *  0.0000     2          
   198  Cl    c      6.7617 *     8.7902 *     2.4793 *  0.0000     2          
   199  Na    c      6.7617 *    -2.4793 *    -8.7902 *  0.0000     2          
   200  Na    c      9.0156 *    -2.4793 *    -6.5363 *  0.0000     2          
   201  Na    c      9.0156 *     6.5363 *     2.4793 *  0.0000     2          
   202  O     c      9.0156 *    -6.9871 *     0.2254 *  0.0000     2          
   203  Cl    c     11.2695 *    -0.2254 *    -2.0285 *  0.0000     2          
   204  Na    c     11.2695 *     2.0285 *     0.2254 *  0.0000     2          
   205  Cl    c      2.2539 *     8.7902 *     6.9871 *  0.0000     2          
   206  Na    c      2.2539 *    -6.9871 *    -8.7902 *  0.0000     2          
   207  O     c      0.0000     -11.4949 *     0.2254 *  0.0000     1          
   208  Cl    c      2.2539 *    -9.2410 *    -6.5363 *  0.0000     2          
   209  Cl    c     11.2695 *    -0.2254 *     2.4793 *  0.0000     2          
   210  Na    c      2.2539 *     6.5363 *     9.2410 *  0.0000     2          
   211  Na    c     11.2695 *    -2.4793 *     0.2254 *  0.0000     2          
   212  O     c      0.0000      -6.9871 *     9.2410 *  0.0000     1          
   213  Na    c      9.0156 *     2.0285 *     6.9871 *  0.0000     2          
   214  Na    c      9.0156 *    -6.9871 *    -2.0285 *  0.0000     2          
   215  Cl    c      6.7617 *    -9.2410 *    -2.0285 *  0.0000     2          
   216  Na    c      6.7617 *     2.0285 *     9.2410 *  0.0000     2          
   217  Na    c      0.0000       2.0285 *    11.4949 *  0.0000     1          
   218  Na    c      0.0000     -11.4949 *    -2.0285 *  0.0000     1          
   219  Na    c      9.0156 *    -2.4793 *     6.9871 *  0.0000     2          
   220  Na    c      9.0156 *    -6.9871 *     2.4793 *  0.0000     2          
   221  Cl    c      6.7617 *    -9.2410 *     2.4793 *  0.0000     2          
   222  Cl    c      2.2539 *    -0.2254 *    11.4949 *  0.0000     2          
   223  Na    c      2.2539 *   -11.4949 *     0.2254 *  0.0000     2          
   224  Na    c      6.7617 *    -2.4793 *     9.2410 *  0.0000     2          
   225  Na    c      0.0000      -2.4793 *    11.4949 *  0.0000     1          
   226  Na    c      0.0000     -11.4949 *     2.4793 *  0.0000     1          
   227  Cl    c      2.2539 *    -9.2410 *     6.9871 *  0.0000     2          
   228  Na    c      2.2539 *    -6.9871 *     9.2410 *  0.0000     2          
   229  O     c      0.0000      11.0441 *    -4.2824 *  0.0000     1          
   230  O     c      4.5078 *     6.5363 *    -8.7902 *  0.0000     2          
   231  O     c      4.5078 *    11.0441 *     0.2254 *  0.0000     2          
   232  O     c      9.0156 *     6.5363 *    -4.2824 *  0.0000     2          
   233  O     c      0.0000      11.0441 *     4.7332 *  0.0000     1          
   234  Cl    c      2.2539 *     4.2824 *   -11.0441 *  0.0000     2          
   235  Na    c      2.2539 *    11.0441 *    -4.2824 *  0.0000     2          
   236  Na    c      4.5078 *    11.0441 *    -2.0285 *  0.0000     2          
   237  O     c      9.0156 *     6.5363 *     4.7332 *  0.0000     2          
   238  Na    c      4.5078 *     2.0285 *   -11.0441 *  0.0000     2          
   239  O     c      4.5078 *    -6.9871 *    -8.7902 *  0.0000     2          
   240  O     c      4.5078 *     6.5363 *     9.2410 *  0.0000     2          
   241  Na    c      4.5078 *    -2.4793 *   -11.0441 *  0.0000     2          
   242  Na    c      4.5078 *    11.0441 *     2.4793 *  0.0000     2          
   243  O     c      9.0156 *    -6.9871 *    -4.2824 *  0.0000     2          
   244  Cl    c      2.2539 *    -4.7332 *   -11.0441 *  0.0000     2          
   245  Cl    c     11.2695 *     4.2824 *    -2.0285 *  0.0000     2          
   246  Na    c      2.2539 *    11.0441 *     4.7332 *  0.0000     2          
   247  Na    c     11.2695 *     2.0285 *    -4.2824 *  0.0000     2          
   248  O     c      0.0000     -11.4949 *    -4.2824 *  0.0000     1          
   249  Cl    c     11.2695 *     4.2824 *     2.4793 *  0.0000     2          
   250  Na    c     11.2695 *    -2.4793 *    -4.2824 *  0.0000     2          
   251  O     c      4.5078 *   -11.4949 *     0.2254 *  0.0000     2          
   252  O     c      9.0156 *    -6.9871 *     4.7332 *  0.0000     2          
   253  Cl    c     11.2695 *    -4.7332 *    -2.0285 *  0.0000     2          
   254  Na    c     11.2695 *     2.0285 *     4.7332 *  0.0000     2          
   255  O     c      4.5078 *    -6.9871 *     9.2410 *  0.0000     2          
   256  O     c      0.0000     -11.4949 *     4.7332 *  0.0000     1          
   257  Na    c      0.0000       8.7902 *    -8.7902 *  0.0000     1          
   258  Cl    c     11.2695 *    -4.7332 *     2.4793 *  0.0000     2          
   259  Na    c     11.2695 *    -2.4793 *     4.7332 *  0.0000     2          
   260  Cl    c      2.2539 *     4.2824 *    11.4949 *  0.0000     2          
   261  Na    c      2.2539 *   -11.4949 *    -4.2824 *  0.0000     2          
   262  Na    c      4.5078 *   -11.4949 *    -2.0285 *  0.0000     2          
   263  Na    c     -4.5078 *     2.0285 *    11.4949 *  0.0000     2          
   264  Na    c      4.5078 *    -2.4793 *    11.4949 *  0.0000     2          
   265  Na    c      4.5078 *   -11.4949 *     2.4793 *  0.0000     2          
   266  Na    c      9.0156 *    -0.2254 *    -8.7902 *  0.0000     2          
   267  Na    c      9.0156 *     8.7902 *     0.2254 *  0.0000     2          
   268  Cl    c      2.2539 *    -4.7332 *    11.4949 *  0.0000     2          
   269  Na    c      2.2539 *   -11.4949 *     4.7332 *  0.0000     2          
   270  O     c      4.5078 *    11.0441 *    -4.2824 *  0.0000     2          
   271  Na    c      0.0000       8.7902 *     9.2410 *  0.0000     1          
   272  Na    c      0.0000      -9.2410 *    -8.7902 *  0.0000     1          
   273  O     c      9.0156 *     2.0285 *    -8.7902 *  0.0000     2          
   274  O     c      4.5078 *    11.0441 *     4.7332 *  0.0000     2          
   275  Na    c      0.0000       6.5363 *   -11.0441 *  0.0000     1          
   276  Na    c      0.0000      11.0441 *    -6.5363 *  0.0000     1          
   277  O     c      9.0156 *    -2.4793 *    -8.7902 *  0.0000     2          
   278  Cl    c      6.7617 *     8.7902 *    -6.5363 *  0.0000     2          
   279  Na    c      6.7617 *     6.5363 *    -8.7902 *  0.0000     2          
   280  Na    c      9.0156 *     6.5363 *    -6.5363 *  0.0000     2          
   281  Na    c      9.0156 *    -0.2254 *     9.2410 *  0.0000     2          
   282  Na    c      9.0156 *    -9.2410 *     0.2254 *  0.0000     2          
   283  Cl    c      6.7617 *    -0.2254 *   -11.0441 *  0.0000     2          
   284  Na    c      6.7617 *    11.0441 *     0.2254 *  0.0000     2          
   285  Cl    c     11.2695 *    -0.2254 *    -6.5363 *  0.0000     2          
   286  Na    c     11.2695 *     6.5363 *     0.2254 *  0.0000     2          
   287  Na    c      0.0000      -9.2410 *     9.2410 *  0.0000     1          
   288  O     c      9.0156 *     2.0285 *     9.2410 *  0.0000     2          
   289  Na    c      0.0000      11.0441 *     6.9871 *  0.0000     1          
   290  Na    c      0.0000      -6.9871 *   -11.0441 *  0.0000     1          
   291  O     c      4.5078 *   -11.4949 *    -4.2824 *  0.0000     2          
   292  Cl    c      6.7617 *     8.7902 *     6.9871 *  0.0000     2          
   293  Na    c      6.7617 *    -6.9871 *    -8.7902 *  0.0000     2          
   294  O     c      9.0156 *    -2.4793 *     9.2410 *  0.0000     2          
   295  Na    c      9.0156 *     6.5363 *     6.9871 *  0.0000     2          
   296  Na    c      9.0156 *    -6.9871 *    -6.5363 *  0.0000     2          
   297  Cl    c      6.7617 *    -9.2410 *    -6.5363 *  0.0000     2          
   298  Na    c      6.7617 *     6.5363 *     9.2410 *  0.0000     2          
   299  O     c      4.5078 *   -11.4949 *     4.7332 *  0.0000     2          
   300  Na    c      0.0000       6.5363 *    11.4949 *  0.0000     1          
   301  Na    c      0.0000     -11.4949 *    -6.5363 *  0.0000     1          
   302  Na    c      4.5078 *     8.7902 *    -8.7902 *  0.0000     2          
   303  Cl    c     11.2695 *    -0.2254 *     6.9871 *  0.0000     2          
   304  Na    c     11.2695 *    -6.9871 *     0.2254 *  0.0000     2          
   305  Na    c      0.0000      -0.2254 *   -13.2980 *  0.0000     1          
   306  Na    c      0.0000      13.2980 *     0.2254 *  0.0000     1          
   307  Na    c      9.0156 *     4.2824 *    -8.7902 *  0.0000     2          
   308  Na    c      9.0156 *     8.7902 *    -4.2824 *  0.0000     2          
   309  Cl    c      6.7617 *    -0.2254 *    11.4949 *  0.0000     2          
   310  Na    c      6.7617 *   -11.4949 *     0.2254 *  0.0000     2          
   311  Na    c      9.0156 *    -6.9871 *     6.9871 *  0.0000     2          
   312  Cl    c      6.7617 *    -9.2410 *     6.9871 *  0.0000     2          
   313  Na    c      6.7617 *    -6.9871 *     9.2410 *  0.0000     2          
   314  O     c      0.0000       2.0285 *   -13.2980 *  0.0000     1          
   315  Na    c      0.0000      -6.9871 *    11.4949 *  0.0000     1          
   316  Na    c      0.0000     -11.4949 *     6.9871 *  0.0000     1          
   317  Na    c      9.0156 *     8.7902 *     4.7332 *  0.0000     2          
   318  Na    c      9.0156 *    -4.7332 *    -8.7902 *  0.0000     2          
   319  O     c      0.0000      -2.4793 *   -13.2980 *  0.0000     1          
   320  Na    c     -4.5078 *     8.7902 *     9.2410 *  0.0000     2          
   321  Na    c     -4.5078 *    -9.2410 *    -8.7902 *  0.0000     2          
   322  Na    c     13.5234 *    -0.2254 *     0.2254 *  0.0000     2          
   323  Na    c      4.5078 *     6.5363 *   -11.0441 *  0.0000     2          
   324  Na    c      4.5078 *    11.0441 *    -6.5363 *  0.0000     2          
   325  Na    c      9.0156 *     4.2824 *     9.2410 *  0.0000     2          
   326  Na    c      9.0156 *    -9.2410 *    -4.2824 *  0.0000     2          
   327  Cl    c      2.2539 *    13.2980 *    -2.0285 *  0.0000     2          
   328  Cl    c      6.7617 *     4.2824 *   -11.0441 *  0.0000     2          
   329  Na    c      2.2539 *     2.0285 *   -13.2980 *  0.0000     2          
   330  Na    c      6.7617 *    11.0441 *    -4.2824 *  0.0000     2          
   331  O     c     13.5234 *     2.0285 *     0.2254 *  0.0000     2          
   332  Cl    c      2.2539 *    13.2980 *     2.4793 *  0.0000     2          
   333  Cl    c     11.2695 *     4.2824 *    -6.5363 *  0.0000     2          
   334  Na    c      2.2539 *    -2.4793 *   -13.2980 *  0.0000     2          
   335  Na    c     11.2695 *     6.5363 *    -4.2824 *  0.0000     2          
   336  Na    c      0.0000      -0.2254 *    13.7488 *  0.0000     1          
   337  Na    c      0.0000     -13.7488 *     0.2254 *  0.0000     1          
   338  Na    c      9.0156 *    -4.7332 *     9.2410 *  0.0000     2          
   339  Na    c      9.0156 *    -9.2410 *     4.7332 *  0.0000     2          
   340  O     c     13.5234 *    -2.4793 *     0.2254 *  0.0000     2          
   341  Cl    c      6.7617 *    -4.7332 *   -11.0441 *  0.0000     2          
   342  Na    c      6.7617 *    11.0441 *     4.7332 *  0.0000     2          
   343  Na    c      4.5078 *    -9.2410 *     9.2410 *  0.0000     2          
   344  Na    c      4.5078 *    11.0441 *     6.9871 *  0.0000     2          
   345  Na    c      4.5078 *    -6.9871 *   -11.0441 *  0.0000     2          
   346  Na    c     13.5234 *     2.0285 *    -2.0285 *  0.0000     2          
   347  Cl    c     11.2695 *    -4.7332 *    -6.5363 *  0.0000     2          
   348  Na    c     11.2695 *     6.5363 *     4.7332 *  0.0000     2          
   349  O     c      0.0000       2.0285 *    13.7488 *  0.0000     1          
   350  Na    c     13.5234 *    -2.4793 *    -2.0285 *  0.0000     2          
   351  Na    c     13.5234 *     2.0285 *     2.4793 *  0.0000     2          
   352  Cl    c     11.2695 *     4.2824 *     6.9871 *  0.0000     2          
   353  Na    c     11.2695 *    -6.9871 *    -4.2824 *  0.0000     2          
   354  O     c      0.0000      -2.4793 *    13.7488 *  0.0000     1          
   355  Na    c      4.5078 *     6.5363 *    11.4949 *  0.0000     2          
   356  Na    c      4.5078 *   -11.4949 *    -6.5363 *  0.0000     2          
   357  Na    c      0.0000       4.2824 *   -13.2980 *  0.0000     1          
   358  Na    c      0.0000      13.2980 *    -4.2824 *  0.0000     1          
   359  Na    c     13.5234 *    -2.4793 *     2.4793 *  0.0000     2          
   360  Cl    c      6.7617 *     4.2824 *    11.4949 *  0.0000     2          
   361  Na    c      6.7617 *   -11.4949 *    -4.2824 *  0.0000     2          
   362  Na    c      4.5078 *    -0.2254 *   -13.2980 *  0.0000     2          
   363  Na    c      4.5078 *    13.2980 *     0.2254 *  0.0000     2          
   364  Cl    c      2.2539 *   -13.7488 *    -2.0285 *  0.0000     2          
   365  Na    c      2.2539 *     2.0285 *    13.7488 *  0.0000     2          
   366  Cl    c     11.2695 *    -4.7332 *     6.9871 *  0.0000     2          
   367  Na    c     11.2695 *    -6.9871 *     4.7332 *  0.0000     2          
   368  O     c      0.0000      11.0441 *    -8.7902 *  0.0000     1          
   369  Na    c      0.0000      13.2980 *     4.7332 *  0.0000     1          
   370  Na    c      0.0000      -4.7332 *   -13.2980 *  0.0000     1          
   371  Cl    c      2.2539 *   -13.7488 *     2.4793 *  0.0000     2          
   372  Na    c      2.2539 *    -2.4793 *    13.7488 *  0.0000     2          
   373  Cl    c      6.7617 *    -4.7332 *    11.4949 *  0.0000     2          
   374  Na    c      6.7617 *   -11.4949 *     4.7332 *  0.0000     2          
   375  O     c      4.5078 *     2.0285 *   -13.2980 *  0.0000     2          
   376  O     c      9.0156 *     6.5363 *    -8.7902 *  0.0000     2          
   377  Na    c      4.5078 *    -6.9871 *    11.4949 *  0.0000     2          
   378  Na    c      4.5078 *   -11.4949 *     6.9871 *  0.0000     2          
   379  Na    c     13.5234 *    -0.2254 *    -4.2824 *  0.0000     2          
   380  Na    c     13.5234 *     4.2824 *     0.2254 *  0.0000     2          
   381  O     c      9.0156 *    11.0441 *     0.2254 *  0.0000     2          
   382  O     c      4.5078 *    -2.4793 *   -13.2980 *  0.0000     2          
   383  Cl    c      2.2539 *     8.7902 *   -11.0441 *  0.0000     2          
   384  Na    c      2.2539 *    11.0441 *    -8.7902 *  0.0000     2          
   385  O     c     13.5234 *     2.0285 *    -4.2824 *  0.0000     2          
   386  Na    c     13.5234 *    -0.2254 *     4.7332 *  0.0000     2          
   387  Na    c     13.5234 *    -4.7332 *     0.2254 *  0.0000     2          
   388  O     c      0.0000      11.0441 *     9.2410 *  0.0000     1          
   389  Na    c      9.0156 *    11.0441 *    -2.0285 *  0.0000     2          
   390  Na    c      0.0000       4.2824 *    13.7488 *  0.0000     1          
   391  Na    c      0.0000     -13.7488 *    -4.2824 *  0.0000     1          
   392  Na    c      9.0156 *     2.0285 *   -11.0441 *  0.0000     2          
   393  O     c      9.0156 *    -6.9871 *    -8.7902 *  0.0000     2          
   394  O     c     13.5234 *    -2.4793 *    -4.2824 *  0.0000     2          
   395  Cl    c     11.2695 *     8.7902 *    -2.0285 *  0.0000     2          
   396  Na    c     11.2695 *     2.0285 *    -8.7902 *  0.0000     2          
   397  Na    c      4.5078 *    -0.2254 *    13.7488 *  0.0000     2          
   398  Na    c      4.5078 *   -13.7488 *     0.2254 *  0.0000     2          
   399  O     c      9.0156 *     6.5363 *     9.2410 *  0.0000     2          
   400  Na    c      9.0156 *    11.0441 *     2.4793 *  0.0000     2          
   401  Na    c      9.0156 *    -2.4793 *   -11.0441 *  0.0000     2          
   402  O     c      0.0000     -11.4949 *    -8.7902 *  0.0000     1          
   403  O     c     13.5234 *     2.0285 *     4.7332 *  0.0000     2          
   404  Cl    c     11.2695 *     8.7902 *     2.4793 *  0.0000     2          
   405  Na    c     11.2695 *    -2.4793 *    -8.7902 *  0.0000     2          
   406  Na    c      0.0000      -4.7332 *    13.7488 *  0.0000     1          
   407  Na    c      0.0000     -13.7488 *     4.7332 *  0.0000     1          
   408  O     c     13.5234 *    -2.4793 *     4.7332 *  0.0000     2          
   409  Cl    c      2.2539 *    -9.2410 *   -11.0441 *  0.0000     2          
   410  Na    c      2.2539 *    11.0441 *     9.2410 *  0.0000     2          
   411  O     c      4.5078 *     2.0285 *    13.7488 *  0.0000     2          
   412  O     c      9.0156 *   -11.4949 *     0.2254 *  0.0000     2          
   413  Cl    c      2.2539 *     8.7902 *    11.4949 *  0.0000     2          
   414  Na    c      2.2539 *   -11.4949 *    -8.7902 *  0.0000     2          
   415  O     c      4.5078 *    -2.4793 *    13.7488 *  0.0000     2          
   416  O     c      9.0156 *    -6.9871 *     9.2410 *  0.0000     2          
   417  Na    c      4.5078 *     4.2824 *   -13.2980 *  0.0000     2          
   418  Na    c      4.5078 *    13.2980 *    -4.2824 *  0.0000     2          
   419  Cl    c     11.2695 *    -9.2410 *    -2.0285 *  0.0000     2          
   420  Na    c     11.2695 *     2.0285 *     9.2410 *  0.0000     2          
   421  O     c      0.0000     -11.4949 *     9.2410 *  0.0000     1          
   422  Na    c      9.0156 *     2.0285 *    11.4949 *  0.0000     2          
   423  Na    c      9.0156 *   -11.4949 *    -2.0285 *  0.0000     2          
   424  Cl    c     11.2695 *    -9.2410 *     2.4793 *  0.0000     2          
   425  Na    c     11.2695 *    -2.4793 *     9.2410 *  0.0000     2          
   426  O     c      0.0000       6.5363 *   -13.2980 *  0.0000     1          
   427  O     c      4.5078 *    11.0441 *    -8.7902 *  0.0000     2          
   428  Na    c      9.0156 *    -2.4793 *    11.4949 *  0.0000     2          
   429  Na    c      4.5078 *    13.2980 *     4.7332 *  0.0000     2          
   430  Na    c      4.5078 *    -4.7332 *   -13.2980 *  0.0000     2          
   431  Na    c      9.0156 *   -11.4949 *     2.4793 *  0.0000     2          
   432  Na    c     13.5234 *     4.2824 *    -4.2824 *  0.0000     2          
   433  O     c      9.0156 *    11.0441 *    -4.2824 *  0.0000     2          
   434  Cl    c      2.2539 *    -9.2410 *    11.4949 *  0.0000     2          
   435  Na    c      2.2539 *   -11.4949 *     9.2410 *  0.0000     2          
   436  Na    c     13.5234 *     4.2824 *     4.7332 *  0.0000     2          
   437  Na    c     13.5234 *    -4.7332 *    -4.2824 *  0.0000     2          
   438  Cl    c      2.2539 *    13.2980 *    -6.5363 *  0.0000     2          
   439  Na    c      2.2539 *     6.5363 *   -13.2980 *  0.0000     2          
   440  O     c      9.0156 *    11.0441 *     4.7332 *  0.0000     2          
   441  O     c      0.0000      -6.9871 *   -13.2980 *  0.0000     1          
   442  O     c     13.5234 *     6.5363 *     0.2254 *  0.0000     2          
   443  Cl    c      6.7617 *    13.2980 *    -2.0285 *  0.0000     2          
   444  Na    c      6.7617 *     2.0285 *   -13.2980 *  0.0000     2          
   445  O     c      4.5078 *    11.0441 *     9.2410 *  0.0000     2          
   446  Na    c      4.5078 *     4.2824 *    13.7488 *  0.0000     2          
   447  Na    c      4.5078 *   -13.7488 *    -4.2824 *  0.0000     2          
   448  Na    c     13.5234 *    -4.7332 *     4.7332 *  0.0000     2          
   449  Na    c      6.7617 *    -2.4793 *   -13.2980 *  0.0000     2          
   450  Cl    c      6.7617 *    13.2980 *     2.4793 *  0.0000     2          
   451  O     c      4.5078 *   -11.4949 *    -8.7902 *  0.0000     2          
   452  Na    c     13.5234 *     2.0285 *    -6.5363 *  0.0000     2          
   453  Na    c     13.5234 *     6.5363 *    -2.0285 *  0.0000     2          
   454  Cl    c      2.2539 *    13.2980 *     6.9871 *  0.0000     2          
   455  Na    c      2.2539 *    -6.9871 *   -13.2980 *  0.0000     2          
   456  O     c      0.0000       6.5363 *    13.7488 *  0.0000     1          
   457  Na    c      4.5078 *    -4.7332 *    13.7488 *  0.0000     2          
   458  Na    c      4.5078 *   -13.7488 *     4.7332 *  0.0000     2          
   459  O     c      9.0156 *   -11.4949 *    -4.2824 *  0.0000     2          
   460  O     c     13.5234 *    -6.9871 *     0.2254 *  0.0000     2          
   461  Na    c     13.5234 *    -2.4793 *    -6.5363 *  0.0000     2          
   462  Na    c     13.5234 *     6.5363 *     2.4793 *  0.0000     2          
   463  O     c      9.0156 *   -11.4949 *     4.7332 *  0.0000     2          
   464  Na    c     13.5234 *     2.0285 *     6.9871 *  0.0000     2          
   465  Na    c     13.5234 *    -6.9871 *    -2.0285 *  0.0000     2          
   466  Na    c      9.0156 *     8.7902 *    -8.7902 *  0.0000     2          
   467  Cl    c      2.2539 *   -13.7488 *    -6.5363 *  0.0000     2          
   468  Na    c      2.2539 *     6.5363 *    13.7488 *  0.0000     2          
   469  O     c      0.0000      -6.9871 *    13.7488 *  0.0000     1          
   470  O     c      4.5078 *   -11.4949 *     9.2410 *  0.0000     2          
   471  Na    c     13.5234 *    -2.4793 *     6.9871 *  0.0000     2          
   472  Na    c     13.5234 *    -6.9871 *     2.4793 *  0.0000     2          
   473  Cl    c      6.7617 *   -13.7488 *    -2.0285 *  0.0000     2          
   474  Na    c      6.7617 *     2.0285 *    13.7488 *  0.0000     2          
   475  O     c      4.5078 *     6.5363 *   -13.2980 *  0.0000     2          
   476  Na    c      6.7617 *    -2.4793 *    13.7488 *  0.0000     2          
   477  Cl    c      6.7617 *   -13.7488 *     2.4793 *  0.0000     2          
   478  O     c      0.0000      15.5519 *     0.2254 *  0.0000     1          
   479  Cl    c      2.2539 *   -13.7488 *     6.9871 *  0.0000     2          
   480  Na    c      2.2539 *    -6.9871 *    13.7488 *  0.0000     2          
   481  Na    c      0.0000      11.0441 *   -11.0441 *  0.0000     1          
   482  Na    c      9.0156 *     8.7902 *     9.2410 *  0.0000     2          
   483  Na    c      9.0156 *    -9.2410 *    -8.7902 *  0.0000     2          
   484  O     c     13.5234 *     6.5363 *    -4.2824 *  0.0000     2          
   485  Cl    c      6.7617 *     8.7902 *   -11.0441 *  0.0000     2          
   486  Na    c      6.7617 *    11.0441 *    -8.7902 *  0.0000     2          
   487  Na    c      0.0000       2.0285 *   -15.5519 *  0.0000     1          
   488  Na    c      0.0000      15.5519 *    -2.0285 *  0.0000     1          
   489  Na    c      9.0156 *     6.5363 *   -11.0441 *  0.0000     2          
   490  Na    c      9.0156 *    11.0441 *    -6.5363 *  0.0000     2          
   491  O     c      4.5078 *    -6.9871 *   -13.2980 *  0.0000     2          
   492  Cl    c      2.2539 *    -0.2254 *   -15.5519 *  0.0000     2          
   493  Na    c      2.2539 *    15.5519 *     0.2254 *  0.0000     2          
   494  Cl    c     11.2695 *     8.7902 *    -6.5363 *  0.0000     2          
   495  Na    c     11.2695 *     6.5363 *    -8.7902 *  0.0000     2          
   496  Na    c      0.0000      -2.4793 *   -15.5519 *  0.0000     1          
   497  Na    c      0.0000      15.5519 *     2.4793 *  0.0000     1          
   498  O     c     13.5234 *     6.5363 *     4.7332 *  0.0000     2          
   499  Cl    c     11.2695 *    -0.2254 *   -11.0441 *  0.0000     2          
   500  Na    c     11.2695 *    11.0441 *     0.2254 *  0.0000     2          
   501  O     c     13.5234 *    -6.9871 *    -4.2824 *  0.0000     2          
   502  O     c      4.5078 *     6.5363 *    13.7488 *  0.0000     2          
   503  Na    c      9.0156 *    11.0441 *     6.9871 *  0.0000     2          
   504  Na    c      9.0156 *    -9.2410 *     9.2410 *  0.0000     2          
   505  Na    c      9.0156 *    -6.9871 *   -11.0441 *  0.0000     2          
   506  Cl    c      6.7617 *    -9.2410 *   -11.0441 *  0.0000     2          
   507  Cl    c    -15.7773 *    -0.2254 *    -2.0285 *  0.0000     2          
   508  Na    c    -15.7773 *     2.0285 *     0.2254 *  0.0000     2          
   509  Na    c      6.7617 *    11.0441 *     9.2410 *  0.0000     2          
   510  Cl    c     11.2695 *     8.7902 *     6.9871 *  0.0000     2          
   511  Na    c     11.2695 *    -6.9871 *    -8.7902 *  0.0000     2          
   512  Na    c      0.0000      11.0441 *    11.4949 *  0.0000     1          
   513  Na    c      0.0000     -11.4949 *   -11.0441 *  0.0000     1          
   514  Na    c      0.0000       8.7902 *   -13.2980 *  0.0000     1          
   515  Na    c      0.0000      13.2980 *    -8.7902 *  0.0000     1          
   516  O     c     13.5234 *    -6.9871 *     4.7332 *  0.0000     2          
   517  Cl    c     11.2695 *    -9.2410 *    -6.5363 *  0.0000     2          
   518  Cl    c    -15.7773 *    -0.2254 *     2.4793 *  0.0000     2          
   519  Na    c     11.2695 *     6.5363 *     9.2410 *  0.0000     2          
   520  Na    c    -15.7773 *    -2.4793 *     0.2254 *  0.0000     2          
   521  Cl    c      6.7617 *     8.7902 *    11.4949 *  0.0000     2          
   522  Na    c      6.7617 *   -11.4949 *    -8.7902 *  0.0000     2          
   523  O     c      0.0000     -16.0026 *     0.2254 *  0.0000     1          
   524  Na    c      9.0156 *     6.5363 *    11.4949 *  0.0000     2          
   525  Na    c      9.0156 *   -11.4949 *    -6.5363 *  0.0000     2          
   526  O     c      4.5078 *    -6.9871 *    13.7488 *  0.0000     2          
   527  Na    c      9.0156 *    -0.2254 *   -13.2980 *  0.0000     2          
   528  Na    c      9.0156 *    13.2980 *     0.2254 *  0.0000     2          
   529  Cl    c     11.2695 *    -0.2254 *    11.4949 *  0.0000     2          
   530  Na    c     11.2695 *   -11.4949 *     0.2254 *  0.0000     2          
   531  O     c      0.0000      15.5519 *    -4.2824 *  0.0000     1          
   532  Na    c      0.0000       2.0285 *    16.0026 *  0.0000     1          
   533  Na    c      0.0000     -16.0026 *    -2.0285 *  0.0000     1          
   534  Na    c     13.5234 *    -0.2254 *    -8.7902 *  0.0000     2          
   535  Na    c     13.5234 *     8.7902 *     0.2254 *  0.0000     2          
   536  Cl    c     11.2695 *    -9.2410 *     6.9871 *  0.0000     2          
   537  Cl    c      2.2539 *    -0.2254 *    16.0026 *  0.0000     2          
   538  Na    c      2.2539 *   -16.0026 *     0.2254 *  0.0000     2          
   539  Na    c     11.2695 *    -6.9871 *     9.2410 *  0.0000     2          
   540  O     c      4.5078 *    15.5519 *     0.2254 *  0.0000     2          
   541  Na    c      0.0000      -2.4793 *    16.0026 *  0.0000     1          
   542  Na    c      0.0000     -16.0026 *     2.4793 *  0.0000     1          
   543  Na    c      0.0000      13.2980 *     9.2410 *  0.0000     1          
   544  Na    c      0.0000      -9.2410 *   -13.2980 *  0.0000     1          
   545  O     c      9.0156 *     2.0285 *   -13.2980 *  0.0000     2          
   546  Na    c      9.0156 *   -11.4949 *     6.9871 *  0.0000     2          
   547  Na    c      9.0156 *    -6.9871 *    11.4949 *  0.0000     2          
   548  Cl    c      6.7617 *    -9.2410 *    11.4949 *  0.0000     2          
   549  Na    c      6.7617 *   -11.4949 *     9.2410 *  0.0000     2          
   550  O     c      0.0000      15.5519 *     4.7332 *  0.0000     1          
   551  Na    c      4.5078 *    11.0441 *   -11.0441 *  0.0000     2          
   552  O     c      9.0156 *    -2.4793 *   -13.2980 *  0.0000     2          
   553  Na    c      0.0000     -11.4949 *    11.4949 *  0.0000     1          
   554  O     c     13.5234 *     2.0285 *    -8.7902 *  0.0000     2          
   555  Cl    c      2.2539 *     4.2824 *   -15.5519 *  0.0000     2          
   556  Na    c      2.2539 *    15.5519 *    -4.2824 *  0.0000     2          
   557  Cl    c      6.7617 *    13.2980 *    -6.5363 *  0.0000     2          
   558  Na    c      6.7617 *     6.5363 *   -13.2980 *  0.0000     2          
   559  Na    c      4.5078 *     2.0285 *   -15.5519 *  0.0000     2          
   560  Na    c      4.5078 *    15.5519 *    -2.0285 *  0.0000     2          
   561  Na    c      0.0000       8.7902 *    13.7488 *  0.0000     1          
   562  Na    c      0.0000     -13.7488 *    -8.7902 *  0.0000     1          
   563  O     c     13.5234 *    -2.4793 *    -8.7902 *  0.0000     2          
   564  Cl    c     11.2695 *     4.2824 *   -11.0441 *  0.0000     2          
   565  Na    c     11.2695 *    11.0441 *    -4.2824 *  0.0000     2          
   566  Na    c      4.5078 *    15.5519 *     2.4793 *  0.0000     2          
   567  Na    c      4.5078 *    -2.4793 *   -15.5519 *  0.0000     2          
   568  Na    c     13.5234 *    -0.2254 *     9.2410 *  0.0000     2          
   569  Na    c     13.5234 *    -9.2410 *     0.2254 *  0.0000     2          
   570  Na    c     13.5234 *     6.5363 *    -6.5363 *  0.0000     2          
   571  Cl    c      2.2539 *    -4.7332 *   -15.5519 *  0.0000     2          
   572  Na    c      2.2539 *    15.5519 *     4.7332 *  0.0000     2          
   573  Na    c      9.0156 *    -0.2254 *    13.7488 *  0.0000     2          
   574  Na    c      9.0156 *   -13.7488 *     0.2254 *  0.0000     2          
   575  Cl    c     11.2695 *    -4.7332 *   -11.0441 *  0.0000     2          
   576  Na    c     11.2695 *    11.0441 *     4.7332 *  0.0000     2          
   577  Na    c    -15.7773 *     2.0285 *    -4.2824 *  0.0000     2          
   578  Cl    c      6.7617 *    13.2980 *     6.9871 *  0.0000     2          
   579  Cl    c    -15.7773 *     4.2824 *    -2.0285 *  0.0000     2          
   580  Na    c      6.7617 *    -6.9871 *   -13.2980 *  0.0000     2          
   581  O     c     13.5234 *     2.0285 *     9.2410 *  0.0000     2          
   582  Cl    c    -15.7773 *     4.2824 *     2.4793 *  0.0000     2          
   583  Na    c    -15.7773 *    -2.4793 *    -4.2824 *  0.0000     2          
   584  Na    c      0.0000      -9.2410 *    13.7488 *  0.0000     1          
   585  Na    c      0.0000     -13.7488 *     9.2410 *  0.0000     1          
   586  O     c      0.0000     -16.0026 *    -4.2824 *  0.0000     1          
   587  O     c      9.0156 *     2.0285 *    13.7488 *  0.0000     2          
   588  O     c     13.5234 *    -2.4793 *     9.2410 *  0.0000     2          
   589  Na    c      4.5078 *    11.0441 *    11.4949 *  0.0000     2          
   590  Na    c      4.5078 *   -11.4949 *   -11.0441 *  0.0000     2          
   591  Na    c     13.5234 *     6.5363 *     6.9871 *  0.0000     2          
   592  Na    c     13.5234 *    -6.9871 *    -6.5363 *  0.0000     2          
   593  Na    c      4.5078 *     8.7902 *   -13.2980 *  0.0000     2          
   594  Na    c      4.5078 *    13.2980 *    -8.7902 *  0.0000     2          
   595  Cl    c    -15.7773 *    -4.7332 *    -2.0285 *  0.0000     2          
   596  Na    c    -15.7773 *     2.0285 *     4.7332 *  0.0000     2          
   597  O     c      4.5078 *   -16.0026 *     0.2254 *  0.0000     2          
   598  O     c      9.0156 *    -2.4793 *    13.7488 *  0.0000     2          
   599  Na    c      9.0156 *    13.2980 *    -4.2824 *  0.0000     2          
   600  Na    c      9.0156 *     4.2824 *   -13.2980 *  0.0000     2          
   601  Cl    c    -15.7773 *    -4.7332 *     2.4793 *  0.0000     2          
   602  Cl    c      6.7617 *   -13.7488 *    -6.5363 *  0.0000     2          
   603  Cl    c     11.2695 *     4.2824 *    11.4949 *  0.0000     2          
   604  Na    c      6.7617 *     6.5363 *    13.7488 *  0.0000     2          
   605  Na    c     11.2695 *   -11.4949 *    -4.2824 *  0.0000     2          
   606  Na    c    -15.7773 *    -2.4793 *     4.7332 *  0.0000     2          
   607  O     c      0.0000     -16.0026 *     4.7332 *  0.0000     1          
   608  Na    c     13.5234 *     4.2824 *    -8.7902 *  0.0000     2          
   609  Na    c     13.5234 *     8.7902 *    -4.2824 *  0.0000     2          
   610  Cl    c      2.2539 *     4.2824 *    16.0026 *  0.0000     2          
   611  Na    c      2.2539 *   -16.0026 *    -4.2824 *  0.0000     2          
   612  O     c      4.5078 *    15.5519 *    -4.2824 *  0.0000     2          
   613  O     c      9.0156 *    11.0441 *    -8.7902 *  0.0000     2          
   614  Na    c      4.5078 *     2.0285 *    16.0026 *  0.0000     2          
   615  Na    c      4.5078 *   -16.0026 *    -2.0285 *  0.0000     2          
   616  Na    c      9.0156 *    13.2980 *     4.7332 *  0.0000     2          
   617  Na    c      9.0156 *    -4.7332 *   -13.2980 *  0.0000     2          
   618  Na    c     13.5234 *    -6.9871 *     6.9871 *  0.0000     2          
   619  Cl    c     11.2695 *    -4.7332 *    11.4949 *  0.0000     2          
   620  Na    c     11.2695 *   -11.4949 *     4.7332 *  0.0000     2          
   621  Na    c      4.5078 *   -16.0026 *     2.4793 *  0.0000     2          
   622  Na    c     -4.5078 *    -2.4793 *    16.0026 *  0.0000     2          
   623  Na    c      4.5078 *    13.2980 *     9.2410 *  0.0000     2          
   624  Na    c     -4.5078 *    -9.2410 *   -13.2980 *  0.0000     2          
   625  Na    c     13.5234 *     8.7902 *     4.7332 *  0.0000     2          
   626  Na    c     13.5234 *    -4.7332 *    -8.7902 *  0.0000     2          
   627  Cl    c      2.2539 *    -4.7332 *    16.0026 *  0.0000     2          
   628  Cl    c      6.7617 *   -13.7488 *     6.9871 *  0.0000     2          
   629  Na    c      2.2539 *   -16.0026 *     4.7332 *  0.0000     2          
   630  Na    c      6.7617 *    -6.9871 *    13.7488 *  0.0000     2          
   631  O     c      4.5078 *    15.5519 *     4.7332 *  0.0000     2          
   632  Na    c      0.0000       6.5363 *   -15.5519 *  0.0000     1          
   633  Na    c      0.0000      15.5519 *    -6.5363 *  0.0000     1          
   634  Na    c      4.5078 *   -11.4949 *    11.4949 *  0.0000     2          
   635  Na    c      4.5078 *     8.7902 *    13.7488 *  0.0000     2          
   636  Na    c      4.5078 *   -13.7488 *    -8.7902 *  0.0000     2          
   637  Na    c     13.5234 *    -9.2410 *    -4.2824 *  0.0000     2          
   638  Na    c     13.5234 *     4.2824 *     9.2410 *  0.0000     2          
   639  Cl    c      6.7617 *    -0.2254 *   -15.5519 *  0.0000     2          
   640  Na    c      6.7617 *    15.5519 *     0.2254 *  0.0000     2          
   641  Na    c      9.0156 *   -13.7488 *    -4.2824 *  0.0000     2          
   642  O     c      9.0156 *    11.0441 *     9.2410 *  0.0000     2          
   643  Na    c      9.0156 *     4.2824 *    13.7488 *  0.0000     2          
   644  Na    c      0.0000      15.5519 *     6.9871 *  0.0000     1          
   645  Na    c      0.0000      -6.9871 *   -15.5519 *  0.0000     1          
   646  Na    c     13.5234 *    -4.7332 *     9.2410 *  0.0000     2          
   647  Na    c     13.5234 *    -9.2410 *     4.7332 *  0.0000     2          
   648  O     c      9.0156 *   -11.4949 *    -8.7902 *  0.0000     2          
   649  Cl    c    -15.7773 *    -0.2254 *    -6.5363 *  0.0000     2          
   650  Na    c    -15.7773 *     6.5363 *     0.2254 *  0.0000     2          
   651  Na    c      9.0156 *    -4.7332 *    13.7488 *  0.0000     2          
   652  Na    c      9.0156 *   -13.7488 *     4.7332 *  0.0000     2          
   653  Na    c      4.5078 *   -13.7488 *     9.2410 *  0.0000     2          
   654  Na    c     -4.5078 *    -9.2410 *    13.7488 *  0.0000     2          
   655  O     c      4.5078 *   -16.0026 *    -4.2824 *  0.0000     2          
   656  Cl    c    -15.7773 *    -0.2254 *     6.9871 *  0.0000     2          
   657  Na    c    -15.7773 *    -6.9871 *     0.2254 *  0.0000     2          
   658  O     c      0.0000      11.0441 *   -13.2980 *  0.0000     1          
   659  O     c      4.5078 *   -16.0026 *     4.7332 *  0.0000     2          
   660  Na    c      0.0000       6.5363 *    16.0026 *  0.0000     1          
   661  Na    c      0.0000     -16.0026 *    -6.5363 *  0.0000     1          
   662  O     c      9.0156 *   -11.4949 *     9.2410 *  0.0000     2          
   663  O     c      9.0156 *     6.5363 *   -13.2980 *  0.0000     2          
   664  Cl    c      6.7617 *    -0.2254 *    16.0026 *  0.0000     2          
   665  Na    c      6.7617 *   -16.0026 *     0.2254 *  0.0000     2          
   666  O     c     13.5234 *     6.5363 *    -8.7902 *  0.0000     2          
   667  Cl    c      2.2539 *    13.2980 *   -11.0441 *  0.0000     2          
   668  Na    c      2.2539 *    11.0441 *   -13.2980 *  0.0000     2          
   669  Na    c      0.0000     -16.0026 *     6.9871 *  0.0000     1          
   670  Na    c      4.5078 *     6.5363 *   -15.5519 *  0.0000     2          
   671  Na    c      4.5078 *    15.5519 *    -6.5363 *  0.0000     2          
   672  O     c     13.5234 *    11.0441 *     0.2254 *  0.0000     2          
   673  Na    c      0.0000      -6.9871 *    16.0026 *  0.0000     1          
   674  Cl    c      6.7617 *     4.2824 *   -15.5519 *  0.0000     2          
   675  Na    c      6.7617 *    15.5519 *    -4.2824 *  0.0000     2          
   676  O     c      9.0156 *    -6.9871 *   -13.2980 *  0.0000     2          
   677  Na    c     11.2695 *     2.0285 *   -13.2980 *  0.0000     2          
   678  Cl    c     11.2695 *    13.2980 *    -2.0285 *  0.0000     2          
   679  O     c      0.0000     -11.4949 *   -13.2980 *  0.0000     1          
   680  Na    c     13.5234 *     2.0285 *   -11.0441 *  0.0000     2          
   681  Na    c     13.5234 *    11.0441 *    -2.0285 *  0.0000     2          
   682  O     c     13.5234 *    -6.9871 *    -8.7902 *  0.0000     2          
   683  Cl    c      6.7617 *    -4.7332 *   -15.5519 *  0.0000     2          
   684  Na    c    -15.7773 *     6.5363 *    -4.2824 *  0.0000     2          
   685  Cl    c     11.2695 *    13.2980 *     2.4793 *  0.0000     2          
   686  Cl    c    -15.7773 *     4.2824 *    -6.5363 *  0.0000     2          
   687  Na    c      6.7617 *    15.5519 *     4.7332 *  0.0000     2          
   688  Na    c     11.2695 *    -2.4793 *   -13.2980 *  0.0000     2          
   689  O     c      0.0000      11.0441 *    13.7488 *  0.0000     1          
   690  Na    c      4.5078 *    15.5519 *     6.9871 *  0.0000     2          
   691  O     c     13.5234 *     6.5363 *     9.2410 *  0.0000     2          
   692  Na    c      4.5078 *    -6.9871 *   -15.5519 *  0.0000     2          
   693  Na    c     13.5234 *    -2.4793 *   -11.0441 *  0.0000     2          
   694  Na    c     13.5234 *    11.0441 *     2.4793 *  0.0000     2          
   695  O     c      9.0156 *     6.5363 *    13.7488 *  0.0000     2          
   696  Cl    c    -15.7773 *    -4.7332 *    -6.5363 *  0.0000     2          
   697  Na    c    -15.7773 *     6.5363 *     4.7332 *  0.0000     2          
   698  Cl    c      2.2539 *    13.2980 *    11.4949 *  0.0000     2          
   699  Na    c      2.2539 *   -11.4949 *   -13.2980 *  0.0000     2          
[...]
   1321 y         -9.015574     -8.981044     0.034530    Cartesian   -0.38
   1321 z          0.000000      0.000327     0.000327    Cartesian    0.00
   1322 x          2.253894      2.253894     0.000000    Cartesian    0.00
   1322 y         -2.253894     -2.250347     0.003546    Cartesian   -0.16
   1322 z         20.285042     20.280842    -0.004200    Cartesian   -0.02
   1323 x          6.761681      6.762695     0.001014    Cartesian    0.01
   1323 y         15.777255     15.757183    -0.020072    Cartesian   -0.13
   1323 z         -6.761681     -6.774716    -0.013035    Cartesian    0.19
   1324 x        -13.523362    -13.580465    -0.057104    Cartesian    0.42
   1324 y         -9.015574     -9.040048    -0.024474    Cartesian    0.27
   1324 z          4.507787      4.496951    -0.010837    Cartesian   -0.24
   1325 x          2.253894      2.253894     0.000000    Cartesian    0.00
   1325 y        -15.777255    -15.748394     0.028861    Cartesian   -0.18
   1325 z         11.269468     11.293566     0.024098    Cartesian    0.21
   1326 x          6.761681      6.759134    -0.002546    Cartesian   -0.04
   1326 y        -11.269468    -11.285677    -0.016209    Cartesian    0.14
   1326 z         15.777255     15.750750    -0.026505    Cartesian   -0.17
   1327 x         11.269468     11.267990    -0.001478    Cartesian   -0.01
   1327 y         15.777255     15.763275    -0.013980    Cartesian   -0.09
   1327 z         -2.253894     -2.266881    -0.012987    Cartesian    0.58
   1328 x          6.761681      6.757737    -0.003944    Cartesian   -0.06
   1328 y          2.253894      2.276661     0.022768    Cartesian    1.01
   1328 z        -15.777255    -15.760983     0.016272    Cartesian   -0.10
   1329 x          4.507787      4.459136    -0.048651    Cartesian   -1.08
   1329 y        -18.031149    -18.074187    -0.043038    Cartesian    0.24
   1329 z          0.000000      0.002698     0.002698    Cartesian    0.00
   1330 x         -2.253894     -2.250827     0.003067    Cartesian   -0.14
   1330 y         -2.253894     -2.275610    -0.021716    Cartesian    0.96
   1330 z        -15.777255    -15.761668     0.015587    Cartesian   -0.10
   1331 x          4.507787      4.549827     0.042040    Cartesian    0.93
   1331 y        -18.031149    -18.037770    -0.006621    Cartesian    0.04
   1331 z          4.507787      4.515925     0.008137    Cartesian    0.18
   1332 x          9.015574      9.010008    -0.005566    Cartesian   -0.06
   1332 y         13.523362     13.572376     0.049014    Cartesian    0.36
   1332 z         -9.015574     -9.018876    -0.003301    Cartesian    0.04
   1333 x         13.523362     13.541351     0.017989    Cartesian    0.13
   1333 y         -9.015574     -9.022059    -0.006485    Cartesian    0.07
   1333 z         13.523362     13.544154     0.020793    Cartesian    0.15
   1334 x         11.269468     11.250924    -0.018544    Cartesian   -0.16
   1334 y         15.777255     15.771883    -0.005372    Cartesian   -0.03
   1334 z          6.761681      6.734662    -0.027019    Cartesian   -0.40
   1335 x          4.507787      4.518899     0.011112    Cartesian    0.25
   1335 y         -9.015574     -9.032884    -0.017310    Cartesian    0.19
   1335 z         18.031149     18.031282     0.000134    Cartesian    0.00
   1336 x         13.523362     13.541523     0.018161    Cartesian    0.13
   1336 y         13.523362     13.559511     0.036149    Cartesian    0.27
   1336 z         -4.507787     -4.510721    -0.002934    Cartesian    0.07
   1337 x          6.761681      6.755913    -0.005767    Cartesian   -0.09
   1337 y         15.777255     15.770003    -0.007253    Cartesian   -0.05
   1337 z         11.269468     11.230363    -0.039106    Cartesian   -0.35
   1338 x         20.285042     20.279554    -0.005489    Cartesian   -0.03
   1338 y          2.253894      2.253755    -0.000139    Cartesian   -0.01
   1338 z         -2.253894     -2.241609     0.012284    Cartesian   -0.55
   1339 x         20.285042     20.280699    -0.004343    Cartesian   -0.02
   1339 y         -2.253894     -2.253119     0.000775    Cartesian   -0.03
   1339 z         -2.253894     -2.241555     0.012338    Cartesian   -0.55
   1340 x         20.285042     20.282635    -0.002408    Cartesian   -0.01
   1340 y          2.253894      2.238411    -0.015482    Cartesian   -0.69
   1340 z          6.761681      6.750966    -0.010715    Cartesian   -0.16
   1341 x         13.523362     13.547014     0.023653    Cartesian    0.17
   1341 y         13.523362     13.548422     0.025060    Cartesian    0.19
   1341 z          9.015574      9.013860    -0.001714    Cartesian   -0.02
   1342 x          6.761681      6.762509     0.000828    Cartesian    0.01
   1342 y        -15.777255    -15.750710     0.026545    Cartesian   -0.17
   1342 z         -6.761681     -6.781512    -0.019832    Cartesian    0.29
   1343 x         20.285042     20.282223    -0.002820    Cartesian   -0.01
   1343 y         -2.253894     -2.239159     0.014734    Cartesian   -0.65
   1343 z          6.761681      6.750760    -0.010920    Cartesian   -0.16
   1344 x          9.015574      9.017259     0.001684    Cartesian    0.02
   1344 y         13.523362     13.517398    -0.005964    Cartesian   -0.04
   1344 z         13.523362     13.543357     0.019996    Cartesian    0.15
   1345 x         11.269468     11.270733     0.001265    Cartesian    0.01
   1345 y        -15.777255    -15.766477     0.010779    Cartesian   -0.07
   1345 z         -2.253894     -2.259690    -0.005796    Cartesian    0.26
   1346 x          9.015574      9.005202    -0.010372    Cartesian   -0.12
   1346 y        -13.523362    -13.564245    -0.040883    Cartesian    0.30
   1346 z         -9.015574     -9.024878    -0.009304    Cartesian    0.10
   1347 x          6.761681      6.758204    -0.003477    Cartesian   -0.05
   1347 y          2.253894      2.237042    -0.016851    Cartesian   -0.75
   1347 z         20.285042     20.270183    -0.014860    Cartesian   -0.07
   1348 x         13.523362     13.522825    -0.000537    Cartesian   -0.00
   1348 y        -13.523362    -13.542661    -0.019299    Cartesian    0.14
   1348 z         -4.507787     -4.521691    -0.013904    Cartesian    0.31
   1349 x          6.761681      6.762787     0.001106    Cartesian    0.02
   1349 y         -2.253894     -2.230815     0.023079    Cartesian   -1.02
   1349 z         20.285042     20.270849    -0.014193    Cartesian   -0.07
   1350 x          2.253894      2.253894     0.000000    Cartesian    0.00
   1350 y          6.761681      6.761592    -0.000089    Cartesian   -0.00
   1350 z        -15.777255    -15.770457     0.006799    Cartesian   -0.04
   1351 x         11.269468     11.264698    -0.004770    Cartesian   -0.04
   1351 y        -15.777255    -15.765848     0.011407    Cartesian   -0.07
   1351 z          6.761681      6.748876    -0.012805    Cartesian   -0.19
   1352 x          6.761681      6.756563    -0.005118    Cartesian   -0.08
   1352 y        -15.777255    -15.781228    -0.003973    Cartesian    0.03
   1352 z         11.269468     11.244059    -0.025409    Cartesian   -0.23
   1353 x         15.777255     15.774339    -0.002916    Cartesian   -0.02
   1353 y          2.253894      2.251316    -0.002577    Cartesian   -0.11
   1353 z        -11.269468    -11.254465     0.015003    Cartesian   -0.13
   1354 x         13.523362     13.540365     0.017003    Cartesian    0.13
   1354 y        -13.523362    -13.552600    -0.029238    Cartesian    0.22
   1354 z          9.015574      9.001781    -0.013793    Cartesian   -0.15
   1355 x          4.507787      4.495102    -0.012685    Cartesian   -0.28
   1355 y         18.031149     18.088949     0.057800    Cartesian    0.32
   1355 z         -4.507787     -4.509068    -0.001280    Cartesian    0.03
   1356 x          9.015574      9.038580     0.023005    Cartesian    0.26
   1356 y          9.015574      9.012208    -0.003366    Cartesian   -0.04
   1356 z        -13.523362    -13.542404    -0.019043    Cartesian    0.14
   1357 x          2.253894      2.253894     0.000000    Cartesian    0.00
   1357 y         -6.761681     -6.774614    -0.012933    Cartesian    0.19
   1357 z        -15.777255    -15.745268     0.031987    Cartesian   -0.20
   1358 x         15.777255     15.775916    -0.001339    Cartesian   -0.01
   1358 y         -2.253894     -2.249654     0.004240    Cartesian   -0.19
   1358 z        -11.269468    -11.254936     0.014532    Cartesian   -0.13
   1359 x          9.015574      9.030580     0.015006    Cartesian    0.17
   1359 y         18.031149     18.044285     0.013137    Cartesian    0.07
   1359 z          0.000000      0.003646     0.003646    Cartesian    0.00
   1360 x          9.015574      9.024617     0.009043    Cartesian    0.10
   1360 y        -13.523362    -13.519122     0.004240    Cartesian   -0.03
   1360 z         13.523362     13.534542     0.011180    Cartesian    0.08
   1361 x         20.285042     20.282062    -0.002980    Cartesian   -0.01
   1361 y          6.761681      6.752581    -0.009100    Cartesian   -0.13
   1361 z          2.253894      2.262159     0.008265    Cartesian    0.37
   1362 x         13.523362     13.550248     0.026887    Cartesian    0.20
   1362 y          0.000000     -0.002750    -0.002750    Cartesian    0.00
   1362 z        -13.523362    -13.579776    -0.056414    Cartesian    0.42
   1363 x          9.015574      8.985111    -0.030463    Cartesian   -0.34
   1363 y         18.031149     18.086184     0.055035    Cartesian    0.31
   1363 z          4.507787      4.522600     0.014813    Cartesian    0.33
   1364 x         18.031149     18.059123     0.027974    Cartesian    0.16
   1364 y          9.015574      9.040283     0.024709    Cartesian    0.27
   1364 z         -4.507787     -4.497004     0.010784    Cartesian   -0.24
   1365 x        -13.523362    -13.536448    -0.013086    Cartesian    0.10
   1365 y          0.000000      0.000395     0.000395    Cartesian    0.00
   1365 z         -9.015574     -9.025656    -0.010082    Cartesian    0.11
   1366 x          4.507787      4.494421    -0.013366    Cartesian   -0.30
   1366 y         18.031149     18.045325     0.014177    Cartesian    0.08
   1366 z          9.015574      9.036813     0.021238    Cartesian    0.24
   1367 x          9.015574      9.034173     0.018598    Cartesian    0.21
   1367 y         -9.015574     -9.012889     0.002685    Cartesian   -0.03
   1367 z        -13.523362    -13.534593    -0.011232    Cartesian    0.08
   1368 x         20.285042     20.282978    -0.002065    Cartesian   -0.01
   1368 y         -6.761681     -6.751941     0.009740    Cartesian   -0.14
   1368 z          2.253894      2.262131     0.008237    Cartesian    0.37
   1369 x         18.031149     18.071833     0.040684    Cartesian    0.23
   1369 y          9.015574      8.988627    -0.026948    Cartesian   -0.30
   1369 z          9.015574      9.028194     0.012620    Cartesian    0.14
   1370 x          2.253894      2.253894     0.000000    Cartesian    0.00
   1370 y          6.761681      6.769226     0.007546    Cartesian    0.11
   1370 z         20.285042     20.264406    -0.020636    Cartesian   -0.10
   1371 x         15.777255     15.768391    -0.008864    Cartesian   -0.06
   1371 y          2.253894      2.253700    -0.000194    Cartesian   -0.01
   1371 z         15.777255     15.766663    -0.010593    Cartesian   -0.07
   1372 x        -13.523362    -13.548342    -0.024980    Cartesian    0.18
   1372 y         -9.015574     -9.043319    -0.027744    Cartesian    0.31
   1372 z         -4.507787     -4.496122     0.011665    Cartesian   -0.26
   1373 x         15.777255     15.765888    -0.011367    Cartesian   -0.07
   1373 y         -2.253894     -2.254816    -0.000923    Cartesian    0.04
   1373 z         15.777255     15.767740    -0.009515    Cartesian   -0.06
   1374 x          9.015574      8.998092    -0.017482    Cartesian   -0.19
   1374 y          9.015574      9.023866     0.008292    Cartesian    0.09
   1374 z         18.031149     18.070846     0.039698    Cartesian    0.22
   1375 x          6.761681      6.761441    -0.000240    Cartesian   -0.00
   1375 y          6.761681      6.751752    -0.009929    Cartesian   -0.15
   1375 z        -15.777255    -15.778364    -0.001109    Cartesian    0.01
   1376 x         11.269468     11.269639     0.000171    Cartesian    0.00
   1376 y         11.269468     11.263169    -0.006299    Cartesian   -0.06
   1376 z        -11.269468    -11.254126     0.015342    Cartesian   -0.14
   1377 x          4.507787      4.492992    -0.014795    Cartesian   -0.33
   1377 y        -18.031149    -18.050791    -0.019642    Cartesian    0.11
   1377 z         -4.507787     -4.525207    -0.017420    Cartesian    0.39
   1378 x        -13.523362    -13.581941    -0.058580    Cartesian    0.43
   1378 y          0.000000     -0.002545    -0.002545    Cartesian    0.00
   1378 z         13.523362     13.535461     0.012099    Cartesian    0.09
   1379 x          2.253894      2.253894     0.000000    Cartesian    0.00
   1379 y         -6.761681     -6.751010     0.010671    Cartesian   -0.16
   1379 z         20.285042     20.290104     0.005062    Cartesian    0.02
   1380 x         15.777255     15.770935    -0.006320    Cartesian   -0.04
   1380 y         11.269468     11.265213    -0.004255    Cartesian   -0.04
   1380 z         -6.761681     -6.750257     0.011423    Cartesian   -0.17
   1381 x          9.015574      8.994314    -0.021260    Cartesian   -0.24
   1381 y        -18.031149    -18.018314     0.012835    Cartesian   -0.07
   1381 z          0.000000     -0.003176    -0.003176    Cartesian    0.00
   1382 x        -13.523362    -13.563196    -0.039834    Cartesian    0.29
   1382 y         -9.015574     -9.021270    -0.005696    Cartesian    0.06
   1382 z          9.015574      9.021038     0.005463    Cartesian    0.06
   1383 x         13.523362     13.525931     0.002570    Cartesian    0.02
   1383 y          0.000000      0.001314     0.001314    Cartesian    0.00
   1383 z         18.031149     18.046693     0.015544    Cartesian    0.09
   1384 x          9.015574      9.030504     0.014930    Cartesian    0.17
   1384 y        -18.031149    -18.092366    -0.061217    Cartesian    0.34
   1384 z          4.507787      4.505187    -0.002600    Cartesian   -0.06
   1385 x          6.761681      6.764622     0.002941    Cartesian    0.04
   1385 y         -6.761681     -6.748478     0.013203    Cartesian   -0.20
   1385 z        -15.777255    -15.776778     0.000477    Cartesian   -0.00
   1386 x         20.285042     20.287250     0.002208    Cartesian    0.01
   1386 y          6.761681      6.753393    -0.008288    Cartesian   -0.12
   1386 z         -2.253894     -2.252425     0.001468    Cartesian   -0.07
   1387 x          4.507787      4.514916     0.007128    Cartesian    0.16
   1387 y        -18.031149    -18.069538    -0.038389    Cartesian    0.21
   1387 z          9.015574      9.023859     0.008285    Cartesian    0.09
   1388 x          9.015574      9.013806    -0.001768    Cartesian   -0.02
   1388 y         -9.015574     -9.005356     0.010218    Cartesian   -0.11
   1388 z         18.031149     18.064787     0.033639    Cartesian    0.19
   1389 x         13.523362     13.522478    -0.000884    Cartesian   -0.01
   1389 y          4.507787      4.506563    -0.001224    Cartesian   -0.03
   1389 z        -13.523362    -13.524148    -0.000786    Cartesian    0.01
   1390 x        -13.523362    -13.564233    -0.040871    Cartesian    0.30
   1390 y          4.507787      4.515766     0.007979    Cartesian    0.18
   1390 z         -9.015574     -9.028371    -0.012796    Cartesian    0.14
   1391 x         15.777255     15.777672     0.000417    Cartesian    0.00
   1391 y         11.269468     11.253596    -0.015872    Cartesian   -0.14
   1391 z         11.269468     11.263420    -0.006048    Cartesian   -0.05
   1392 x         11.269468     11.269145    -0.000323    Cartesian   -0.00
   1392 y        -11.269468    -11.265099     0.004369    Cartesian   -0.04
   1392 z        -11.269468    -11.253843     0.015625    Cartesian   -0.14
   1393 x         20.285042     20.278781    -0.006262    Cartesian   -0.03
   1393 y          6.761681      6.761509    -0.000172    Cartesian   -0.00
   1393 z          6.761681      6.757491    -0.004190    Cartesian   -0.06
   1394 x         13.523362     13.521373    -0.001989    Cartesian   -0.01
   1394 y         -4.507787     -4.508386    -0.000599    Cartesian    0.01
   1394 z        -13.523362    -13.521475     0.001886    Cartesian   -0.01
   1395 x         11.269468     11.267762    -0.001706    Cartesian   -0.02
   1395 y         11.269468     11.256579    -0.012889    Cartesian   -0.11
   1395 z         15.777255     15.769491    -0.007764    Cartesian   -0.05
   1396 x         15.777255     15.770727    -0.006528    Cartesian   -0.04
   1396 y        -11.269468    -11.266777     0.002691    Cartesian   -0.02
   1396 z         -6.761681     -6.751096     0.010585    Cartesian   -0.16
   1397 x         20.285042     20.287943     0.002901    Cartesian    0.01
   1397 y         -6.761681     -6.752988     0.008693    Cartesian   -0.13
   1397 z         -2.253894     -2.251946     0.001948    Cartesian   -0.09
   1398 x        -13.523362    -13.564208    -0.040847    Cartesian    0.30
   1398 y         -4.507787     -4.517915    -0.010128    Cartesian    0.22
   1398 z         -9.015574     -9.028064    -0.012490    Cartesian    0.14
   1399 x          6.761681      6.765272     0.003591    Cartesian    0.05
   1399 y          6.761681      6.768588     0.006908    Cartesian    0.10
   1399 z         20.285042     20.264033    -0.021009    Cartesian   -0.10
   1400 x         20.285042     20.278581    -0.006461    Cartesian   -0.03
   1400 y         -6.761681     -6.761021     0.000660    Cartesian   -0.01
   1400 z          6.761681      6.758698    -0.002982    Cartesian   -0.04
   1401 x        -13.523362    -13.524153    -0.000791    Cartesian    0.01
   1401 y          4.507787      4.503719    -0.004068    Cartesian   -0.09
   1401 z         13.523362     13.526390     0.003028    Cartesian    0.02
--------------------------------------------------------------------------------


  Time to end of optimisation  =     1683.6417 seconds


  Peak dynamic memory used =    1937.22 MB 


  Timing analysis for GULP :

--------------------------------------------------------------------------------
  Task / Subroutine                                          Time (Seconds)
--------------------------------------------------------------------------------
  Calculation of reciprocal space energy and derivatives          0.0003
  Calculation of reciprocal space energy using symmetry           0.0004
  Calculation of real space energy and derivatives                0.0017
  Calculation of real space energy using symmetry                 0.0041
  Calculation for region 1 energy and derivatives (2-b)         810.3378
  Calculation for region 2a energy                              266.7727
  Calculation for region 2b energy                                0.0262
  Calculation and manipulation of Hessian matrix                  2.8924
  Calculation of matrix inversion                               595.2286
  Symmetry generation of equivalent positions                     0.0020
--------------------------------------------------------------------------------
  Total CPU time                                               1683.6418
--------------------------------------------------------------------------------


  Dump file written as Na3OCl.grs


  Job Finished at 18:03.10 19th November   2020                               

