********************************************************************************
*                       GENERAL UTILITY LATTICE PROGRAM                        *
*                                 Julian Gale                                  *
*                       Curtin Institute for Computation                       *
*                    School of Molecular and Life Sciences                     *
*                    Curtin University, Western Australia                      *
********************************************************************************
* Version = 5.2.0 * Last modified =  10th September 2020                       *
********************************************************************************
*  optimise     - perform optimisation run                                     *
*  conp         - constant pressure calculation                                *
*  property     - calculate properties for final geometry                      *
*  defect       - perform defect calculation after bulk run                    *
*  compare      - compare initial and final structures                         *
********************************************************************************

  Job Started  at 15:13.54 19th January    2021                               

  Number of CPUs =     1


  Total number of configurations input =      1

********************************************************************************
*  Input for Configuration =   1                                               *
********************************************************************************

  Formula = OClNa3                                                      

  Number of irreducible atoms/shells =       5


  Total number atoms/shells =       7

  Dimensionality = 3               :  Bulk   


  Symmetry :

  Crystal family                   :  Cubic       
  Crystal class  (Groth - 1921)    :  Cubic Hexakisoctahedral              

  Space group (centrosymmetric)    :  P M 3 M         

  Patterson group                  :  P m -3 m 

  Cartesian lattice vectors (Angstroms) :

        4.504000    0.000000    0.000000
        0.000000    4.504000    0.000000
        0.000000    0.000000    4.504000

  Cell parameters (Angstroms/Degrees):

  a =       4.5040    alpha =  90.0000
  b =       4.5040    beta  =  90.0000
  c =       4.5040    gamma =  90.0000

  Initial cell volume =          91.368216 Angs**3

  Temperature of configuration =   0.00     K 

  Pressure of configuration =         0.000 GPa 

  Fractional coordinates of asymmetric unit :

--------------------------------------------------------------------------------
   No.  Atomic       x           y          z         Charge      Occupancy
        Label      (Frac)      (Frac)     (Frac)        (e)         (Frac)  
--------------------------------------------------------------------------------
      1 O     c    0.000000    0.000000    0.000000     0.18300    1.000000    
      2 Cl    c    0.500000    0.500000    0.500000     1.48500    1.000000    
      3 Na    c    0.500000    0.000000    0.000000     1.00000    1.000000    
      4 O     s    0.000000    0.000000    0.000000    -2.18300    1.000000    
      5 Cl    s    0.500000    0.500000    0.500000    -2.48500    1.000000    
--------------------------------------------------------------------------------


  Constraints : 

--------------------------------------------------------------------------------
  Constraint no.      Unconstrained     Constrained    Coefficient    Offset
                         Variable         Variable
--------------------------------------------------------------------------------
           1              Strain 1        Strain 2       1.00000      0.0000
           2              Strain 1        Strain 3       1.00000      0.0000
--------------------------------------------------------------------------------


********************************************************************************
*  General input information                                                   *
********************************************************************************

  Species output for all configurations : 

--------------------------------------------------------------------------------
  Species    Type    Atomic    Atomic    Charge       Radii (Angs)     Library
                     Number     Mass       (e)     Cova   Ionic  VDW   Symbol
--------------------------------------------------------------------------------
    Na       Core       11      22.99   1.000000   0.970  0.000  2.300          
    O        Core        8      16.00   0.183000   0.730  0.000  1.360          
    O        Shell       8       0.00  -2.183000   0.730  0.000  1.360          
    Cl       Core       17      35.45   1.485000   0.990  0.000  1.650          
    Cl       Shell      17       0.00  -2.485000   0.990  0.000  1.650          
    Mg       Core       12      24.31   0.415000   1.100  0.000  0.000          
    Mg       Shell      12       0.00   1.585000   1.100  0.000  0.000          
    Ca       Core       20      40.08  -1.135000   0.990  0.000  0.000          
    Ca       Shell      20       0.00   3.135000   0.990  0.000  0.000          
    Sr       Core       38      87.62  -1.251000   1.120  0.000  0.000          
    Sr       Shell      38       0.00   3.251000   1.120  0.000  0.000          
    Ba       Core       56     137.33  -7.203000   1.340  0.000  0.000          
    Ba       Shell      56       0.00   9.203000   1.340  0.000  0.000          
--------------------------------------------------------------------------------


  Lattice summation method               =    Ewald          (3-D)
                                         =    Parry          (2-D)
                                         =    Saunders et al (1-D)
  Accuracy factor for lattice sums       =   12.000


  Analytic derivatives to be used

  Time limit = Infinity

  Maximum range for interatomic potentials =    100000.000000 Angstroms

  General interatomic potentials :

--------------------------------------------------------------------------------
Atom  Types   Potential      Parameter       Value         Units   Cutoffs(Ang)
  1     2                                                            Min /  Max 
--------------------------------------------------------------------------------
O    c O    s Spring (c-s)  Spring k 2       593.71600    eV*Ang^-2 0.000  0.800
                            Spring k 4       0.0000000    eV*Ang^-4 
--------------------------------------------------------------------------------
Cl   c Cl   s Spring (c-s)  Spring k 2       29.380000    eV*Ang^-2 0.000  0.800
                            Spring k 4       0.0000000    eV*Ang^-4 
--------------------------------------------------------------------------------
Mg   c Mg   s Spring (c-s)  Spring k 2       361.60000    eV*Ang^-2 0.000  0.800
                            Spring k 4       0.0000000    eV*Ang^-4 
--------------------------------------------------------------------------------
Ca   c Ca   s Spring (c-s)  Spring k 2       110.20000    eV*Ang^-2 0.000  0.800
                            Spring k 4       0.0000000    eV*Ang^-4 
--------------------------------------------------------------------------------
Sr   c Sr   s Spring (c-s)  Spring k 2       71.700000    eV*Ang^-2 0.000  0.800
                            Spring k 4       0.0000000    eV*Ang^-4 
--------------------------------------------------------------------------------
Ba   c Ba   s Spring (c-s)  Spring k 2       495.20000    eV*Ang^-2 0.000  0.800
                            Spring k 4       0.0000000    eV*Ang^-4 
--------------------------------------------------------------------------------
Na   c Na   c Buckingham    Buckingham A     1788.1900    eV        0.000 12.000
                            Buckingham rho  0.15900000    Ang       
                            Buckingham C     0.0000000    eV*Ang^6  
--------------------------------------------------------------------------------
Na   c O    s Buckingham    Buckingham A     588.38000    eV        0.000 12.000
                            Buckingham rho  0.33800000    Ang       
                            Buckingham C     0.0000000    eV*Ang^6  
--------------------------------------------------------------------------------
Na   c Cl   s Buckingham    Buckingham A     1170.4100    eV        0.000 12.000
                            Buckingham rho  0.31500000    Ang       
                            Buckingham C     0.0000000    eV*Ang^6  
--------------------------------------------------------------------------------
O    s O    s Buckingham    Buckingham A     22764.300    eV        0.000 12.000
                            Buckingham rho  0.14900000    Ang       
                            Buckingham C     13.190000    eV*Ang^6  
--------------------------------------------------------------------------------
O    s Cl   s Buckingham    Buckingham A     8286.9100    eV        0.000 12.000
                            Buckingham rho  0.25900000    Ang       
                            Buckingham C     62.200000    eV*Ang^6  
--------------------------------------------------------------------------------
Cl   s Cl   s Buckingham    Buckingham A     1227.2000    eV        0.000 12.000
                            Buckingham rho  0.32100000    Ang       
                            Buckingham C     14.530000    eV*Ang^6  
--------------------------------------------------------------------------------
O    s Mg   s Buckingham    Buckingham A     1428.5000    eV        0.000 12.000
                            Buckingham rho  0.29450000    Ang       
                            Buckingham C     0.0000000    eV*Ang^6  
--------------------------------------------------------------------------------
Mg   s Cl   s Buckingham    Buckingham A     4914.5400    eV        0.000 12.000
                            Buckingham rho  0.25700000    Ang       
                            Buckingham C     0.0000000    eV*Ang^6  
--------------------------------------------------------------------------------
O    s Ca   s Buckingham    Buckingham A     1090.4000    eV        0.000 12.000
                            Buckingham rho  0.34370000    Ang       
                            Buckingham C     0.0000000    eV*Ang^6  
--------------------------------------------------------------------------------
Cl   s Ca   s Buckingham    Buckingham A     2302.0000    eV        0.000 12.000
                            Buckingham rho  0.34020000    Ang       
                            Buckingham C     0.0000000    eV*Ang^6  
--------------------------------------------------------------------------------
O    s Sr   s Buckingham    Buckingham A     959.10000    eV        0.000 12.000
                            Buckingham rho  0.37210000    Ang       
                            Buckingham C     0.0000000    eV*Ang^6  
--------------------------------------------------------------------------------
Cl   s Sr   s Buckingham    Buckingham A     2191.0900    eV        0.000 12.000
                            Buckingham rho  0.34570000    Ang       
                            Buckingham C     0.0000000    eV*Ang^6  
--------------------------------------------------------------------------------
O    s Ba   s Buckingham    Buckingham A     905.70000    eV        0.000 12.000
                            Buckingham rho  0.39760000    Ang       
                            Buckingham C     0.0000000    eV*Ang^6  
--------------------------------------------------------------------------------
Cl   s Ba   s Buckingham    Buckingham A     2704.5500    eV        0.000 12.000
                            Buckingham rho  0.35280000    Ang       
                            Buckingham C     0.0000000    eV*Ang^6  
--------------------------------------------------------------------------------

********************************************************************************
*  Output for configuration   1                                                *
********************************************************************************


  Components of energy : 

--------------------------------------------------------------------------------
  Interatomic potentials     =           4.94315381 eV    
  Monopole - monopole (real) =         -10.03624526 eV    
  Monopole - monopole (recip)=         -29.53581274 eV    
  Monopole - monopole (total)=         -39.57205800 eV    
--------------------------------------------------------------------------------
  Total lattice energy       =         -34.62890419 eV    
--------------------------------------------------------------------------------
  Total lattice energy       =           -3341.1599 kJ/(mole unit cells)
--------------------------------------------------------------------------------


  Number of variables =        1

  Maximum number of calculations  =          1000
  Maximum Hessian update interval =            10
  Maximum step size               =   1.000000000
  Maximum parameter tolerance     =   0.000010000
  Maximum function  tolerance     =   0.000010000
  Maximum gradient  tolerance     =   0.001000000
  Maximum gradient  component     =   0.010000000

  Symmetry constrained optimisation

  Symmetry used for second derivatives

  Cell parameters to be optimised using strains

  Newton-Raphson optimiser to be used

  BFGS hessian update to be used

  Lower half triangular hessian to be used

  Start of bulk optimisation :

  Cycle:      0 Energy:       -34.628904  Gnorm:      4.328237  CPU:    0.008
  ** Hessian calculated **
  Cycle:      1 Energy:       -34.677667  Gnorm:      0.044008  CPU:    0.011
  Cycle:      2 Energy:       -34.677671  Gnorm:      0.003653  CPU:    0.012


  **** Optimisation achieved ****


  Final energy =     -34.67767136 eV
  Final Gnorm  =       0.00000010

  Components of energy : 

--------------------------------------------------------------------------------
  Interatomic potentials     =           5.77546103 eV    
  Monopole - monopole (real) =         -10.25970290 eV    
  Monopole - monopole (recip)=         -30.19342950 eV    
  Monopole - monopole (total)=         -40.45313239 eV    
--------------------------------------------------------------------------------
  Total lattice energy       =         -34.67767136 eV    
--------------------------------------------------------------------------------
  Total lattice energy       =           -3345.8652 kJ/(mole unit cells)
--------------------------------------------------------------------------------

  Final asymmetric unit coordinates :

--------------------------------------------------------------------------------
   No.  Atomic        x           y           z         Radius
        Label       (Frac)      (Frac)      (Frac)       (Angs) 
--------------------------------------------------------------------------------
     1  O     c     0.000000    0.000000    0.000000    0.000000
     2  Cl    c     0.500000    0.500000    0.500000    0.000000
     3  Na    c     0.500000    0.000000    0.000000    0.000000
     4  O     s     0.000000    0.000000    0.000000    0.000000
     5  Cl    s     0.500000    0.500000    0.500000    0.000000
--------------------------------------------------------------------------------

  Final Cartesian lattice vectors (Angstroms) :

        4.405902    0.000000    0.000000
        0.000000    4.405902    0.000000
        0.000000    0.000000    4.405902


  Final cell parameters and derivatives :

--------------------------------------------------------------------------------
       a            4.405902 Angstrom     dE/de1(xx)     0.000000 eV/strain
       b            4.405902 Angstrom     dE/de2(yy)     0.000000 eV/strain
       c            4.405902 Angstrom     dE/de3(zz)     0.000000 eV/strain
       alpha       90.000000 Degrees      dE/de4(yz)     0.000000 eV/strain
       beta        90.000000 Degrees      dE/de5(xz)     0.000000 eV/strain
       gamma       90.000000 Degrees      dE/de6(xy)     0.000000 eV/strain
--------------------------------------------------------------------------------

  Primitive cell volume =            85.527266 Angs**3

  Density of cell =      2.338030 g/cm**3

  Non-primitive cell volume =            85.527266 Angs**3


  Final internal derivatives :

--------------------------------------------------------------------------------
   No.  Atomic          a             b             c           Radius
        Label          (eV)          (eV)          (eV)        (eV/Angs)
--------------------------------------------------------------------------------
      1 O     c       0.000000      0.000000      0.000000      0.000000
      2 Cl    c       0.000000      0.000000      0.000000      0.000000
      3 Na    c       0.000000      0.000000      0.000000      0.000000
      4 O     s       0.000000      0.000000      0.000000      0.000000
      5 Cl    s       0.000000      0.000000      0.000000      0.000000
--------------------------------------------------------------------------------
  Maximum abs         0.000000      0.000000      0.000000      0.000000
--------------------------------------------------------------------------------

  Comparison of initial and final structures : 

--------------------------------------------------------------------------------
  Parameter   Initial value   Final value   Difference    Units      Percent
--------------------------------------------------------------------------------
    Volume        91.368216     85.527266    -5.840950    Angs**3     -6.39
    a              4.504000      4.405902    -0.098098    Angstroms   -2.18
    b              4.504000      4.405902    -0.098098    Angstroms   -2.18
    c              4.504000      4.405902    -0.098098    Angstroms   -2.18
    alpha         90.000000     90.000000     0.000000    Degrees      0.00
    beta          90.000000     90.000000     0.000000    Degrees      0.00
    gamma         90.000000     90.000000     0.000000    Degrees      0.00
      1 x          0.000000      0.000000     0.000000    Fractional   0.00
      1 y          0.000000      0.000000     0.000000    Fractional   0.00
      1 z          0.000000      0.000000     0.000000    Fractional   0.00
      2 x          0.500000      0.500000     0.000000    Fractional   0.00
      2 y          0.500000      0.500000     0.000000    Fractional   0.00
      2 z          0.500000      0.500000     0.000000    Fractional   0.00
      3 x          0.500000      0.500000     0.000000    Fractional   0.00
      3 y          0.000000      0.000000     0.000000    Fractional   0.00
      3 z          0.000000      0.000000     0.000000    Fractional   0.00
      4 x          0.000000      0.000000     0.000000    Fractional   0.00
      4 y          0.000000      0.000000     0.000000    Fractional   0.00
      4 z          0.000000      0.000000     0.000000    Fractional   0.00
      5 x          0.500000      0.500000     0.000000    Fractional   0.00
      5 y          0.500000      0.500000     0.000000    Fractional   0.00
      5 z          0.500000      0.500000     0.000000    Fractional   0.00
--------------------------------------------------------------------------------


  Born effective charge tensors : 

-------------------------------------------------------------------------------
  Atom             x           y             z
-------------------------------------------------------------------------------
    1 O     x      -2.2939      0.0000      0.0000
            y       0.0000     -2.2939      0.0000
            z       0.0000      0.0000     -2.2939
-------------------------------------------------------------------------------
    2 Cl    x      -0.9918     -0.0000      0.0000
            y      -0.0000     -0.9918      0.0000
            z       0.0000      0.0000     -0.9918
-------------------------------------------------------------------------------
    3 Na    x       0.8372     -0.0000     -0.0000
            y      -0.0000      1.2243     -0.0000
            z       0.0000     -0.0000      1.2243
-------------------------------------------------------------------------------




  Elastic Constant Matrix: (Units=GPa)

-------------------------------------------------------------------------------
  Indices      1         2         3         4         5         6    
-------------------------------------------------------------------------------
       1     82.7680   24.3534   24.3534   -0.0000    0.0000   -0.0000
       2     24.3534   82.7680   24.3534   -0.0000   -0.0000   -0.0000
       3     24.3534   24.3534   82.7680    0.0000   -0.0000    0.0000
       4     -0.0000   -0.0000    0.0000   24.3534   -0.0000   -0.0000
       5      0.0000   -0.0000   -0.0000   -0.0000   24.3534   -0.0000
       6     -0.0000   -0.0000    0.0000   -0.0000   -0.0000   24.3534
-------------------------------------------------------------------------------


  Elastic Compliance Matrix: (Units=1/GPa)

-------------------------------------------------------------------------------
  Indices      1         2         3         4         5         6    
-------------------------------------------------------------------------------
       1    0.013948 -0.003171 -0.003171 -0.000000 -0.000000  0.000000
       2   -0.003171  0.013948 -0.003171  0.000000 -0.000000  0.000000
       3   -0.003171 -0.003171  0.013948 -0.000000  0.000000 -0.000000
       4   -0.000000  0.000000 -0.000000  0.041062  0.000000  0.000000
       5   -0.000000 -0.000000  0.000000  0.000000  0.041062  0.000000
       6    0.000000  0.000000 -0.000000  0.000000  0.000000  0.041062
-------------------------------------------------------------------------------

  Mechanical properties :

-------------------------------------------------------------------------------
  Convention :                    Reuss         Voigt         Hill
-------------------------------------------------------------------------------
  Bulk  Modulus (GPa)     =      43.82493      43.82493      43.82493
  Shear Modulus (GPa)     =      26.08758      26.29496      26.19127
-------------------------------------------------------------------------------
  Velocity S-wave (km/s)  =       3.34035       3.35360       3.34698
  Velocity P-wave (km/s)  =       5.79842       5.80861       5.80351
-------------------------------------------------------------------------------
  Compressibility (1/GPa) =    0.02281806
-------------------------------------------------------------------------------
  Stress axis :                     x             y             z
-------------------------------------------------------------------------------
  Youngs Moduli (GPa)     =      71.69479      71.69479      71.69479
-------------------------------------------------------------------------------
  Poissons Ratio (x)      =                     0.22734       0.22734
  Poissons Ratio (y)      =       0.22734                     0.22734
  Poissons Ratio (z)      =       0.22734       0.22734
-------------------------------------------------------------------------------


  Piezoelectric Strain Matrix: (Units=C/m**2)

-------------------------------------------------------------------------------
  Indices      1         2         3         4         5         6    
-------------------------------------------------------------------------------
       x    -0.00000  -0.00000  -0.00000  -0.00000   0.00000   0.00000
       y    -0.00000   0.00000  -0.00000   0.00000  -0.00000   0.00000
       z     0.00000   0.00000   0.00000  -0.00000   0.00000  -0.00000
-------------------------------------------------------------------------------


  Piezoelectric Stress Matrix: (Units=10**-11 C/N)

-------------------------------------------------------------------------------
  Indices      1         2         3         4         5         6    
-------------------------------------------------------------------------------
       x    -0.00000  -0.00000  -0.00000  -0.00000   0.00000   0.00000
       y    -0.00000   0.00000  -0.00000   0.00000  -0.00000   0.00000
       z     0.00000   0.00000  -0.00000  -0.00000   0.00000  -0.00000
-------------------------------------------------------------------------------


  Static dielectric constant tensor : 

-------------------------------------------------------------------------------
              x         y         z
-------------------------------------------------------------------------------
       x    11.08357  -0.00000  -0.00000
       y    -0.00000  11.08357  -0.00000
       z    -0.00000  -0.00000  11.08357
--------------------------------------------------------------------------------

  High frequency dielectric constant tensor : 

-------------------------------------------------------------------------------
              x         y         z
-------------------------------------------------------------------------------
       x     1.50771  -0.00000  -0.00000
       y    -0.00000   1.50771  -0.00000
       z    -0.00000  -0.00000   1.50771
-------------------------------------------------------------------------------

  Static refractive indices : 

-------------------------------------------------------------------------------
    1 =    3.32920      2 =    3.32920      3 =    3.32920
-------------------------------------------------------------------------------

  High frequency refractive indices : 

-------------------------------------------------------------------------------
    1 =    1.22789      2 =    1.22789      3 =    1.22789
-------------------------------------------------------------------------------


  Time to end of optimisation =       0.0174 seconds

********************************************************************************
*  Defect calculation for configuration   1 :                                  *
********************************************************************************

  Total number of defects =      3

  Total charge on defect  =   2.00

  Defect centre is at   2.2520   2.2520   0.0000  Angs

  Region 1 radius =  12.0000      Number of ions =    622

  Number of symmetry inequivalent region 1 ions  =    201

  Region 2 radius =  16.0000      Number of ions =    762

  Number of symmetry inequivalent region 2a ions =    224

  Region 2a mode = 4 : screened electrostatics due to region 1 
                       neglect correction to region 1 forces from 2a
                       region 2a displacements based on defects only

  Region 2a ions will only interact with defects in region 1

  Vacancies:

--------------------------------------------------------------------------------
    Specification type     Symbol/Number         x          y          z
--------------------------------------------------------------------------------
    Cartesian                                0.000000   0.000000   0.000000
    Cartesian                                4.504000   4.504000   0.000000
--------------------------------------------------------------------------------

  Interstitials:

--------------------------------------------------------------------------------
    Specification type     Symbol/Number         x          y          z
--------------------------------------------------------------------------------
    Atom/Cartesian          O                0.000000   0.000000   0.000000
--------------------------------------------------------------------------------


  Symmetry reduced region 1 (Relative to defect centre) :

--------------------------------------------------------------------------------
   No.   Atomic       x            y             z       Radius  Multiplicity   
         Label      (Angs)       (Angs)        (Angs)    (Angs)     
--------------------------------------------------------------------------------
     1  Na    c     -0.0490 *     2.1539 *     0.0000    0.0000     2          
     2  Cl    c     -0.0490 *    -0.0490      -2.2030 *  0.0000     2          
     3  Na    c     -0.0490 *    -2.2520 *     0.0000    0.0000     2          
     4  O     c      2.1539 *    -2.2520 *     0.0000    0.0000     2          
     5  O     c     -2.2520      -2.2520       0.0000    0.0000     1          
     6  Na    c      2.1539 *     2.1539      -2.2030 *  0.0000     2          
     7  Na    c      2.1539 *    -2.2520 *    -2.2030 *  0.0000     4          
     8  Na    c     -2.2520 *    -2.2520      -2.2030 *  0.0000     2          
     9  Na    c      4.3569 *     2.1539 *     0.0000    0.0000     2          
    10  Cl    c     -0.0490 *     4.3569 *    -2.2030 *  0.0000     4          
    11  Na    c     -0.0490 *     2.1539 *     4.4059 *  0.0000     4          
    12  Na    c      4.3569 *    -2.2520 *     0.0000    0.0000     2          
    13  Na    c     -0.0490 *    -2.2520 *     4.4059 *  0.0000     4          
    14  Na    c     -4.4550 *     2.1539 *     0.0000    0.0000     2          
    15  Cl    c     -0.0490 *    -4.4550 *    -2.2030 *  0.0000     4          
    16  Na    c     -4.4550 *    -2.2520 *     0.0000    0.0000     2          
    17  O     c      2.1539 *     2.1539       4.4059 *  0.0000     2          
    18  O     c      2.1539 *    -2.2520 *     4.4059 *  0.0000     4          
    19  O     c     -2.2520 *    -2.2520       4.4059 *  0.0000     2          
    20  Cl    c      4.3569 *     4.3569      -2.2030 *  0.0000     2          
    21  Na    c     -0.0490 *     6.5598 *     0.0000    0.0000     2          
    22  Na    c      4.3569 *     2.1539 *     4.4059 *  0.0000     4          
    23  Na    c      4.3569 *    -2.2520 *     4.4059 *  0.0000     4          
    24  Cl    c     -0.0490 *    -0.0490       6.6089 *  0.0000     2          
    25  Cl    c      4.3569 *    -4.4550 *    -2.2030 *  0.0000     4          
    26  Na    c     -4.4550 *     2.1539 *     4.4059 *  0.0000     4          
    27  Na    c     -0.0490 *    -6.6579 *     0.0000    0.0000     2          
    28  Na    c     -4.4550 *    -2.2520 *     4.4059 *  0.0000     4          
    29  Cl    c     -4.4550 *    -4.4550      -2.2030 *  0.0000     2          
    30  O     c      2.1539 *     6.5598 *     0.0000    0.0000     2          
    31  O     c      6.5598 *    -2.2520 *     0.0000    0.0000     2          
    32  O     c      2.1539 *    -6.6579 *     0.0000    0.0000     2          
    33  O     c     -2.2520 *    -6.6579 *     0.0000    0.0000     2          
    34  Na    c      2.1539 *     6.5598 *    -2.2030 *  0.0000     4          
    35  Na    c      2.1539 *     2.1539       6.6089 *  0.0000     2          
    36  Na    c      6.5598 *    -2.2520 *    -2.2030 *  0.0000     4          
    37  Na    c      2.1539 *    -2.2520 *     6.6089 *  0.0000     4          
    38  Na    c      2.1539 *    -6.6579 *    -2.2030 *  0.0000     4          
    39  Na    c     -2.2520 *    -2.2520       6.6089 *  0.0000     2          
    40  Na    c     -2.2520 *    -6.6579 *    -2.2030 *  0.0000     4          
    41  Na    c      4.3569 *     6.5598 *     0.0000    0.0000     2          
    42  Na    c     -0.0490 *     6.5598 *     4.4059 *  0.0000     4          
    43  Cl    c     -0.0490 *     4.3569 *     6.6089 *  0.0000     4          
    44  Na    c     -4.4550 *     6.5598 *     0.0000    0.0000     2          
    45  Na    c      4.3569 *    -6.6579 *     0.0000    0.0000     2          
    46  Cl    c     -0.0490 *    -4.4550 *     6.6089 *  0.0000     4          
    47  Na    c     -0.0490 *    -6.6579 *     4.4059 *  0.0000     4          
    48  Na    c     -4.4550 *    -6.6579 *     0.0000    0.0000     2          
    49  O     c      2.1539 *     6.5598 *     4.4059 *  0.0000     4          
    50  O     c      6.5598 *    -2.2520 *     4.4059 *  0.0000     4          
    51  O     c      2.1539 *    -6.6579 *     4.4059 *  0.0000     4          
    52  O     c     -2.2520 *    -6.6579 *     4.4059 *  0.0000     4          
    53  Na    c      4.3569 *     6.5598 *     4.4059 *  0.0000     4          
    54  Na    c      8.7628 *     2.1539 *     0.0000    0.0000     2          
    55  Cl    c     -0.0490 *     8.7628 *    -2.2030 *  0.0000     4          
    56  Cl    c      4.3569 *     4.3569       6.6089 *  0.0000     2          
    57  Na    c      8.7628 *    -2.2520 *     0.0000    0.0000     2          
    58  Na    c     -0.0490 *     2.1539 *     8.8118 *  0.0000     4          
    59  Na    c     -4.4550 *     6.5598 *     4.4059 *  0.0000     4          
    60  Cl    c      4.3569 *    -4.4550 *     6.6089 *  0.0000     4          
    61  Na    c     -0.0490 *    -2.2520 *     8.8118 *  0.0000     4          
    62  Na    c      4.3569 *    -6.6579 *     4.4059 *  0.0000     4          
    63  Na    c     -8.8609 *     2.1539 *     0.0000    0.0000     2          
    64  Cl    c     -0.0490 *    -8.8609 *    -2.2030 *  0.0000     4          
    65  Cl    c     -4.4550 *    -4.4550       6.6089 *  0.0000     2          
    66  Na    c     -8.8609 *    -2.2520 *     0.0000    0.0000     2          
    67  Na    c     -4.4550 *    -6.6579 *     4.4059 *  0.0000     4          
    68  O     c      6.5598 *     6.5598       0.0000    0.0000     1          
    69  O     c      2.1539 *     2.1539       8.8118 *  0.0000     2          
    70  O     c      2.1539 *    -2.2520 *     8.8118 *  0.0000     4          
    71  O     c      6.5598 *    -6.6579 *     0.0000    0.0000     2          
    72  O     c     -2.2520 *    -2.2520       8.8118 *  0.0000     2          
    73  O     c     -6.6579 *    -6.6579       0.0000    0.0000     1          
    74  Na    c      6.5598 *     6.5598      -2.2030 *  0.0000     2          
    75  Na    c      2.1539 *     6.5598 *     6.6089 *  0.0000     4          
    76  Na    c      6.5598 *    -2.2520 *     6.6089 *  0.0000     4          
    77  Na    c      6.5598 *    -6.6579 *    -2.2030 *  0.0000     4          
    78  Na    c      2.1539 *    -6.6579 *     6.6089 *  0.0000     4          
    79  Na    c     -2.2520 *    -6.6579 *     6.6089 *  0.0000     4          
    80  Na    c     -6.6579 *    -6.6579      -2.2030 *  0.0000     2          
    81  Cl    c      4.3569 *     8.7628 *    -2.2030 *  0.0000     4          
    82  Na    c      8.7628 *     2.1539 *     4.4059 *  0.0000     4          
    83  Na    c      4.3569 *     2.1539 *     8.8118 *  0.0000     4          
    84  Na    c      8.7628 *    -2.2520 *     4.4059 *  0.0000     4          
    85  Cl    c      8.7628 *    -4.4550 *    -2.2030 *  0.0000     4          
    86  Na    c      4.3569 *    -2.2520 *     8.8118 *  0.0000     4          
    87  Na    c     -4.4550 *     2.1539 *     8.8118 *  0.0000     4          
    88  Cl    c      4.3569 *    -8.8609 *    -2.2030 *  0.0000     4          
    89  Na    c     -8.8609 *     2.1539 *     4.4059 *  0.0000     4          
    90  Na    c     -4.4550 *    -2.2520 *     8.8118 *  0.0000     4          
    91  Na    c     -8.8609 *    -2.2520 *     4.4059 *  0.0000     4          
    92  Cl    c     -4.4550 *    -8.8609 *    -2.2030 *  0.0000     4          
    93  O     c      6.5598 *     6.5598       4.4059 *  0.0000     2          
    94  O     c      6.5598 *    -6.6579 *     4.4059 *  0.0000     4          
    95  O     c     -6.6579 *    -6.6579       4.4059 *  0.0000     2          
    96  Na    c      8.7628 *     6.5598 *     0.0000    0.0000     2          
    97  Na    c     -0.0490 *    10.9657 *     0.0000    0.0000     2          
    98  Cl    c     -0.0490 *     8.7628 *     6.6089 *  0.0000     4          
    99  Na    c     -0.0490 *     6.5598 *     8.8118 *  0.0000     4          
   100  Na    c      8.7628 *    -6.6579 *     0.0000    0.0000     2          
   101  Cl    c     -0.0490 *    -0.0490      11.0148 *  0.0000     2          
   102  Na    c     -8.8609 *     6.5598 *     0.0000    0.0000     2          
   103  Na    c     -0.0490 *    -6.6579 *     8.8118 *  0.0000     4          
   104  Cl    c     -0.0490 *    -8.8609 *     6.6089 *  0.0000     4          
   105  Na    c     -0.0490 *   -11.0638 *     0.0000    0.0000     2          
   106  Na    c     -8.8609 *    -6.6579 *     0.0000    0.0000     2          
   107  O     c      2.1539 *    10.9657 *     0.0000    0.0000     2          
   108  O     c      2.1539 *     6.5598 *     8.8118 *  0.0000     4          
   109  O     c     10.9657 *    -2.2520 *     0.0000    0.0000     2          
   110  O     c      6.5598 *    -2.2520 *     8.8118 *  0.0000     4          
   111  O     c      2.1539 *    -6.6579 *     8.8118 *  0.0000     4          
   112  O     c      2.1539 *   -11.0638 *     0.0000    0.0000     2          
   113  O     c     -2.2520 *    -6.6579 *     8.8118 *  0.0000     4          
   114  O     c     -2.2520 *   -11.0638 *     0.0000    0.0000     2          
   115  Na    c      6.5598 *     6.5598       6.6089 *  0.0000     2          
   116  Na    c      2.1539 *    10.9657 *    -2.2030 *  0.0000     4          
   117  Na    c     10.9657 *    -2.2520 *    -2.2030 *  0.0000     4          
   118  Na    c      2.1539 *     2.1539      11.0148 *  0.0000     2          
   119  Na    c      2.1539 *    -2.2520 *    11.0148 *  0.0000     4          
   120  Na    c      6.5598 *    -6.6579 *     6.6089 *  0.0000     4          
   121  Na    c     -2.2520 *    -2.2520      11.0148 *  0.0000     2          
   122  Na    c      2.1539 *   -11.0638 *    -2.2030 *  0.0000     4          
   123  Na    c     -2.2520 *   -11.0638 *    -2.2030 *  0.0000     4          
   124  Na    c     -6.6579 *    -6.6579       6.6089 *  0.0000     2          
   125  Na    c      4.3569 *    10.9657 *     0.0000    0.0000     2          
   126  Na    c      8.7628 *     6.5598 *     4.4059 *  0.0000     4          
   127  Cl    c      4.3569 *     8.7628 *     6.6089 *  0.0000     4          
   128  Na    c     -0.0490 *    10.9657 *     4.4059 *  0.0000     4          
   129  Na    c      4.3569 *     6.5598 *     8.8118 *  0.0000     4          
   130  Na    c     -4.4550 *    10.9657 *     0.0000    0.0000     2          
   131  Cl    c     -0.0490 *     4.3569 *    11.0148 *  0.0000     4          
   132  Cl    c      8.7628 *    -4.4550 *     6.6089 *  0.0000     4          
   133  Na    c     -4.4550 *     6.5598 *     8.8118 *  0.0000     4          
   134  Na    c      8.7628 *    -6.6579 *     4.4059 *  0.0000     4          
   135  Na    c      4.3569 *    -6.6579 *     8.8118 *  0.0000     4          
   136  Na    c     -8.8609 *     6.5598 *     4.4059 *  0.0000     4          
   137  Cl    c     -0.0490 *    -4.4550 *    11.0148 *  0.0000     4          
   138  Cl    c      4.3569 *    -8.8609 *     6.6089 *  0.0000     4          
   139  Na    c      4.3569 *   -11.0638 *     0.0000    0.0000     2          
   140  Na    c     -0.0490 *   -11.0638 *     4.4059 *  0.0000     4          
   141  Na    c     -4.4550 *    -6.6579 *     8.8118 *  0.0000     4          
   142  Cl    c     -4.4550 *    -8.8609 *     6.6089 *  0.0000     4          
   143  Na    c     -4.4550 *   -11.0638 *     0.0000    0.0000     2          
   144  Na    c     -8.8609 *    -6.6579 *     4.4059 *  0.0000     4          
   145  Cl    s     -0.0490 *    -0.0490      -2.2030 *  0.0000     2          
   146  O     s      2.1539 *    -2.2520 *     0.0000    0.0000     2          
   147  O     s     -2.2520      -2.2520       0.0000    0.0000     1          
   148  Cl    s     -0.0490 *     4.3569 *    -2.2030 *  0.0000     4          
   149  Cl    s     -0.0490 *    -4.4550 *    -2.2030 *  0.0000     4          
   150  O     s      2.1539 *     2.1539       4.4059 *  0.0000     2          
   151  O     s      2.1539 *    -2.2520 *     4.4059 *  0.0000     4          
   152  O     s     -2.2520 *    -2.2520       4.4059 *  0.0000     2          
   153  Cl    s      4.3569 *     4.3569      -2.2030 *  0.0000     2          
   154  Cl    s     -0.0490 *    -0.0490       6.6089 *  0.0000     2          
   155  Cl    s      4.3569 *    -4.4550 *    -2.2030 *  0.0000     4          
   156  Cl    s     -4.4550 *    -4.4550      -2.2030 *  0.0000     2          
   157  O     s      2.1539 *     6.5598 *     0.0000    0.0000     2          
   158  O     s      6.5598 *    -2.2520 *     0.0000    0.0000     2          
   159  O     s      2.1539 *    -6.6579 *     0.0000    0.0000     2          
   160  O     s     -2.2520 *    -6.6579 *     0.0000    0.0000     2          
   161  Cl    s     -0.0490 *     4.3569 *     6.6089 *  0.0000     4          
   162  Cl    s     -0.0490 *    -4.4550 *     6.6089 *  0.0000     4          
   163  O     s      2.1539 *     6.5598 *     4.4059 *  0.0000     4          
   164  O     s      6.5598 *    -2.2520 *     4.4059 *  0.0000     4          
   165  O     s      2.1539 *    -6.6579 *     4.4059 *  0.0000     4          
   166  O     s     -2.2520 *    -6.6579 *     4.4059 *  0.0000     4          
   167  Cl    s     -0.0490 *     8.7628 *    -2.2030 *  0.0000     4          
   168  Cl    s      4.3569 *     4.3569       6.6089 *  0.0000     2          
   169  Cl    s      4.3569 *    -4.4550 *     6.6089 *  0.0000     4          
   170  Cl    s     -0.0490 *    -8.8609 *    -2.2030 *  0.0000     4          
   171  Cl    s     -4.4550 *    -4.4550       6.6089 *  0.0000     2          
   172  O     s      6.5598 *     6.5598       0.0000    0.0000     1          
   173  O     s      2.1539 *     2.1539       8.8118 *  0.0000     2          
   174  O     s      2.1539 *    -2.2520 *     8.8118 *  0.0000     4          
   175  O     s      6.5598 *    -6.6579 *     0.0000    0.0000     2          
   176  O     s     -2.2520 *    -2.2520       8.8118 *  0.0000     2          
   177  O     s     -6.6579 *    -6.6579       0.0000    0.0000     1          
   178  Cl    s      4.3569 *     8.7628 *    -2.2030 *  0.0000     4          
   179  Cl    s      8.7628 *    -4.4550 *    -2.2030 *  0.0000     4          
   180  Cl    s      4.3569 *    -8.8609 *    -2.2030 *  0.0000     4          
   181  Cl    s     -4.4550 *    -8.8609 *    -2.2030 *  0.0000     4          
   182  O     s      6.5598 *     6.5598       4.4059 *  0.0000     2          
   183  O     s      6.5598 *    -6.6579 *     4.4059 *  0.0000     4          
   184  O     s     -6.6579 *    -6.6579       4.4059 *  0.0000     2          
   185  Cl    s     -0.0490 *     8.7628 *     6.6089 *  0.0000     4          
   186  Cl    s     -0.0490 *    -0.0490      11.0148 *  0.0000     2          
   187  Cl    s     -0.0490 *    -8.8609 *     6.6089 *  0.0000     4          
   188  O     s      2.1539 *    10.9657 *     0.0000    0.0000     2          
   189  O     s      2.1539 *     6.5598 *     8.8118 *  0.0000     4          
   190  O     s     10.9657 *    -2.2520 *     0.0000    0.0000     2          
   191  O     s      6.5598 *    -2.2520 *     8.8118 *  0.0000     4          
   192  O     s      2.1539 *    -6.6579 *     8.8118 *  0.0000     4          
   193  O     s      2.1539 *   -11.0638 *     0.0000    0.0000     2          
   194  O     s     -2.2520 *    -6.6579 *     8.8118 *  0.0000     4          
   195  O     s     -2.2520 *   -11.0638 *     0.0000    0.0000     2          
   196  Cl    s      4.3569 *     8.7628 *     6.6089 *  0.0000     4          
   197  Cl    s     -0.0490 *     4.3569 *    11.0148 *  0.0000     4          
   198  Cl    s      8.7628 *    -4.4550 *     6.6089 *  0.0000     4          
   199  Cl    s     -0.0490 *    -4.4550 *    11.0148 *  0.0000     4          
   200  Cl    s      4.3569 *    -8.8609 *     6.6089 *  0.0000     4          
   201  Cl    s     -4.4550 *    -8.8609 *     6.6089 *  0.0000     4          
--------------------------------------------------------------------------------


  Constraints on symmetry reduced coordinates :

--------------------------------------------------------------------------------
  Constraint no.      Unconstrained     Constrained    Coefficient    
                         Variable         Variable
--------------------------------------------------------------------------------
           1                 2 x             2 y         1.00000
           2                 6 x             6 y         1.00000
           3                 8 x             8 y         1.00000
           4                17 x            17 y         1.00000
           5                19 x            19 y         1.00000
           6                20 x            20 y         1.00000
           7                24 x            24 y         1.00000
           8                29 x            29 y         1.00000
           9                35 x            35 y         1.00000
          10                39 x            39 y         1.00000
          11                56 x            56 y         1.00000
          12                65 x            65 y         1.00000
          13                68 x            68 y         1.00000
          14                69 x            69 y         1.00000
          15                72 x            72 y         1.00000
          16                73 x            73 y         1.00000
          17                74 x            74 y         1.00000
          18                80 x            80 y         1.00000
          19                93 x            93 y         1.00000
          20                95 x            95 y         1.00000
          21               101 x           101 y         1.00000
          22               115 x           115 y         1.00000
          23               118 x           118 y         1.00000
          24               121 x           121 y         1.00000
          25               124 x           124 y         1.00000
          26               145 x           145 y         1.00000
          27               150 x           150 y         1.00000
          28               152 x           152 y         1.00000
          29               153 x           153 y         1.00000
          30               154 x           154 y         1.00000
          31               156 x           156 y         1.00000
          32               168 x           168 y         1.00000
          33               171 x           171 y         1.00000
          34               172 x           172 y         1.00000
          35               173 x           173 y         1.00000
          36               176 x           176 y         1.00000
          37               177 x           177 y         1.00000
          38               182 x           182 y         1.00000
          39               184 x           184 y         1.00000
          40               186 x           186 y         1.00000
--------------------------------------------------------------------------------


  Components of defect energy : 

--------------------------------------------------------------------------------
  Region 1 - region 1                   =     89.49711385 eV
  Region 1 - region 2a (unrelaxed)      =    -54.10347222 eV
  Region 1 - 2a (relaxed - correction)  =     -1.08804975 eV
  Region 1 (Total)                      =     34.30559188 eV
  Region 2a                             =      0.54451909 eV
  Region 2b                             =     -1.68025391 eV
--------------------------------------------------------------------------------
  Total defect energy                   =     33.16985706 eV
--------------------------------------------------------------------------------

  Largest displacement in region 2 =   0.0512 Angstroms


  Number of variables =      507

  Maximum number of calculations  =        1000
  Maximum Hessian update interval =          10
  Maximum step size               =   1.0000000
  Maximum parameter tolerance     =   0.0000100
  Maximum function  tolerance     =   0.0000100
  Maximum gradient  tolerance     =   0.0010000

  Symmetry adapted optimisation

  Symmetry to be used for second derivatives

  Newton-Raphson optimiser to be used

  BFGS hessian update to be used

  Lower half triangular hessian to be used

  Start of defect optimisation :

  Cycle:      0 Defect Energy:  33.169857  Gnorm:     0.087553  CPU:    5.851
  ** Hessian calculated **
  Cycle:      1 Defect Energy:  27.290516  Gnorm:     0.064071  CPU:   13.035
  Cycle:      2 Defect Energy:  22.311633  Gnorm:     0.010609  CPU:   16.526
  ** Hessian calculated **
  Cycle:      3 Defect Energy:  21.907487  Gnorm:     0.000804  CPU:   20.983
  Cycle:      4 Defect Energy:  21.904141  Gnorm:     0.000644  CPU:   21.587
  Cycle:      5 Defect Energy:  21.901006  Gnorm:     0.000460  CPU:   22.181
  Cycle:      6 Defect Energy:  21.899295  Gnorm:     0.000327  CPU:   22.782
  Cycle:      7 Defect Energy:  21.898396  Gnorm:     0.000232  CPU:   23.382
  Cycle:      8 Defect Energy:  21.897935  Gnorm:     0.000164  CPU:   23.943
  Cycle:      9 Defect Energy:  21.897705  Gnorm:     0.000116  CPU:   24.492
  Cycle:     10 Defect Energy:  21.897594  Gnorm:     0.000081  CPU:   25.087
  Cycle:     11 Defect Energy:  21.897541  Gnorm:     0.000057  CPU:   25.843
  Cycle:     12 Defect Energy:  21.897518  Gnorm:     0.000040  CPU:   26.443
  ** Hessian calculated **


  **** Optimisation achieved ****


  Final defect energy  =       21.89750811
  Final defect Gnorm   =        0.00002822

  Components of defect energy : 

--------------------------------------------------------------------------------
  Region 1 - region 1                   =     71.06505274 eV
  Region 1 - region 2a (unrelaxed)      =    -47.13782232 eV
  Region 1 - 2a (relaxed - correction)  =     -0.76536336 eV
  Region 1 (Total)                      =     23.16186707 eV
  Region 2a                             =      0.38207536 eV
  Region 2b                             =     -1.64643432 eV
--------------------------------------------------------------------------------
  Total defect energy                   =     21.89750811 eV
--------------------------------------------------------------------------------

  Largest displacement in region 2 =   0.0512 Angstroms

  Final coordinates of region 1 :

--------------------------------------------------------------------------------
   No.  Atomic        x           y           z          Radius      Charge
        Label       (Angs)      (Angs)      (Angs)       (Angs)       (e) 
--------------------------------------------------------------------------------
     1  Na    c     1.901313    4.409578    0.000000    0.000000    1.000000
     2  Na    c     4.409578    1.901313    0.000000    0.000000    1.000000
     3  Cl    c     2.505458    2.505458   -1.905429    0.000000    1.485000
     4  Cl    c     2.505458    2.505458    1.905429    0.000000    1.485000
     5  Na    c     2.182405   -0.135329    0.000000    0.000000    1.000000
     6  Na    c    -0.135329    2.182405    0.000000    0.000000    1.000000
     7  O     c     4.407524   -0.165130    0.000000    0.000000    0.183000
     8  O     c    -0.165130    4.407524    0.000000    0.000000    0.183000
     9  O     c     0.000000    0.000000    0.000000    0.000000    0.183000
    10  Na    c     4.409206    4.409206   -2.496003    0.000000    1.000000
    11  Na    c     4.409206    4.409206    2.496003    0.000000    1.000000
    12  Na    c     4.402346   -0.149019   -2.222110    0.000000    1.000000
    13  Na    c     4.402346   -0.149019    2.222110    0.000000    1.000000
    14  Na    c    -0.149019    4.402346   -2.222110    0.000000    1.000000
    15  Na    c    -0.149019    4.402346    2.222110    0.000000    1.000000
    16  Na    c    -0.075371   -0.075371   -2.204606    0.000000    1.000000
    17  Na    c    -0.075371   -0.075371    2.204606    0.000000    1.000000
    18  Na    c     6.898808    4.403425    0.000000    0.000000    1.000000
    19  Na    c     4.403425    6.898808    0.000000    0.000000    1.000000
    20  Cl    c     2.502380    6.320004   -1.909207    0.000000    1.485000
    21  Cl    c     2.502380    6.320004    1.909207    0.000000    1.485000
    22  Cl    c     6.320004    2.502380   -1.909207    0.000000    1.485000
    23  Cl    c     6.320004    2.502380    1.909207    0.000000    1.485000
    24  Na    c     2.177888    4.401517    4.524631    0.000000    1.000000
    25  Na    c     2.177888    4.401517   -4.524631    0.000000    1.000000
    26  Na    c     4.401517    2.177888    4.524631    0.000000    1.000000
    27  Na    c     4.401517    2.177888   -4.524631    0.000000    1.000000
    28  Na    c     6.628137   -0.152152    0.000000    0.000000    1.000000
    29  Na    c    -0.152152    6.628137    0.000000    0.000000    1.000000
    30  Na    c     2.197024   -0.081525    4.473749    0.000000    1.000000
    31  Na    c     2.197024   -0.081525   -4.473749    0.000000    1.000000
    32  Na    c    -0.081525    2.197024    4.473749    0.000000    1.000000
    33  Na    c    -0.081525    2.197024   -4.473749    0.000000    1.000000
    34  Na    c    -2.309594    4.390313    0.000000    0.000000    1.000000
    35  Na    c     4.390313   -2.309594    0.000000    0.000000    1.000000
    36  Cl    c     2.192859   -2.170249   -2.214843    0.000000    1.485000
    37  Cl    c     2.192859   -2.170249    2.214843    0.000000    1.485000
    38  Cl    c    -2.170249    2.192859   -2.214843    0.000000    1.485000
    39  Cl    c    -2.170249    2.192859    2.214843    0.000000    1.485000
    40  Na    c    -2.231368   -0.035351    0.000000    0.000000    1.000000
    41  Na    c    -0.035351   -2.231368    0.000000    0.000000    1.000000
    42  O     c     4.403727    4.403727    4.561978    0.000000    0.183000
    43  O     c     4.403727    4.403727   -4.561978    0.000000    0.183000
    44  O     c     4.405245   -0.007365    4.407279    0.000000    0.183000
    45  O     c     4.405245   -0.007365   -4.407279    0.000000    0.183000
    46  O     c    -0.007365    4.405245    4.407279    0.000000    0.183000
    47  O     c    -0.007365    4.405245   -4.407279    0.000000    0.183000
    48  O     c     0.011213    0.011213    4.391254    0.000000    0.183000
    49  O     c     0.011213    0.011213   -4.391254    0.000000    0.183000
    50  Cl    c     6.321979    6.321979   -1.905216    0.000000    1.485000
    51  Cl    c     6.321979    6.321979    1.905216    0.000000    1.485000
    52  Na    c     2.176926    8.942062    0.000000    0.000000    1.000000
    53  Na    c     8.942062    2.176926    0.000000    0.000000    1.000000
    54  Na    c     6.623411    4.403165    4.546236    0.000000    1.000000
    55  Na    c     6.623411    4.403165   -4.546236    0.000000    1.000000
    56  Na    c     4.403165    6.623411    4.546236    0.000000    1.000000
    57  Na    c     4.403165    6.623411   -4.546236    0.000000    1.000000
    58  Na    c     6.608954   -0.084033    4.476783    0.000000    1.000000
    59  Na    c     6.608954   -0.084033   -4.476783    0.000000    1.000000
    60  Na    c    -0.084033    6.608954    4.476783    0.000000    1.000000
    61  Na    c    -0.084033    6.608954   -4.476783    0.000000    1.000000
    62  Cl    c     2.193166    2.193166    6.575345    0.000000    1.485000
    63  Cl    c     2.193166    2.193166   -6.575345    0.000000    1.485000
    64  Cl    c     6.631493   -2.173237   -2.214292    0.000000    1.485000
    65  Cl    c     6.631493   -2.173237    2.214292    0.000000    1.485000
    66  Cl    c    -2.173237    6.631493   -2.214292    0.000000    1.485000
    67  Cl    c    -2.173237    6.631493    2.214292    0.000000    1.485000
    68  Na    c    -2.233503    4.405048    4.446455    0.000000    1.000000
    69  Na    c    -2.233503    4.405048   -4.446455    0.000000    1.000000
    70  Na    c     4.405048   -2.233503    4.446455    0.000000    1.000000
    71  Na    c     4.405048   -2.233503   -4.446455    0.000000    1.000000
    72  Na    c     2.191801   -4.495340    0.000000    0.000000    1.000000
    73  Na    c    -4.495340    2.191801    0.000000    0.000000    1.000000
    74  Na    c    -2.215156   -0.024713    4.419741    0.000000    1.000000
    75  Na    c    -2.215156   -0.024713   -4.419741    0.000000    1.000000
    76  Na    c    -0.024713   -2.215156    4.419741    0.000000    1.000000
    77  Na    c    -0.024713   -2.215156   -4.419741    0.000000    1.000000
    78  Cl    c    -2.177016   -2.177016   -2.188715    0.000000    1.485000
    79  Cl    c    -2.177016   -2.177016    2.188715    0.000000    1.485000
    80  O     c     4.405825    8.964754    0.000000    0.000000    0.183000
    81  O     c     8.964754    4.405825    0.000000    0.000000    0.183000
    82  O     c     8.816584   -0.009741    0.000000    0.000000    0.183000
    83  O     c    -0.009741    8.816584    0.000000    0.000000    0.183000
    84  O     c     4.405462   -4.458675    0.000000    0.000000    0.183000
    85  O     c    -4.458675    4.405462    0.000000    0.000000    0.183000
    86  O     c    -0.004350   -4.416967    0.000000    0.000000    0.183000
    87  O     c    -4.416967   -0.004350    0.000000    0.000000    0.183000
    88  Na    c     4.396033    8.928699   -2.222065    0.000000    1.000000
    89  Na    c     4.396033    8.928699    2.222065    0.000000    1.000000
    90  Na    c     8.928699    4.396033   -2.222065    0.000000    1.000000
    91  Na    c     8.928699    4.396033    2.222065    0.000000    1.000000
    92  Na    c     4.379491    4.379491    6.703821    0.000000    1.000000
    93  Na    c     4.379491    4.379491   -6.703821    0.000000    1.000000
    94  Na    c     8.875574   -0.080221   -2.204801    0.000000    1.000000
    95  Na    c     8.875574   -0.080221    2.204801    0.000000    1.000000
    96  Na    c    -0.080221    8.875574   -2.204801    0.000000    1.000000
    97  Na    c    -0.080221    8.875574    2.204801    0.000000    1.000000
    98  Na    c     4.395610   -0.030840    6.632873    0.000000    1.000000
    99  Na    c     4.395610   -0.030840   -6.632873    0.000000    1.000000
   100  Na    c    -0.030840    4.395610    6.632873    0.000000    1.000000
   101  Na    c    -0.030840    4.395610   -6.632873    0.000000    1.000000
   102  Na    c     4.399363   -4.477913   -2.209233    0.000000    1.000000
   103  Na    c     4.399363   -4.477913    2.209233    0.000000    1.000000
   104  Na    c    -4.477913    4.399363   -2.209233    0.000000    1.000000
   105  Na    c    -4.477913    4.399363    2.209233    0.000000    1.000000
   106  Na    c    -0.013945   -0.013945    6.616205    0.000000    1.000000
   107  Na    c    -0.013945   -0.013945   -6.616205    0.000000    1.000000
   108  Na    c    -0.012871   -4.432225   -2.205453    0.000000    1.000000
   109  Na    c    -0.012871   -4.432225    2.205453    0.000000    1.000000
   110  Na    c    -4.432225   -0.012871   -2.205453    0.000000    1.000000
   111  Na    c    -4.432225   -0.012871    2.205453    0.000000    1.000000
   112  Na    c     6.627275    8.934843    0.000000    0.000000    1.000000
   113  Na    c     8.934843    6.627275    0.000000    0.000000    1.000000
   114  Na    c     2.195646    8.865614    4.483120    0.000000    1.000000
   115  Na    c     2.195646    8.865614   -4.483120    0.000000    1.000000
   116  Na    c     8.865614    2.195646    4.483120    0.000000    1.000000
   117  Na    c     8.865614    2.195646   -4.483120    0.000000    1.000000
   118  Cl    c     2.194645    6.625759    6.571998    0.000000    1.485000
   119  Cl    c     2.194645    6.625759   -6.571998    0.000000    1.485000
   120  Cl    c     6.625759    2.194645    6.571998    0.000000    1.485000
   121  Cl    c     6.625759    2.194645   -6.571998    0.000000    1.485000
   122  Na    c    -2.237615    8.844930    0.000000    0.000000    1.000000
   123  Na    c     8.844930   -2.237615    0.000000    0.000000    1.000000
   124  Na    c     6.615712   -4.476679    0.000000    0.000000    1.000000
   125  Na    c    -4.476679    6.615712    0.000000    0.000000    1.000000
   126  Cl    c     2.217060   -2.173180    6.581236    0.000000    1.485000
   127  Cl    c     2.217060   -2.173180   -6.581236    0.000000    1.485000
   128  Cl    c    -2.173180    2.217060    6.581236    0.000000    1.485000
   129  Cl    c    -2.173180    2.217060   -6.581236    0.000000    1.485000
   130  Na    c     2.196151   -4.425659    4.419056    0.000000    1.000000
   131  Na    c     2.196151   -4.425659   -4.419056    0.000000    1.000000
   132  Na    c    -4.425659    2.196151    4.419056    0.000000    1.000000
   133  Na    c    -4.425659    2.196151   -4.419056    0.000000    1.000000
   134  Na    c    -2.215232   -4.437587    0.000000    0.000000    1.000000
   135  Na    c    -4.437587   -2.215232    0.000000    0.000000    1.000000
   136  O     c     4.404899    8.811812    4.407052    0.000000    0.183000
   137  O     c     4.404899    8.811812   -4.407052    0.000000    0.183000
   138  O     c     8.811812    4.404899    4.407052    0.000000    0.183000
   139  O     c     8.811812    4.404899   -4.407052    0.000000    0.183000
   140  O     c     8.797986    0.010910    4.390170    0.000000    0.183000
   141  O     c     8.797986    0.010910   -4.390170    0.000000    0.183000
   142  O     c     0.010910    8.797986    4.390170    0.000000    0.183000
   143  O     c     0.010910    8.797986   -4.390170    0.000000    0.183000
   144  O     c     4.405228   -4.415100    4.404730    0.000000    0.183000
   145  O     c     4.405228   -4.415100   -4.404730    0.000000    0.183000
   146  O     c    -4.415100    4.405228    4.404730    0.000000    0.183000
   147  O     c    -4.415100    4.405228   -4.404730    0.000000    0.183000
   148  O     c    -0.002832   -4.407326    4.404320    0.000000    0.183000
   149  O     c    -0.002832   -4.407326   -4.404320    0.000000    0.183000
   150  O     c    -4.407326   -0.002832    4.404320    0.000000    0.183000
   151  O     c    -4.407326   -0.002832   -4.404320    0.000000    0.183000
   152  Na    c     6.611159    8.884641    4.472180    0.000000    1.000000
   153  Na    c     6.611159    8.884641   -4.472180    0.000000    1.000000
   154  Na    c     8.884641    6.611159    4.472180    0.000000    1.000000
   155  Na    c     8.884641    6.611159   -4.472180    0.000000    1.000000
   156  Na    c    11.101409    4.407137    0.000000    0.000000    1.000000
   157  Na    c     4.407137   11.101409    0.000000    0.000000    1.000000
   158  Cl    c     2.197750   10.989372   -2.215150    0.000000    1.485000
   159  Cl    c     2.197750   10.989372    2.215150    0.000000    1.485000
   160  Cl    c    10.989372    2.197750   -2.215150    0.000000    1.485000
   161  Cl    c    10.989372    2.197750    2.215150    0.000000    1.485000
   162  Cl    c     6.628738    6.628738    6.570170    0.000000    1.485000
   163  Cl    c     6.628738    6.628738   -6.570170    0.000000    1.485000
   164  Na    c    11.037961   -0.055028    0.000000    0.000000    1.000000
   165  Na    c    -0.055028   11.037961    0.000000    0.000000    1.000000
   166  Na    c     2.190958    4.399213    8.890570    0.000000    1.000000
   167  Na    c     2.190958    4.399213   -8.890570    0.000000    1.000000
   168  Na    c     4.399213    2.190958    8.890570    0.000000    1.000000
   169  Na    c     4.399213    2.190958   -8.890570    0.000000    1.000000
   170  Na    c    -2.219334    8.829194    4.417532    0.000000    1.000000
   171  Na    c    -2.219334    8.829194   -4.417532    0.000000    1.000000
   172  Na    c     8.829194   -2.219334    4.417532    0.000000    1.000000
   173  Na    c     8.829194   -2.219334   -4.417532    0.000000    1.000000
   174  Cl    c     6.602515   -2.173445    6.581451    0.000000    1.485000
   175  Cl    c     6.602515   -2.173445   -6.581451    0.000000    1.485000
   176  Cl    c    -2.173445    6.602515    6.581451    0.000000    1.485000
   177  Cl    c    -2.173445    6.602515   -6.581451    0.000000    1.485000
   178  Na    c     2.196192   -0.015090    8.840788    0.000000    1.000000
   179  Na    c     2.196192   -0.015090   -8.840788    0.000000    1.000000
   180  Na    c    -0.015090    2.196192    8.840788    0.000000    1.000000
   181  Na    c    -0.015090    2.196192   -8.840788    0.000000    1.000000
   182  Na    c     6.613161   -4.445324    4.409855    0.000000    1.000000
   183  Na    c     6.613161   -4.445324   -4.409855    0.000000    1.000000
   184  Na    c    -4.445324    6.613161    4.409855    0.000000    1.000000
   185  Na    c    -4.445324    6.613161   -4.409855    0.000000    1.000000
   186  Na    c    -6.647911    4.414559    0.000000    0.000000    1.000000
   187  Na    c     4.414559   -6.647911    0.000000    0.000000    1.000000
   188  Cl    c     2.206413   -6.593973   -2.202189    0.000000    1.485000
   189  Cl    c     2.206413   -6.593973    2.202189    0.000000    1.485000
   190  Cl    c    -6.593973    2.206413   -2.202189    0.000000    1.485000
   191  Cl    c    -6.593973    2.206413    2.202189    0.000000    1.485000
   192  Cl    c    -2.175649   -2.175649    6.583215    0.000000    1.485000
   193  Cl    c    -2.175649   -2.175649   -6.583215    0.000000    1.485000
   194  Na    c    -6.626304   -0.037839    0.000000    0.000000    1.000000
   195  Na    c    -0.037839   -6.626304    0.000000    0.000000    1.000000
   196  Na    c    -2.212212   -4.436438    4.411526    0.000000    1.000000
   197  Na    c    -2.212212   -4.436438   -4.411526    0.000000    1.000000
   198  Na    c    -4.436438   -2.212212    4.411526    0.000000    1.000000
   199  Na    c    -4.436438   -2.212212   -4.411526    0.000000    1.000000
   200  O     c     8.820291    8.820291    0.000000    0.000000    0.183000
   201  O     c     4.404042    4.404042    8.854532    0.000000    0.183000
   202  O     c     4.404042    4.404042   -8.854532    0.000000    0.183000
   203  O     c     4.406407   -0.004032    8.818770    0.000000    0.183000
   204  O     c     4.406407   -0.004032   -8.818770    0.000000    0.183000
   205  O     c    -0.004032    4.406407    8.818770    0.000000    0.183000
   206  O     c    -0.004032    4.406407   -8.818770    0.000000    0.183000
   207  O     c     8.818241   -4.420179    0.000000    0.000000    0.183000
   208  O     c    -4.420179    8.818241    0.000000    0.000000    0.183000
   209  O     c    -0.003636   -0.003636    8.811934    0.000000    0.183000
   210  O     c    -0.003636   -0.003636   -8.811934    0.000000    0.183000
   211  O     c    -4.411555   -4.411555    0.000000    0.000000    0.183000
   212  Na    c     8.880285    8.880285   -2.207504    0.000000    1.000000
   213  Na    c     8.880285    8.880285    2.207504    0.000000    1.000000
   214  Na    c     4.411399    8.834054    6.628755    0.000000    1.000000
   215  Na    c     4.411399    8.834054   -6.628755    0.000000    1.000000
   216  Na    c     8.834054    4.411399    6.628755    0.000000    1.000000
   217  Na    c     8.834054    4.411399   -6.628755    0.000000    1.000000
   218  Na    c     8.816417   -0.033289    6.614439    0.000000    1.000000
   219  Na    c     8.816417   -0.033289   -6.614439    0.000000    1.000000
   220  Na    c    -0.033289    8.816417    6.614439    0.000000    1.000000
   221  Na    c    -0.033289    8.816417   -6.614439    0.000000    1.000000
   222  Na    c     8.817927   -4.441180   -2.208139    0.000000    1.000000
   223  Na    c     8.817927   -4.441180    2.208139    0.000000    1.000000
   224  Na    c    -4.441180    8.817927   -2.208139    0.000000    1.000000
   225  Na    c    -4.441180    8.817927    2.208139    0.000000    1.000000
   226  Na    c     4.413710   -4.441638    6.612442    0.000000    1.000000
   227  Na    c     4.413710   -4.441638   -6.612442    0.000000    1.000000
   228  Na    c    -4.441638    4.413710    6.612442    0.000000    1.000000
   229  Na    c    -4.441638    4.413710   -6.612442    0.000000    1.000000
   230  Na    c    -0.025062   -4.426675    6.609755    0.000000    1.000000
   231  Na    c    -0.025062   -4.426675   -6.609755    0.000000    1.000000
   232  Na    c    -4.426675   -0.025062    6.609755    0.000000    1.000000
   233  Na    c    -4.426675   -0.025062   -6.609755    0.000000    1.000000
   234  Na    c    -4.427950   -4.427950   -2.204794    0.000000    1.000000
   235  Na    c    -4.427950   -4.427950    2.204794    0.000000    1.000000
   236  Cl    c     6.633355   10.982197   -2.213721    0.000000    1.485000
   237  Cl    c     6.633355   10.982197    2.213721    0.000000    1.485000
   238  Cl    c    10.982197    6.633355   -2.213721    0.000000    1.485000
   239  Cl    c    10.982197    6.633355    2.213721    0.000000    1.485000
   240  Na    c    11.032042    4.384495    4.431985    0.000000    1.000000
   241  Na    c    11.032042    4.384495   -4.431985    0.000000    1.000000
   242  Na    c     4.384495   11.032042    4.431985    0.000000    1.000000
   243  Na    c     4.384495   11.032042   -4.431985    0.000000    1.000000
   244  Na    c     6.609772    4.395330    8.858825    0.000000    1.000000
   245  Na    c     6.609772    4.395330   -8.858825    0.000000    1.000000
   246  Na    c     4.395330    6.609772    8.858825    0.000000    1.000000
   247  Na    c     4.395330    6.609772   -8.858825    0.000000    1.000000
   248  Na    c    11.020532   -0.010292    4.413017    0.000000    1.000000
   249  Na    c    11.020532   -0.010292   -4.413017    0.000000    1.000000
   250  Na    c    -0.010292   11.020532    4.413017    0.000000    1.000000
   251  Na    c    -0.010292   11.020532   -4.413017    0.000000    1.000000
   252  Cl    c    10.998204   -2.176691   -2.192595    0.000000    1.485000
   253  Cl    c    10.998204   -2.176691    2.192595    0.000000    1.485000
   254  Cl    c    -2.176691   10.998204   -2.192595    0.000000    1.485000
   255  Cl    c    -2.176691   10.998204    2.192595    0.000000    1.485000
   256  Na    c     6.609892   -0.011594    8.826472    0.000000    1.000000
   257  Na    c     6.609892   -0.011594   -8.826472    0.000000    1.000000
   258  Na    c    -0.011594    6.609892    8.826472    0.000000    1.000000
   259  Na    c    -0.011594    6.609892   -8.826472    0.000000    1.000000
   260  Na    c    -2.211885    4.399301    8.825428    0.000000    1.000000
   261  Na    c    -2.211885    4.399301   -8.825428    0.000000    1.000000
   262  Na    c     4.399301   -2.211885    8.825428    0.000000    1.000000
   263  Na    c     4.399301   -2.211885   -8.825428    0.000000    1.000000
   264  Cl    c     6.613622   -6.588252   -2.201889    0.000000    1.485000
   265  Cl    c     6.613622   -6.588252    2.201889    0.000000    1.485000
   266  Cl    c    -6.588252    6.613622   -2.201889    0.000000    1.485000
   267  Cl    c    -6.588252    6.613622    2.201889    0.000000    1.485000
   268  Na    c    -6.622754    4.388453    4.415202    0.000000    1.000000
   269  Na    c    -6.622754    4.388453   -4.415202    0.000000    1.000000
   270  Na    c     4.388453   -6.622754    4.415202    0.000000    1.000000
   271  Na    c     4.388453   -6.622754   -4.415202    0.000000    1.000000
   272  Na    c    -2.208597   -0.011352    8.816785    0.000000    1.000000
   273  Na    c    -2.208597   -0.011352   -8.816785    0.000000    1.000000
   274  Na    c    -0.011352   -2.208597    8.816785    0.000000    1.000000
   275  Na    c    -0.011352   -2.208597   -8.816785    0.000000    1.000000
   276  Na    c    -6.616744    0.000295    4.404884    0.000000    1.000000
   277  Na    c    -6.616744    0.000295   -4.404884    0.000000    1.000000
   278  Na    c     0.000295   -6.616744    4.404884    0.000000    1.000000
   279  Na    c     0.000295   -6.616744   -4.404884    0.000000    1.000000
   280  Cl    c    -2.194917   -6.590856   -2.198735    0.000000    1.485000
   281  Cl    c    -2.194917   -6.590856    2.198735    0.000000    1.485000
   282  Cl    c    -6.590856   -2.194917   -2.198735    0.000000    1.485000
   283  Cl    c    -6.590856   -2.194917    2.198735    0.000000    1.485000
   284  O     c     8.805139    8.805139    4.393576    0.000000    0.183000
   285  O     c     8.805139    8.805139   -4.393576    0.000000    0.183000
   286  O     c     8.818224   -4.413202    4.407756    0.000000    0.183000
   287  O     c     8.818224   -4.413202   -4.407756    0.000000    0.183000
   288  O     c    -4.413202    8.818224    4.407756    0.000000    0.183000
   289  O     c    -4.413202    8.818224   -4.407756    0.000000    0.183000
   290  O     c    -4.410659   -4.410659    4.404972    0.000000    0.183000
   291  O     c    -4.410659   -4.410659   -4.404972    0.000000    0.183000
   292  Na    c    11.037714    8.832843    0.000000    0.000000    1.000000
   293  Na    c     8.832843   11.037714    0.000000    0.000000    1.000000
   294  Na    c     2.193013   13.255064    0.000000    0.000000    1.000000
   295  Na    c    13.255064    2.193013    0.000000    0.000000    1.000000
   296  Cl    c     2.220338   10.994629    6.583189    0.000000    1.485000
   297  Cl    c     2.220338   10.994629   -6.583189    0.000000    1.485000
   298  Cl    c    10.994629    2.220338    6.583189    0.000000    1.485000
   299  Cl    c    10.994629    2.220338   -6.583189    0.000000    1.485000
   300  Na    c     2.198433    8.811770    8.830330    0.000000    1.000000
   301  Na    c     2.198433    8.811770   -8.830330    0.000000    1.000000
   302  Na    c     8.811770    2.198433    8.830330    0.000000    1.000000
   303  Na    c     8.811770    2.198433   -8.830330    0.000000    1.000000
   304  Na    c    11.023744   -4.442955    0.000000    0.000000    1.000000
   305  Na    c    -4.442955   11.023744    0.000000    0.000000    1.000000
   306  Cl    c     2.206040    2.206040   10.988620    0.000000    1.485000
   307  Cl    c     2.206040    2.206040  -10.988620    0.000000    1.485000
   308  Na    c    -6.627108    8.822849    0.000000    0.000000    1.000000
   309  Na    c     8.822849   -6.627108    0.000000    0.000000    1.000000
   310  Na    c     2.201279   -4.421871    8.820165    0.000000    1.000000
   311  Na    c     2.201279   -4.421871   -8.820165    0.000000    1.000000
   312  Na    c    -4.421871    2.201279    8.820165    0.000000    1.000000
   313  Na    c    -4.421871    2.201279   -8.820165    0.000000    1.000000
   314  Cl    c     2.210661   -6.586776    6.599181    0.000000    1.485000
   315  Cl    c     2.210661   -6.586776   -6.599181    0.000000    1.485000
   316  Cl    c    -6.586776    2.210661    6.599181    0.000000    1.485000
   317  Cl    c    -6.586776    2.210661   -6.599181    0.000000    1.485000
   318  Na    c     2.198342   -8.830013    0.000000    0.000000    1.000000
   319  Na    c    -8.830013    2.198342    0.000000    0.000000    1.000000
   320  Na    c    -6.619780   -4.421336    0.000000    0.000000    1.000000
   321  Na    c    -4.421336   -6.619780    0.000000    0.000000    1.000000
   322  O     c     4.406587   13.249252    0.000000    0.000000    0.183000
   323  O     c    13.249252    4.406587    0.000000    0.000000    0.183000
   324  O     c     4.408461    8.808008    8.809944    0.000000    0.183000
   325  O     c     4.408461    8.808008   -8.809944    0.000000    0.183000
   326  O     c     8.808008    4.408461    8.809944    0.000000    0.183000
   327  O     c     8.808008    4.408461   -8.809944    0.000000    0.183000
   328  O     c    13.221693   -0.001516    0.000000    0.000000    0.183000
   329  O     c    -0.001516   13.221693    0.000000    0.000000    0.183000
   330  O     c     8.810213   -0.000911    8.807099    0.000000    0.183000
   331  O     c     8.810213   -0.000911   -8.807099    0.000000    0.183000
   332  O     c    -0.000911    8.810213    8.807099    0.000000    0.183000
   333  O     c    -0.000911    8.810213   -8.807099    0.000000    0.183000
   334  O     c     4.407359   -4.403155    8.807149    0.000000    0.183000
   335  O     c     4.407359   -4.403155   -8.807149    0.000000    0.183000
   336  O     c    -4.403155    4.407359    8.807149    0.000000    0.183000
   337  O     c    -4.403155    4.407359   -8.807149    0.000000    0.183000
   338  O     c     4.407170   -8.822952    0.000000    0.000000    0.183000
   339  O     c    -8.822952    4.407170    0.000000    0.000000    0.183000
   340  O     c     0.000928   -4.401977    8.807162    0.000000    0.183000
   341  O     c     0.000928   -4.401977   -8.807162    0.000000    0.183000
   342  O     c    -4.401977    0.000928    8.807162    0.000000    0.183000
   343  O     c    -4.401977    0.000928   -8.807162    0.000000    0.183000
   344  O     c    -0.003130   -8.814531    0.000000    0.000000    0.183000
   345  O     c    -8.814531   -0.003130    0.000000    0.000000    0.183000
   346  Na    c     8.810025    8.810025    6.619564    0.000000    1.000000
   347  Na    c     8.810025    8.810025   -6.619564    0.000000    1.000000
   348  Na    c     4.398900   13.268455   -2.210647    0.000000    1.000000
   349  Na    c     4.398900   13.268455    2.210647    0.000000    1.000000
   350  Na    c    13.268455    4.398900   -2.210647    0.000000    1.000000
   351  Na    c    13.268455    4.398900    2.210647    0.000000    1.000000
   352  Na    c    13.242240   -0.013744   -2.207168    0.000000    1.000000
   353  Na    c    13.242240   -0.013744    2.207168    0.000000    1.000000
   354  Na    c    -0.013744   13.242240   -2.207168    0.000000    1.000000
   355  Na    c    -0.013744   13.242240    2.207168    0.000000    1.000000
   356  Na    c     4.411126    4.411126   11.042109    0.000000    1.000000
   357  Na    c     4.411126    4.411126  -11.042109    0.000000    1.000000
   358  Na    c     4.405173   -0.033105   11.026480    0.000000    1.000000
   359  Na    c     4.405173   -0.033105  -11.026480    0.000000    1.000000
   360  Na    c    -0.033105    4.405173   11.026480    0.000000    1.000000
   361  Na    c    -0.033105    4.405173  -11.026480    0.000000    1.000000
   362  Na    c     8.808383   -4.423274    6.615137    0.000000    1.000000
   363  Na    c     8.808383   -4.423274   -6.615137    0.000000    1.000000
   364  Na    c    -4.423274    8.808383    6.615137    0.000000    1.000000
   365  Na    c    -4.423274    8.808383   -6.615137    0.000000    1.000000
   366  Na    c    -0.015167   -0.015167   11.021345    0.000000    1.000000
   367  Na    c    -0.015167   -0.015167  -11.021345    0.000000    1.000000
   368  Na    c     4.404166   -8.845123   -2.206213    0.000000    1.000000
   369  Na    c     4.404166   -8.845123    2.206213    0.000000    1.000000
   370  Na    c    -8.845123    4.404166   -2.206213    0.000000    1.000000
   371  Na    c    -8.845123    4.404166    2.206213    0.000000    1.000000
   372  Na    c    -0.008311   -8.836396   -2.204878    0.000000    1.000000
   373  Na    c    -0.008311   -8.836396    2.204878    0.000000    1.000000
   374  Na    c    -8.836396   -0.008311   -2.204878    0.000000    1.000000
   375  Na    c    -8.836396   -0.008311    2.204878    0.000000    1.000000
   376  Na    c    -4.414802   -4.414802    6.613167    0.000000    1.000000
   377  Na    c    -4.414802   -4.414802   -6.613167    0.000000    1.000000
[...]
    121 y          0.000000     -0.015167    -0.015167    Cartesian    0.00
    121 z         11.014756     11.021345     0.006589    Cartesian    0.06
    122 x          4.405902      4.404166    -0.001736    Cartesian   -0.04
    122 y         -8.811805     -8.845123    -0.033318    Cartesian    0.38
    122 z         -2.202951     -2.206213    -0.003262    Cartesian    0.15
    123 x          0.000000     -0.008311    -0.008311    Cartesian    0.00
    123 y         -8.811805     -8.836396    -0.024592    Cartesian    0.28
    123 z         -2.202951     -2.204878    -0.001927    Cartesian    0.09
    124 x         -4.405902     -4.414802    -0.008900    Cartesian    0.20
    124 y         -4.405902     -4.414802    -0.008900    Cartesian    0.20
    124 z          6.608853      6.613167     0.004313    Cartesian    0.07
    125 x          6.608853      6.616018     0.007165    Cartesian    0.11
    125 y         13.217707     13.281160     0.063453    Cartesian    0.48
    125 z          0.000000      0.000000     0.000000    Cartesian    0.00
    126 x         11.014756     11.026398     0.011642    Cartesian    0.11
    126 y          8.811805      8.830063     0.018259    Cartesian    0.21
    126 z          4.405902      4.427818     0.021915    Cartesian    0.50
    127 x          6.608853      6.599662    -0.009192    Cartesian   -0.14
    127 y         11.014756     10.984432    -0.030324    Cartesian   -0.28
    127 z          6.608853      6.579676    -0.029178    Cartesian   -0.44
    128 x          2.202951      2.197686    -0.005265    Cartesian   -0.24
    128 y         13.217707     13.253511     0.035805    Cartesian    0.27
    128 z          4.405902      4.421820     0.015918    Cartesian    0.36
    129 x          6.608853      6.612357     0.003504    Cartesian    0.05
    129 y          8.811805      8.820352     0.008547    Cartesian    0.10
    129 z          8.811805      8.846320     0.034515    Cartesian    0.39
    130 x         -2.202951     -2.212946    -0.009995    Cartesian    0.45
    130 y         13.217707     13.260350     0.042643    Cartesian    0.32
    130 z          0.000000      0.000000     0.000000    Cartesian    0.00
    131 x          2.202951      2.206983     0.004032    Cartesian    0.18
    131 y          6.608853      6.607727    -0.001127    Cartesian   -0.02
    131 z         11.014756     10.977129    -0.037627    Cartesian   -0.34
    132 x         11.014756     10.984986    -0.029769    Cartesian   -0.27
    132 y         -2.202951     -2.172183     0.030768    Cartesian   -1.40
    132 z          6.608853      6.580765    -0.028088    Cartesian   -0.43
    133 x         -2.202951     -2.209012    -0.006060    Cartesian    0.28
    133 y          8.811805      8.825195     0.013391    Cartesian    0.15
    133 z          8.811805      8.841578     0.029773    Cartesian    0.34
    134 x         11.014756     11.022117     0.007361    Cartesian    0.07
    134 y         -4.405902     -4.438742    -0.032839    Cartesian    0.75
    134 z          4.405902      4.423766     0.017864    Cartesian    0.41
    135 x          6.608853      6.611096     0.002243    Cartesian    0.03
    135 y         -4.405902     -4.428192    -0.022290    Cartesian    0.51
    135 z          8.811805      8.839831     0.028027    Cartesian    0.32
    136 x         -6.608853     -6.621879    -0.013026    Cartesian    0.20
    136 y          8.811805      8.827787     0.015983    Cartesian    0.18
    136 z          4.405902      4.419167     0.013265    Cartesian    0.30
    137 x          2.202951      2.210058     0.007107    Cartesian    0.32
    137 y         -2.202951     -2.187242     0.015709    Cartesian   -0.71
    137 z         11.014756     10.982422    -0.032334    Cartesian   -0.29
    138 x          6.608853      6.602254    -0.006599    Cartesian   -0.10
    138 y         -6.608853     -6.577463     0.031391    Cartesian   -0.47
    138 z          6.608853      6.596064    -0.012789    Cartesian   -0.19
    139 x          6.608853      6.613741     0.004887    Cartesian    0.07
    139 y         -8.811805     -8.856496    -0.044692    Cartesian    0.51
    139 z          0.000000      0.000000     0.000000    Cartesian    0.00
    140 x          2.202951      2.200686    -0.002265    Cartesian   -0.10
    140 y         -8.811805     -8.847048    -0.035243    Cartesian    0.40
    140 z          4.405902      4.416598     0.010696    Cartesian    0.24
    141 x         -2.202951     -2.207465    -0.004514    Cartesian    0.20
    141 y         -4.405902     -4.425865    -0.019963    Cartesian    0.45
    141 z          8.811805      8.836222     0.024418    Cartesian    0.28
    142 x         -2.202951     -2.189051     0.013900    Cartesian   -0.63
    142 y         -6.608853     -6.579830     0.029024    Cartesian   -0.44
    142 z          6.608853      6.595991    -0.012863    Cartesian   -0.19
    143 x         -2.202951     -2.210531    -0.007580    Cartesian    0.34
    143 y         -8.811805     -8.850319    -0.038515    Cartesian    0.44
    143 z          0.000000      0.000000     0.000000    Cartesian    0.00
    144 x         -6.608853     -6.618588    -0.009734    Cartesian    0.15
    144 y         -4.405902     -4.427974    -0.022072    Cartesian    0.50
    144 z          4.405902      4.416948     0.011046    Cartesian    0.25
    145 x          2.202951      2.537539     0.334588    Cartesian   15.19
    145 y          2.202951      2.537539     0.334588    Cartesian   15.19
    145 z         -2.202951     -1.874592     0.328360    Cartesian  -14.91
    146 x          4.405902      4.407524     0.001622    Cartesian    0.04
    146 y          0.000000     -0.164997    -0.164997    Cartesian    0.00
    146 z          0.000000      0.000000     0.000000    Cartesian    0.00
    147 x          0.000000      0.000000     0.000000    Cartesian    0.00
    147 y          0.000000      0.000000     0.000000    Cartesian    0.00
    147 z          0.000000      0.000000     0.000000    Cartesian    0.00
    148 x          2.202951      2.535129     0.332178    Cartesian   15.08
    148 y          6.608853      6.289747    -0.319106    Cartesian   -4.83
    148 z         -2.202951     -1.877910     0.325041    Cartesian  -14.75
    149 x          2.202951      2.195062    -0.007889    Cartesian   -0.36
    149 y         -2.202951     -2.159744     0.043207    Cartesian   -1.96
    149 z         -2.202951     -2.213681    -0.010730    Cartesian    0.49
    150 x          4.405902      4.403730    -0.002172    Cartesian   -0.05
    150 y          4.405902      4.403730    -0.002172    Cartesian   -0.05
    150 z          4.405902      4.561842     0.155940    Cartesian    3.54
    151 x          4.405902      4.405247    -0.000656    Cartesian   -0.01
    151 y          0.000000     -0.007378    -0.007378    Cartesian    0.00
    151 z          4.405902      4.407290     0.001388    Cartesian    0.03
    152 x          0.000000      0.011213     0.011213    Cartesian    0.00
    152 y          0.000000      0.011213     0.011213    Cartesian    0.00
    152 z          4.405902      4.391253    -0.014649    Cartesian   -0.33
    153 x          6.608853      6.291626    -0.317227    Cartesian   -4.80
    153 y          6.608853      6.291626    -0.317227    Cartesian   -4.80
    153 z         -2.202951     -1.873429     0.329522    Cartesian  -14.96
    154 x          2.202951      2.195426    -0.007525    Cartesian   -0.34
    154 y          2.202951      2.195426    -0.007525    Cartesian   -0.34
    154 z          6.608853      6.566090    -0.042763    Cartesian   -0.65
    155 x          6.608853      6.631848     0.022995    Cartesian    0.35
    155 y         -2.202951     -2.162645     0.040306    Cartesian   -1.83
    155 z         -2.202951     -2.212854    -0.009902    Cartesian    0.45
    156 x         -2.202951     -2.168902     0.034049    Cartesian   -1.55
    156 y         -2.202951     -2.168902     0.034049    Cartesian   -1.55
    156 z         -2.202951     -2.186220     0.016731    Cartesian   -0.76
    157 x          4.405902      4.405829    -0.000073    Cartesian   -0.00
    157 y          8.811805      8.964623     0.152818    Cartesian    1.73
    157 z          0.000000      0.000000     0.000000    Cartesian    0.00
    158 x          8.811805      8.816600     0.004796    Cartesian    0.05
    158 y          0.000000     -0.009757    -0.009757    Cartesian    0.00
    158 z          0.000000      0.000000     0.000000    Cartesian    0.00
    159 x          4.405902      4.405463    -0.000440    Cartesian   -0.01
    159 y         -4.405902     -4.458639    -0.052737    Cartesian    1.20
    159 z          0.000000      0.000000     0.000000    Cartesian    0.00
    160 x          0.000000     -0.004349    -0.004349    Cartesian    0.00
    160 y         -4.405902     -4.416962    -0.011060    Cartesian    0.25
    160 z          0.000000      0.000000     0.000000    Cartesian    0.00
    161 x          2.202951      2.197245    -0.005706    Cartesian   -0.26
    161 y          6.608853      6.626260     0.017407    Cartesian    0.26
    161 z          6.608853      6.562397    -0.046457    Cartesian   -0.70
    162 x          2.202951      2.220291     0.017340    Cartesian    0.79
    162 y         -2.202951     -2.164735     0.038216    Cartesian   -1.73
    162 z          6.608853      6.573820    -0.035033    Cartesian   -0.53
    163 x          4.405902      4.404898    -0.001005    Cartesian   -0.02
    163 y          8.811805      8.811829     0.000024    Cartesian    0.00
    163 z          4.405902      4.407068     0.001166    Cartesian    0.03
    164 x          8.811805      8.797987    -0.013818    Cartesian   -0.16
    164 y          0.000000      0.010913     0.010913    Cartesian    0.00
    164 z          4.405902      4.390170    -0.015733    Cartesian   -0.36
    165 x          4.405902      4.405226    -0.000676    Cartesian   -0.02
    165 y         -4.405902     -4.415092    -0.009190    Cartesian    0.21
    165 z          4.405902      4.404730    -0.001172    Cartesian   -0.03
    166 x          0.000000     -0.002829    -0.002829    Cartesian    0.00
    166 y         -4.405902     -4.407322    -0.001420    Cartesian    0.03
    166 z          4.405902      4.404319    -0.001583    Cartesian   -0.04
    167 x          2.202951      2.200587    -0.002364    Cartesian   -0.11
    167 y         11.014756     10.981554    -0.033202    Cartesian   -0.30
    167 z         -2.202951     -2.213985    -0.011033    Cartesian    0.50
    168 x          6.608853      6.629093     0.020240    Cartesian    0.31
    168 y          6.608853      6.629093     0.020240    Cartesian    0.31
    168 z          6.608853      6.559999    -0.048855    Cartesian   -0.74
    169 x          6.608853      6.601059    -0.007795    Cartesian   -0.12
    169 y         -2.202951     -2.164578     0.038373    Cartesian   -1.74
    169 z          6.608853      6.573566    -0.035287    Cartesian   -0.53
    170 x          2.202951      2.208469     0.005518    Cartesian    0.25
    170 y         -6.608853     -6.587728     0.021125    Cartesian   -0.32
    170 z         -2.202951     -2.201057     0.001895    Cartesian   -0.09
    171 x         -2.202951     -2.170392     0.032559    Cartesian   -1.48
    171 y         -2.202951     -2.170392     0.032559    Cartesian   -1.48
    171 z          6.608853      6.578902    -0.029951    Cartesian   -0.45
    172 x          8.811805      8.820311     0.008506    Cartesian    0.10
    172 y          8.811805      8.820311     0.008506    Cartesian    0.10
    172 z          0.000000      0.000000     0.000000    Cartesian    0.00
    173 x          4.405902      4.404044    -0.001858    Cartesian   -0.04
    173 y          4.405902      4.404044    -0.001858    Cartesian   -0.04
    173 z          8.811805      8.854499     0.042694    Cartesian    0.48
    174 x          4.405902      4.406410     0.000507    Cartesian    0.01
    174 y          0.000000     -0.004032    -0.004032    Cartesian    0.00
    174 z          8.811805      8.818763     0.006959    Cartesian    0.08
    175 x          8.811805      8.818245     0.006440    Cartesian    0.07
    175 y         -4.405902     -4.420172    -0.014269    Cartesian    0.32
    175 z          0.000000      0.000000     0.000000    Cartesian    0.00
    176 x          0.000000     -0.003638    -0.003638    Cartesian    0.00
    176 y          0.000000     -0.003638    -0.003638    Cartesian    0.00
    176 z          8.811805      8.811930     0.000126    Cartesian    0.00
    177 x         -4.405902     -4.411553    -0.005651    Cartesian    0.13
    177 y         -4.405902     -4.411553    -0.005651    Cartesian    0.13
    177 z          0.000000      0.000000     0.000000    Cartesian    0.00
    178 x          6.608853      6.634630     0.025776    Cartesian    0.39
    178 y         11.014756     10.974373    -0.040383    Cartesian   -0.37
    178 z         -2.202951     -2.212612    -0.009661    Cartesian    0.44
    179 x         11.014756     10.992602    -0.022154    Cartesian   -0.20
    179 y         -2.202951     -2.168620     0.034331    Cartesian   -1.56
    179 z         -2.202951     -2.190550     0.012401    Cartesian   -0.56
    180 x          6.608853      6.613671     0.004818    Cartesian    0.07
    180 y         -6.608853     -6.581995     0.026859    Cartesian   -0.41
    180 z         -2.202951     -2.200962     0.001989    Cartesian   -0.09
    181 x         -2.202951     -2.192436     0.010515    Cartesian   -0.48
    181 y         -6.608853     -6.586830     0.022024    Cartesian   -0.33
    181 z         -2.202951     -2.197846     0.005106    Cartesian   -0.23
    182 x          8.811805      8.805144    -0.006661    Cartesian   -0.08
    182 y          8.811805      8.805144    -0.006661    Cartesian   -0.08
    182 z          4.405902      4.393573    -0.012329    Cartesian   -0.28
    183 x          8.811805      8.818227     0.006423    Cartesian    0.07
    183 y         -4.405902     -4.413202    -0.007299    Cartesian    0.17
    183 z          4.405902      4.407754     0.001851    Cartesian    0.04
    184 x         -4.405902     -4.410660    -0.004758    Cartesian    0.11
    184 y         -4.405902     -4.410660    -0.004758    Cartesian    0.11
    184 z          4.405902      4.404969    -0.000933    Cartesian   -0.02
    185 x          2.202951      2.223852     0.020901    Cartesian    0.95
    185 y         11.014756     10.990002    -0.024754    Cartesian   -0.22
    185 z          6.608853      6.577060    -0.031794    Cartesian   -0.48
    186 x          2.202951      2.207989     0.005037    Cartesian    0.23
    186 y          2.202951      2.207989     0.005037    Cartesian    0.23
    186 z         11.014756     10.982674    -0.032082    Cartesian   -0.29
    187 x          2.202951      2.212523     0.009572    Cartesian    0.43
    187 y         -6.608853     -6.583217     0.025637    Cartesian   -0.39
    187 z          6.608853      6.597685    -0.011168    Cartesian   -0.17
    188 x          4.405902      4.406589     0.000687    Cartesian    0.02
    188 y         13.217707     13.249234     0.031527    Cartesian    0.24
    188 z          0.000000      0.000000     0.000000    Cartesian    0.00
    189 x          4.405902      4.408465     0.002562    Cartesian    0.06
    189 y          8.811805      8.808007    -0.003797    Cartesian   -0.04
    189 z          8.811805      8.809935    -0.001870    Cartesian   -0.02
    190 x         13.217707     13.221695     0.003989    Cartesian    0.03
    190 y          0.000000     -0.001511    -0.001511    Cartesian    0.00
    190 z          0.000000      0.000000     0.000000    Cartesian    0.00
    191 x          8.811805      8.810213    -0.001592    Cartesian   -0.02
    191 y          0.000000     -0.000908    -0.000908    Cartesian    0.00
    191 z          8.811805      8.807096    -0.004708    Cartesian   -0.05
    192 x          4.405902      4.407361     0.001459    Cartesian    0.03
    192 y         -4.405902     -4.403153     0.002749    Cartesian   -0.06
    192 z          8.811805      8.807147    -0.004658    Cartesian   -0.05
    193 x          4.405902      4.407172     0.001270    Cartesian    0.03
    193 y         -8.811805     -8.822947    -0.011142    Cartesian    0.13
    193 z          0.000000      0.000000     0.000000    Cartesian    0.00
    194 x          0.000000      0.000930     0.000930    Cartesian    0.00
    194 y         -4.405902     -4.401974     0.003928    Cartesian   -0.09
    194 z          8.811805      8.807160    -0.004645    Cartesian   -0.05
    195 x          0.000000     -0.003131    -0.003131    Cartesian    0.00
    195 y         -8.811805     -8.814534    -0.002729    Cartesian    0.03
    195 z          0.000000      0.000000     0.000000    Cartesian    0.00
    196 x          6.608853      6.598089    -0.010765    Cartesian   -0.16
    196 y         11.014756     10.978135    -0.036621    Cartesian   -0.33
    196 z          6.608853      6.573145    -0.035709    Cartesian   -0.54
    197 x          2.202951      2.208957     0.006006    Cartesian    0.27
    197 y          6.608853      6.607022    -0.001832    Cartesian   -0.03
    197 z         11.014756     10.970662    -0.044094    Cartesian   -0.40
    198 x         11.014756     10.981156    -0.033600    Cartesian   -0.31
    198 y         -2.202951     -2.167428     0.035523    Cartesian   -1.61
    198 z          6.608853      6.576985    -0.031868    Cartesian   -0.48
    199 x          2.202951      2.211897     0.008946    Cartesian    0.41
    199 y         -2.202951     -2.184118     0.018833    Cartesian   -0.85
    199 z         11.014756     10.978142    -0.036614    Cartesian   -0.33
    200 x          6.608853      6.601168    -0.007685    Cartesian   -0.12
    200 y         -6.608853     -6.572500     0.036354    Cartesian   -0.55
    200 z          6.608853      6.594077    -0.014777    Cartesian   -0.22
    201 x         -2.202951     -2.186638     0.016313    Cartesian   -0.74
    201 y         -6.608853     -6.575427     0.033426    Cartesian   -0.51
    201 z          6.608853      6.594134    -0.014719    Cartesian   -0.22
--------------------------------------------------------------------------------


  Time to end of optimisation  =       28.6386 seconds


  Peak dynamic memory used =      90.31 MB 


  Timing analysis for GULP :

--------------------------------------------------------------------------------
  Task / Subroutine                                          Time (Seconds)
--------------------------------------------------------------------------------
  Calculation of reciprocal space energy and derivatives          0.0004
  Calculation of reciprocal space energy using symmetry           0.0006
  Calculation of real space energy and derivatives                0.0021
  Calculation of real space energy using symmetry                 0.0065
  Calculation for region 1 energy and derivatives (2-b)          15.1662
  Calculation for region 2a energy                                9.6992
  Calculation for region 2b energy                                0.0059
  Calculation and manipulation of Hessian matrix                  3.2234
  Calculation of matrix inversion                                 0.2697
  Symmetry generation of equivalent positions                     0.0025
--------------------------------------------------------------------------------
  Total CPU time                                                 28.6387
--------------------------------------------------------------------------------


  Dump file written as Na3OCl.grs


  Job Finished at 15:14.24 19th January    2021                               

