********************************************************************************
*                       GENERAL UTILITY LATTICE PROGRAM                        *
*                                 Julian Gale                                  *
*                       Curtin Institute for Computation                       *
*                    School of Molecular and Life Sciences                     *
*                    Curtin University, Western Australia                      *
********************************************************************************
* Version = 5.2.0 * Last modified =  10th September 2020                       *
********************************************************************************
*  optimise     - perform optimisation run                                     *
*  conp         - constant pressure calculation                                *
*  property     - calculate properties for final geometry                      *
*  defect       - perform defect calculation after bulk run                    *
*  compare      - compare initial and final structures                         *
********************************************************************************

  Job Started  at 15:13.54 19th January    2021                               

  Number of CPUs =     1


  Total number of configurations input =      1

********************************************************************************
*  Input for Configuration =   1                                               *
********************************************************************************

  Formula = OClNa3                                                      

  Number of irreducible atoms/shells =       5


  Total number atoms/shells =       7

  Dimensionality = 3               :  Bulk   


  Symmetry :

  Crystal family                   :  Cubic       
  Crystal class  (Groth - 1921)    :  Cubic Hexakisoctahedral              

  Space group (centrosymmetric)    :  P M 3 M         

  Patterson group                  :  P m -3 m 

  Cartesian lattice vectors (Angstroms) :

        4.504000    0.000000    0.000000
        0.000000    4.504000    0.000000
        0.000000    0.000000    4.504000

  Cell parameters (Angstroms/Degrees):

  a =       4.5040    alpha =  90.0000
  b =       4.5040    beta  =  90.0000
  c =       4.5040    gamma =  90.0000

  Initial cell volume =          91.368216 Angs**3

  Temperature of configuration =   0.00     K 

  Pressure of configuration =         0.000 GPa 

  Fractional coordinates of asymmetric unit :

--------------------------------------------------------------------------------
   No.  Atomic       x           y          z         Charge      Occupancy
        Label      (Frac)      (Frac)     (Frac)        (e)         (Frac)  
--------------------------------------------------------------------------------
      1 O     c    0.000000    0.000000    0.000000     0.18300    1.000000    
      2 Cl    c    0.500000    0.500000    0.500000     1.48500    1.000000    
      3 Na    c    0.500000    0.000000    0.000000     1.00000    1.000000    
      4 O     s    0.000000    0.000000    0.000000    -2.18300    1.000000    
      5 Cl    s    0.500000    0.500000    0.500000    -2.48500    1.000000    
--------------------------------------------------------------------------------


  Constraints : 

--------------------------------------------------------------------------------
  Constraint no.      Unconstrained     Constrained    Coefficient    Offset
                         Variable         Variable
--------------------------------------------------------------------------------
           1              Strain 1        Strain 2       1.00000      0.0000
           2              Strain 1        Strain 3       1.00000      0.0000
--------------------------------------------------------------------------------


********************************************************************************
*  General input information                                                   *
********************************************************************************

  Species output for all configurations : 

--------------------------------------------------------------------------------
  Species    Type    Atomic    Atomic    Charge       Radii (Angs)     Library
                     Number     Mass       (e)     Cova   Ionic  VDW   Symbol
--------------------------------------------------------------------------------
    Na       Core       11      22.99   1.000000   0.970  0.000  2.300          
    O        Core        8      16.00   0.183000   0.730  0.000  1.360          
    O        Shell       8       0.00  -2.183000   0.730  0.000  1.360          
    Cl       Core       17      35.45   1.485000   0.990  0.000  1.650          
    Cl       Shell      17       0.00  -2.485000   0.990  0.000  1.650          
    Mg       Core       12      24.31   0.415000   1.100  0.000  0.000          
    Mg       Shell      12       0.00   1.585000   1.100  0.000  0.000          
    Ca       Core       20      40.08  -1.135000   0.990  0.000  0.000          
    Ca       Shell      20       0.00   3.135000   0.990  0.000  0.000          
    Sr       Core       38      87.62  -1.251000   1.120  0.000  0.000          
    Sr       Shell      38       0.00   3.251000   1.120  0.000  0.000          
    Ba       Core       56     137.33  -7.203000   1.340  0.000  0.000          
    Ba       Shell      56       0.00   9.203000   1.340  0.000  0.000          
--------------------------------------------------------------------------------


  Lattice summation method               =    Ewald          (3-D)
                                         =    Parry          (2-D)
                                         =    Saunders et al (1-D)
  Accuracy factor for lattice sums       =   12.000


  Analytic derivatives to be used

  Time limit = Infinity

  Maximum range for interatomic potentials =    100000.000000 Angstroms

  General interatomic potentials :

--------------------------------------------------------------------------------
Atom  Types   Potential      Parameter       Value         Units   Cutoffs(Ang)
  1     2                                                            Min /  Max 
--------------------------------------------------------------------------------
O    c O    s Spring (c-s)  Spring k 2       593.71600    eV*Ang^-2 0.000  0.800
                            Spring k 4       0.0000000    eV*Ang^-4 
--------------------------------------------------------------------------------
Cl   c Cl   s Spring (c-s)  Spring k 2       29.380000    eV*Ang^-2 0.000  0.800
                            Spring k 4       0.0000000    eV*Ang^-4 
--------------------------------------------------------------------------------
Mg   c Mg   s Spring (c-s)  Spring k 2       361.60000    eV*Ang^-2 0.000  0.800
                            Spring k 4       0.0000000    eV*Ang^-4 
--------------------------------------------------------------------------------
Ca   c Ca   s Spring (c-s)  Spring k 2       110.20000    eV*Ang^-2 0.000  0.800
                            Spring k 4       0.0000000    eV*Ang^-4 
--------------------------------------------------------------------------------
Sr   c Sr   s Spring (c-s)  Spring k 2       71.700000    eV*Ang^-2 0.000  0.800
                            Spring k 4       0.0000000    eV*Ang^-4 
--------------------------------------------------------------------------------
Ba   c Ba   s Spring (c-s)  Spring k 2       495.20000    eV*Ang^-2 0.000  0.800
                            Spring k 4       0.0000000    eV*Ang^-4 
--------------------------------------------------------------------------------
Na   c Na   c Buckingham    Buckingham A     1788.1900    eV        0.000 12.000
                            Buckingham rho  0.15900000    Ang       
                            Buckingham C     0.0000000    eV*Ang^6  
--------------------------------------------------------------------------------
Na   c O    s Buckingham    Buckingham A     588.38000    eV        0.000 12.000
                            Buckingham rho  0.33800000    Ang       
                            Buckingham C     0.0000000    eV*Ang^6  
--------------------------------------------------------------------------------
Na   c Cl   s Buckingham    Buckingham A     1170.4100    eV        0.000 12.000
                            Buckingham rho  0.31500000    Ang       
                            Buckingham C     0.0000000    eV*Ang^6  
--------------------------------------------------------------------------------
O    s O    s Buckingham    Buckingham A     22764.300    eV        0.000 12.000
                            Buckingham rho  0.14900000    Ang       
                            Buckingham C     13.190000    eV*Ang^6  
--------------------------------------------------------------------------------
O    s Cl   s Buckingham    Buckingham A     8286.9100    eV        0.000 12.000
                            Buckingham rho  0.25900000    Ang       
                            Buckingham C     62.200000    eV*Ang^6  
--------------------------------------------------------------------------------
Cl   s Cl   s Buckingham    Buckingham A     1227.2000    eV        0.000 12.000
                            Buckingham rho  0.32100000    Ang       
                            Buckingham C     14.530000    eV*Ang^6  
--------------------------------------------------------------------------------
O    s Mg   s Buckingham    Buckingham A     1428.5000    eV        0.000 12.000
                            Buckingham rho  0.29450000    Ang       
                            Buckingham C     0.0000000    eV*Ang^6  
--------------------------------------------------------------------------------
Mg   s Cl   s Buckingham    Buckingham A     4914.5400    eV        0.000 12.000
                            Buckingham rho  0.25700000    Ang       
                            Buckingham C     0.0000000    eV*Ang^6  
--------------------------------------------------------------------------------
O    s Ca   s Buckingham    Buckingham A     1090.4000    eV        0.000 12.000
                            Buckingham rho  0.34370000    Ang       
                            Buckingham C     0.0000000    eV*Ang^6  
--------------------------------------------------------------------------------
Cl   s Ca   s Buckingham    Buckingham A     2302.0000    eV        0.000 12.000
                            Buckingham rho  0.34020000    Ang       
                            Buckingham C     0.0000000    eV*Ang^6  
--------------------------------------------------------------------------------
O    s Sr   s Buckingham    Buckingham A     959.10000    eV        0.000 12.000
                            Buckingham rho  0.37210000    Ang       
                            Buckingham C     0.0000000    eV*Ang^6  
--------------------------------------------------------------------------------
Cl   s Sr   s Buckingham    Buckingham A     2191.0900    eV        0.000 12.000
                            Buckingham rho  0.34570000    Ang       
                            Buckingham C     0.0000000    eV*Ang^6  
--------------------------------------------------------------------------------
O    s Ba   s Buckingham    Buckingham A     905.70000    eV        0.000 12.000
                            Buckingham rho  0.39760000    Ang       
                            Buckingham C     0.0000000    eV*Ang^6  
--------------------------------------------------------------------------------
Cl   s Ba   s Buckingham    Buckingham A     2704.5500    eV        0.000 12.000
                            Buckingham rho  0.35280000    Ang       
                            Buckingham C     0.0000000    eV*Ang^6  
--------------------------------------------------------------------------------

********************************************************************************
*  Output for configuration   1                                                *
********************************************************************************


  Components of energy : 

--------------------------------------------------------------------------------
  Interatomic potentials     =           4.94315381 eV    
  Monopole - monopole (real) =         -10.03624526 eV    
  Monopole - monopole (recip)=         -29.53581274 eV    
  Monopole - monopole (total)=         -39.57205800 eV    
--------------------------------------------------------------------------------
  Total lattice energy       =         -34.62890419 eV    
--------------------------------------------------------------------------------
  Total lattice energy       =           -3341.1599 kJ/(mole unit cells)
--------------------------------------------------------------------------------


  Number of variables =        1

  Maximum number of calculations  =          1000
  Maximum Hessian update interval =            10
  Maximum step size               =   1.000000000
  Maximum parameter tolerance     =   0.000010000
  Maximum function  tolerance     =   0.000010000
  Maximum gradient  tolerance     =   0.001000000
  Maximum gradient  component     =   0.010000000

  Symmetry constrained optimisation

  Symmetry used for second derivatives

  Cell parameters to be optimised using strains

  Newton-Raphson optimiser to be used

  BFGS hessian update to be used

  Lower half triangular hessian to be used

  Start of bulk optimisation :

  Cycle:      0 Energy:       -34.628904  Gnorm:      4.328237  CPU:    0.005
  ** Hessian calculated **
  Cycle:      1 Energy:       -34.677667  Gnorm:      0.044008  CPU:    0.007
  Cycle:      2 Energy:       -34.677671  Gnorm:      0.003653  CPU:    0.007


  **** Optimisation achieved ****


  Final energy =     -34.67767136 eV
  Final Gnorm  =       0.00000010

  Components of energy : 

--------------------------------------------------------------------------------
  Interatomic potentials     =           5.77546103 eV    
  Monopole - monopole (real) =         -10.25970290 eV    
  Monopole - monopole (recip)=         -30.19342950 eV    
  Monopole - monopole (total)=         -40.45313239 eV    
--------------------------------------------------------------------------------
  Total lattice energy       =         -34.67767136 eV    
--------------------------------------------------------------------------------
  Total lattice energy       =           -3345.8652 kJ/(mole unit cells)
--------------------------------------------------------------------------------

  Final asymmetric unit coordinates :

--------------------------------------------------------------------------------
   No.  Atomic        x           y           z         Radius
        Label       (Frac)      (Frac)      (Frac)       (Angs) 
--------------------------------------------------------------------------------
     1  O     c     0.000000    0.000000    0.000000    0.000000
     2  Cl    c     0.500000    0.500000    0.500000    0.000000
     3  Na    c     0.500000    0.000000    0.000000    0.000000
     4  O     s     0.000000    0.000000    0.000000    0.000000
     5  Cl    s     0.500000    0.500000    0.500000    0.000000
--------------------------------------------------------------------------------

  Final Cartesian lattice vectors (Angstroms) :

        4.405902    0.000000    0.000000
        0.000000    4.405902    0.000000
        0.000000    0.000000    4.405902


  Final cell parameters and derivatives :

--------------------------------------------------------------------------------
       a            4.405902 Angstrom     dE/de1(xx)     0.000000 eV/strain
       b            4.405902 Angstrom     dE/de2(yy)     0.000000 eV/strain
       c            4.405902 Angstrom     dE/de3(zz)     0.000000 eV/strain
       alpha       90.000000 Degrees      dE/de4(yz)     0.000000 eV/strain
       beta        90.000000 Degrees      dE/de5(xz)     0.000000 eV/strain
       gamma       90.000000 Degrees      dE/de6(xy)     0.000000 eV/strain
--------------------------------------------------------------------------------

  Primitive cell volume =            85.527266 Angs**3

  Density of cell =      2.338030 g/cm**3

  Non-primitive cell volume =            85.527266 Angs**3


  Final internal derivatives :

--------------------------------------------------------------------------------
   No.  Atomic          a             b             c           Radius
        Label          (eV)          (eV)          (eV)        (eV/Angs)
--------------------------------------------------------------------------------
      1 O     c       0.000000      0.000000      0.000000      0.000000
      2 Cl    c       0.000000      0.000000      0.000000      0.000000
      3 Na    c       0.000000      0.000000      0.000000      0.000000
      4 O     s       0.000000      0.000000      0.000000      0.000000
      5 Cl    s       0.000000      0.000000      0.000000      0.000000
--------------------------------------------------------------------------------
  Maximum abs         0.000000      0.000000      0.000000      0.000000
--------------------------------------------------------------------------------

  Comparison of initial and final structures : 

--------------------------------------------------------------------------------
  Parameter   Initial value   Final value   Difference    Units      Percent
--------------------------------------------------------------------------------
    Volume        91.368216     85.527266    -5.840950    Angs**3     -6.39
    a              4.504000      4.405902    -0.098098    Angstroms   -2.18
    b              4.504000      4.405902    -0.098098    Angstroms   -2.18
    c              4.504000      4.405902    -0.098098    Angstroms   -2.18
    alpha         90.000000     90.000000     0.000000    Degrees      0.00
    beta          90.000000     90.000000     0.000000    Degrees      0.00
    gamma         90.000000     90.000000     0.000000    Degrees      0.00
      1 x          0.000000      0.000000     0.000000    Fractional   0.00
      1 y          0.000000      0.000000     0.000000    Fractional   0.00
      1 z          0.000000      0.000000     0.000000    Fractional   0.00
      2 x          0.500000      0.500000     0.000000    Fractional   0.00
      2 y          0.500000      0.500000     0.000000    Fractional   0.00
      2 z          0.500000      0.500000     0.000000    Fractional   0.00
      3 x          0.500000      0.500000     0.000000    Fractional   0.00
      3 y          0.000000      0.000000     0.000000    Fractional   0.00
      3 z          0.000000      0.000000     0.000000    Fractional   0.00
      4 x          0.000000      0.000000     0.000000    Fractional   0.00
      4 y          0.000000      0.000000     0.000000    Fractional   0.00
      4 z          0.000000      0.000000     0.000000    Fractional   0.00
      5 x          0.500000      0.500000     0.000000    Fractional   0.00
      5 y          0.500000      0.500000     0.000000    Fractional   0.00
      5 z          0.500000      0.500000     0.000000    Fractional   0.00
--------------------------------------------------------------------------------


  Born effective charge tensors : 

-------------------------------------------------------------------------------
  Atom             x           y             z
-------------------------------------------------------------------------------
    1 O     x      -2.2939      0.0000      0.0000
            y       0.0000     -2.2939      0.0000
            z       0.0000      0.0000     -2.2939
-------------------------------------------------------------------------------
    2 Cl    x      -0.9918     -0.0000      0.0000
            y      -0.0000     -0.9918      0.0000
            z       0.0000      0.0000     -0.9918
-------------------------------------------------------------------------------
    3 Na    x       0.8372     -0.0000     -0.0000
            y      -0.0000      1.2243     -0.0000
            z       0.0000     -0.0000      1.2243
-------------------------------------------------------------------------------




  Elastic Constant Matrix: (Units=GPa)

-------------------------------------------------------------------------------
  Indices      1         2         3         4         5         6    
-------------------------------------------------------------------------------
       1     82.7680   24.3534   24.3534   -0.0000    0.0000   -0.0000
       2     24.3534   82.7680   24.3534   -0.0000   -0.0000   -0.0000
       3     24.3534   24.3534   82.7680    0.0000   -0.0000    0.0000
       4     -0.0000   -0.0000    0.0000   24.3534   -0.0000   -0.0000
       5      0.0000   -0.0000   -0.0000   -0.0000   24.3534   -0.0000
       6     -0.0000   -0.0000    0.0000   -0.0000   -0.0000   24.3534
-------------------------------------------------------------------------------


  Elastic Compliance Matrix: (Units=1/GPa)

-------------------------------------------------------------------------------
  Indices      1         2         3         4         5         6    
-------------------------------------------------------------------------------
       1    0.013948 -0.003171 -0.003171 -0.000000 -0.000000  0.000000
       2   -0.003171  0.013948 -0.003171  0.000000 -0.000000  0.000000
       3   -0.003171 -0.003171  0.013948 -0.000000  0.000000 -0.000000
       4   -0.000000  0.000000 -0.000000  0.041062  0.000000  0.000000
       5   -0.000000 -0.000000  0.000000  0.000000  0.041062  0.000000
       6    0.000000  0.000000 -0.000000  0.000000  0.000000  0.041062
-------------------------------------------------------------------------------

  Mechanical properties :

-------------------------------------------------------------------------------
  Convention :                    Reuss         Voigt         Hill
-------------------------------------------------------------------------------
  Bulk  Modulus (GPa)     =      43.82493      43.82493      43.82493
  Shear Modulus (GPa)     =      26.08758      26.29496      26.19127
-------------------------------------------------------------------------------
  Velocity S-wave (km/s)  =       3.34035       3.35360       3.34698
  Velocity P-wave (km/s)  =       5.79842       5.80861       5.80351
-------------------------------------------------------------------------------
  Compressibility (1/GPa) =    0.02281806
-------------------------------------------------------------------------------
  Stress axis :                     x             y             z
-------------------------------------------------------------------------------
  Youngs Moduli (GPa)     =      71.69479      71.69479      71.69479
-------------------------------------------------------------------------------
  Poissons Ratio (x)      =                     0.22734       0.22734
  Poissons Ratio (y)      =       0.22734                     0.22734
  Poissons Ratio (z)      =       0.22734       0.22734
-------------------------------------------------------------------------------


  Piezoelectric Strain Matrix: (Units=C/m**2)

-------------------------------------------------------------------------------
  Indices      1         2         3         4         5         6    
-------------------------------------------------------------------------------
       x    -0.00000  -0.00000  -0.00000  -0.00000   0.00000   0.00000
       y    -0.00000   0.00000  -0.00000   0.00000  -0.00000   0.00000
       z     0.00000   0.00000   0.00000  -0.00000   0.00000  -0.00000
-------------------------------------------------------------------------------


  Piezoelectric Stress Matrix: (Units=10**-11 C/N)

-------------------------------------------------------------------------------
  Indices      1         2         3         4         5         6    
-------------------------------------------------------------------------------
       x    -0.00000  -0.00000  -0.00000  -0.00000   0.00000   0.00000
       y    -0.00000   0.00000  -0.00000   0.00000  -0.00000   0.00000
       z     0.00000   0.00000  -0.00000  -0.00000   0.00000  -0.00000
-------------------------------------------------------------------------------


  Static dielectric constant tensor : 

-------------------------------------------------------------------------------
              x         y         z
-------------------------------------------------------------------------------
       x    11.08357  -0.00000  -0.00000
       y    -0.00000  11.08357  -0.00000
       z    -0.00000  -0.00000  11.08357
--------------------------------------------------------------------------------

  High frequency dielectric constant tensor : 

-------------------------------------------------------------------------------
              x         y         z
-------------------------------------------------------------------------------
       x     1.50771  -0.00000  -0.00000
       y    -0.00000   1.50771  -0.00000
       z    -0.00000  -0.00000   1.50771
-------------------------------------------------------------------------------

  Static refractive indices : 

-------------------------------------------------------------------------------
    1 =    3.32920      2 =    3.32920      3 =    3.32920
-------------------------------------------------------------------------------

  High frequency refractive indices : 

-------------------------------------------------------------------------------
    1 =    1.22789      2 =    1.22789      3 =    1.22789
-------------------------------------------------------------------------------


  Time to end of optimisation =       0.0104 seconds

********************************************************************************
*  Defect calculation for configuration   1 :                                  *
********************************************************************************

  Total number of defects =      3

  Total charge on defect  =   2.00

  Defect centre is at   2.2520   2.2520   0.0000  Angs

  Region 1 radius =  12.0000      Number of ions =    622

  Number of symmetry inequivalent region 1 ions  =    201

  Region 2 radius =  16.0000      Number of ions =    762

  Number of symmetry inequivalent region 2a ions =    224

  Region 2a mode = 4 : screened electrostatics due to region 1 
                       neglect correction to region 1 forces from 2a
                       region 2a displacements based on defects only

  Region 2a ions will only interact with defects in region 1

  Vacancies:

--------------------------------------------------------------------------------
    Specification type     Symbol/Number         x          y          z
--------------------------------------------------------------------------------
    Cartesian                                0.000000   0.000000   0.000000
    Cartesian                                4.504000   4.504000   0.000000
--------------------------------------------------------------------------------

  Interstitials:

--------------------------------------------------------------------------------
    Specification type     Symbol/Number         x          y          z
--------------------------------------------------------------------------------
    Atom/Cartesian          O                0.090080   0.090080   0.000000
--------------------------------------------------------------------------------


  Symmetry reduced region 1 (Relative to defect centre) :

--------------------------------------------------------------------------------
   No.   Atomic       x            y             z       Radius  Multiplicity   
         Label      (Angs)       (Angs)        (Angs)    (Angs)     
--------------------------------------------------------------------------------
     1  Na    c     -0.0490 *     2.1539 *     0.0000    0.0000     2          
     2  Cl    c     -0.0490 *    -0.0490      -2.2030 *  0.0000     2          
     3  Na    c     -0.0490 *    -2.2520 *     0.0000    0.0000     2          
     4  O     c     -2.1619      -2.1619       0.0000    0.0000     1    Defect
     5  O     c      2.1539 *    -2.2520 *     0.0000    0.0000     2          
     6  Na    c      2.1539 *     2.1539      -2.2030 *  0.0000     2          
     7  Na    c      2.1539 *    -2.2520 *    -2.2030 *  0.0000     4          
     8  Na    c     -2.2520 *    -2.2520      -2.2030 *  0.0000     2          
     9  Na    c      4.3569 *     2.1539 *     0.0000    0.0000     2          
    10  Cl    c     -0.0490 *     4.3569 *    -2.2030 *  0.0000     4          
    11  Na    c     -0.0490 *     2.1539 *     4.4059 *  0.0000     4          
    12  Na    c      4.3569 *    -2.2520 *     0.0000    0.0000     2          
    13  Na    c     -0.0490 *    -2.2520 *     4.4059 *  0.0000     4          
    14  Na    c     -4.4550 *     2.1539 *     0.0000    0.0000     2          
    15  Cl    c     -0.0490 *    -4.4550 *    -2.2030 *  0.0000     4          
    16  Na    c     -4.4550 *    -2.2520 *     0.0000    0.0000     2          
    17  O     c      2.1539 *     2.1539       4.4059 *  0.0000     2          
    18  O     c      2.1539 *    -2.2520 *     4.4059 *  0.0000     4          
    19  O     c     -2.2520 *    -2.2520       4.4059 *  0.0000     2          
    20  Cl    c      4.3569 *     4.3569      -2.2030 *  0.0000     2          
    21  Na    c     -0.0490 *     6.5598 *     0.0000    0.0000     2          
    22  Na    c      4.3569 *     2.1539 *     4.4059 *  0.0000     4          
    23  Na    c      4.3569 *    -2.2520 *     4.4059 *  0.0000     4          
    24  Cl    c     -0.0490 *    -0.0490       6.6089 *  0.0000     2          
    25  Cl    c      4.3569 *    -4.4550 *    -2.2030 *  0.0000     4          
    26  Na    c     -4.4550 *     2.1539 *     4.4059 *  0.0000     4          
    27  Na    c     -0.0490 *    -6.6579 *     0.0000    0.0000     2          
    28  Na    c     -4.4550 *    -2.2520 *     4.4059 *  0.0000     4          
    29  Cl    c     -4.4550 *    -4.4550      -2.2030 *  0.0000     2          
    30  O     c      2.1539 *     6.5598 *     0.0000    0.0000     2          
    31  O     c      6.5598 *    -2.2520 *     0.0000    0.0000     2          
    32  O     c      2.1539 *    -6.6579 *     0.0000    0.0000     2          
    33  O     c     -2.2520 *    -6.6579 *     0.0000    0.0000     2          
    34  Na    c      2.1539 *     6.5598 *    -2.2030 *  0.0000     4          
    35  Na    c      2.1539 *     2.1539       6.6089 *  0.0000     2          
    36  Na    c      6.5598 *    -2.2520 *    -2.2030 *  0.0000     4          
    37  Na    c      2.1539 *    -2.2520 *     6.6089 *  0.0000     4          
    38  Na    c      2.1539 *    -6.6579 *    -2.2030 *  0.0000     4          
    39  Na    c     -2.2520 *    -2.2520       6.6089 *  0.0000     2          
    40  Na    c     -2.2520 *    -6.6579 *    -2.2030 *  0.0000     4          
    41  Na    c      4.3569 *     6.5598 *     0.0000    0.0000     2          
    42  Na    c     -0.0490 *     6.5598 *     4.4059 *  0.0000     4          
    43  Cl    c     -0.0490 *     4.3569 *     6.6089 *  0.0000     4          
    44  Na    c     -4.4550 *     6.5598 *     0.0000    0.0000     2          
    45  Na    c      4.3569 *    -6.6579 *     0.0000    0.0000     2          
    46  Cl    c     -0.0490 *    -4.4550 *     6.6089 *  0.0000     4          
    47  Na    c     -0.0490 *    -6.6579 *     4.4059 *  0.0000     4          
    48  Na    c     -4.4550 *    -6.6579 *     0.0000    0.0000     2          
    49  O     c      2.1539 *     6.5598 *     4.4059 *  0.0000     4          
    50  O     c      6.5598 *    -2.2520 *     4.4059 *  0.0000     4          
    51  O     c      2.1539 *    -6.6579 *     4.4059 *  0.0000     4          
    52  O     c     -2.2520 *    -6.6579 *     4.4059 *  0.0000     4          
    53  Na    c      4.3569 *     6.5598 *     4.4059 *  0.0000     4          
    54  Na    c      8.7628 *     2.1539 *     0.0000    0.0000     2          
    55  Cl    c     -0.0490 *     8.7628 *    -2.2030 *  0.0000     4          
    56  Cl    c      4.3569 *     4.3569       6.6089 *  0.0000     2          
    57  Na    c      8.7628 *    -2.2520 *     0.0000    0.0000     2          
    58  Na    c     -0.0490 *     2.1539 *     8.8118 *  0.0000     4          
    59  Na    c     -4.4550 *     6.5598 *     4.4059 *  0.0000     4          
    60  Cl    c      4.3569 *    -4.4550 *     6.6089 *  0.0000     4          
    61  Na    c     -0.0490 *    -2.2520 *     8.8118 *  0.0000     4          
    62  Na    c      4.3569 *    -6.6579 *     4.4059 *  0.0000     4          
    63  Na    c     -8.8609 *     2.1539 *     0.0000    0.0000     2          
    64  Cl    c     -0.0490 *    -8.8609 *    -2.2030 *  0.0000     4          
    65  Cl    c     -4.4550 *    -4.4550       6.6089 *  0.0000     2          
    66  Na    c     -8.8609 *    -2.2520 *     0.0000    0.0000     2          
    67  Na    c     -4.4550 *    -6.6579 *     4.4059 *  0.0000     4          
    68  O     c      6.5598 *     6.5598       0.0000    0.0000     1          
    69  O     c      2.1539 *     2.1539       8.8118 *  0.0000     2          
    70  O     c      2.1539 *    -2.2520 *     8.8118 *  0.0000     4          
    71  O     c      6.5598 *    -6.6579 *     0.0000    0.0000     2          
    72  O     c     -2.2520 *    -2.2520       8.8118 *  0.0000     2          
    73  O     c     -6.6579 *    -6.6579       0.0000    0.0000     1          
    74  Na    c      6.5598 *     6.5598      -2.2030 *  0.0000     2          
    75  Na    c      2.1539 *     6.5598 *     6.6089 *  0.0000     4          
    76  Na    c      6.5598 *    -2.2520 *     6.6089 *  0.0000     4          
    77  Na    c      6.5598 *    -6.6579 *    -2.2030 *  0.0000     4          
    78  Na    c      2.1539 *    -6.6579 *     6.6089 *  0.0000     4          
    79  Na    c     -2.2520 *    -6.6579 *     6.6089 *  0.0000     4          
    80  Na    c     -6.6579 *    -6.6579      -2.2030 *  0.0000     2          
    81  Cl    c      4.3569 *     8.7628 *    -2.2030 *  0.0000     4          
    82  Na    c      8.7628 *     2.1539 *     4.4059 *  0.0000     4          
    83  Na    c      4.3569 *     2.1539 *     8.8118 *  0.0000     4          
    84  Na    c      8.7628 *    -2.2520 *     4.4059 *  0.0000     4          
    85  Cl    c      8.7628 *    -4.4550 *    -2.2030 *  0.0000     4          
    86  Na    c      4.3569 *    -2.2520 *     8.8118 *  0.0000     4          
    87  Na    c     -4.4550 *     2.1539 *     8.8118 *  0.0000     4          
    88  Cl    c      4.3569 *    -8.8609 *    -2.2030 *  0.0000     4          
    89  Na    c     -8.8609 *     2.1539 *     4.4059 *  0.0000     4          
    90  Na    c     -4.4550 *    -2.2520 *     8.8118 *  0.0000     4          
    91  Na    c     -8.8609 *    -2.2520 *     4.4059 *  0.0000     4          
    92  Cl    c     -4.4550 *    -8.8609 *    -2.2030 *  0.0000     4          
    93  O     c      6.5598 *     6.5598       4.4059 *  0.0000     2          
    94  O     c      6.5598 *    -6.6579 *     4.4059 *  0.0000     4          
    95  O     c     -6.6579 *    -6.6579       4.4059 *  0.0000     2          
    96  Na    c      8.7628 *     6.5598 *     0.0000    0.0000     2          
    97  Na    c     -0.0490 *    10.9657 *     0.0000    0.0000     2          
    98  Cl    c     -0.0490 *     8.7628 *     6.6089 *  0.0000     4          
    99  Na    c     -0.0490 *     6.5598 *     8.8118 *  0.0000     4          
   100  Na    c      8.7628 *    -6.6579 *     0.0000    0.0000     2          
   101  Cl    c     -0.0490 *    -0.0490      11.0148 *  0.0000     2          
   102  Na    c     -8.8609 *     6.5598 *     0.0000    0.0000     2          
   103  Na    c     -0.0490 *    -6.6579 *     8.8118 *  0.0000     4          
   104  Cl    c     -0.0490 *    -8.8609 *     6.6089 *  0.0000     4          
   105  Na    c     -0.0490 *   -11.0638 *     0.0000    0.0000     2          
   106  Na    c     -8.8609 *    -6.6579 *     0.0000    0.0000     2          
   107  O     c      2.1539 *    10.9657 *     0.0000    0.0000     2          
   108  O     c      2.1539 *     6.5598 *     8.8118 *  0.0000     4          
   109  O     c     10.9657 *    -2.2520 *     0.0000    0.0000     2          
   110  O     c      6.5598 *    -2.2520 *     8.8118 *  0.0000     4          
   111  O     c      2.1539 *    -6.6579 *     8.8118 *  0.0000     4          
   112  O     c      2.1539 *   -11.0638 *     0.0000    0.0000     2          
   113  O     c     -2.2520 *    -6.6579 *     8.8118 *  0.0000     4          
   114  O     c     -2.2520 *   -11.0638 *     0.0000    0.0000     2          
   115  Na    c      6.5598 *     6.5598       6.6089 *  0.0000     2          
   116  Na    c      2.1539 *    10.9657 *    -2.2030 *  0.0000     4          
   117  Na    c     10.9657 *    -2.2520 *    -2.2030 *  0.0000     4          
   118  Na    c      2.1539 *     2.1539      11.0148 *  0.0000     2          
   119  Na    c      2.1539 *    -2.2520 *    11.0148 *  0.0000     4          
   120  Na    c      6.5598 *    -6.6579 *     6.6089 *  0.0000     4          
   121  Na    c     -2.2520 *    -2.2520      11.0148 *  0.0000     2          
   122  Na    c      2.1539 *   -11.0638 *    -2.2030 *  0.0000     4          
   123  Na    c     -2.2520 *   -11.0638 *    -2.2030 *  0.0000     4          
   124  Na    c     -6.6579 *    -6.6579       6.6089 *  0.0000     2          
   125  Na    c      4.3569 *    10.9657 *     0.0000    0.0000     2          
   126  Na    c      8.7628 *     6.5598 *     4.4059 *  0.0000     4          
   127  Cl    c      4.3569 *     8.7628 *     6.6089 *  0.0000     4          
   128  Na    c     -0.0490 *    10.9657 *     4.4059 *  0.0000     4          
   129  Na    c      4.3569 *     6.5598 *     8.8118 *  0.0000     4          
   130  Na    c     -4.4550 *    10.9657 *     0.0000    0.0000     2          
   131  Cl    c     -0.0490 *     4.3569 *    11.0148 *  0.0000     4          
   132  Cl    c      8.7628 *    -4.4550 *     6.6089 *  0.0000     4          
   133  Na    c     -4.4550 *     6.5598 *     8.8118 *  0.0000     4          
   134  Na    c      8.7628 *    -6.6579 *     4.4059 *  0.0000     4          
   135  Na    c      4.3569 *    -6.6579 *     8.8118 *  0.0000     4          
   136  Na    c     -8.8609 *     6.5598 *     4.4059 *  0.0000     4          
   137  Cl    c     -0.0490 *    -4.4550 *    11.0148 *  0.0000     4          
   138  Cl    c      4.3569 *    -8.8609 *     6.6089 *  0.0000     4          
   139  Na    c      4.3569 *   -11.0638 *     0.0000    0.0000     2          
   140  Na    c     -0.0490 *   -11.0638 *     4.4059 *  0.0000     4          
   141  Na    c     -4.4550 *    -6.6579 *     8.8118 *  0.0000     4          
   142  Cl    c     -4.4550 *    -8.8609 *     6.6089 *  0.0000     4          
   143  Na    c     -4.4550 *   -11.0638 *     0.0000    0.0000     2          
   144  Na    c     -8.8609 *    -6.6579 *     4.4059 *  0.0000     4          
   145  Cl    s     -0.0490 *    -0.0490      -2.2030 *  0.0000     2          
   146  O     s     -2.1619      -2.1619       0.0000    0.0000     1    Defect
   147  O     s      2.1539 *    -2.2520 *     0.0000    0.0000     2          
   148  Cl    s     -0.0490 *     4.3569 *    -2.2030 *  0.0000     4          
   149  Cl    s     -0.0490 *    -4.4550 *    -2.2030 *  0.0000     4          
   150  O     s      2.1539 *     2.1539       4.4059 *  0.0000     2          
   151  O     s      2.1539 *    -2.2520 *     4.4059 *  0.0000     4          
   152  O     s     -2.2520 *    -2.2520       4.4059 *  0.0000     2          
   153  Cl    s      4.3569 *     4.3569      -2.2030 *  0.0000     2          
   154  Cl    s     -0.0490 *    -0.0490       6.6089 *  0.0000     2          
   155  Cl    s      4.3569 *    -4.4550 *    -2.2030 *  0.0000     4          
   156  Cl    s     -4.4550 *    -4.4550      -2.2030 *  0.0000     2          
   157  O     s      2.1539 *     6.5598 *     0.0000    0.0000     2          
   158  O     s      6.5598 *    -2.2520 *     0.0000    0.0000     2          
   159  O     s      2.1539 *    -6.6579 *     0.0000    0.0000     2          
   160  O     s     -2.2520 *    -6.6579 *     0.0000    0.0000     2          
   161  Cl    s     -0.0490 *     4.3569 *     6.6089 *  0.0000     4          
   162  Cl    s     -0.0490 *    -4.4550 *     6.6089 *  0.0000     4          
   163  O     s      2.1539 *     6.5598 *     4.4059 *  0.0000     4          
   164  O     s      6.5598 *    -2.2520 *     4.4059 *  0.0000     4          
   165  O     s      2.1539 *    -6.6579 *     4.4059 *  0.0000     4          
   166  O     s     -2.2520 *    -6.6579 *     4.4059 *  0.0000     4          
   167  Cl    s     -0.0490 *     8.7628 *    -2.2030 *  0.0000     4          
   168  Cl    s      4.3569 *     4.3569       6.6089 *  0.0000     2          
   169  Cl    s      4.3569 *    -4.4550 *     6.6089 *  0.0000     4          
   170  Cl    s     -0.0490 *    -8.8609 *    -2.2030 *  0.0000     4          
   171  Cl    s     -4.4550 *    -4.4550       6.6089 *  0.0000     2          
   172  O     s      6.5598 *     6.5598       0.0000    0.0000     1          
   173  O     s      2.1539 *     2.1539       8.8118 *  0.0000     2          
   174  O     s      2.1539 *    -2.2520 *     8.8118 *  0.0000     4          
   175  O     s      6.5598 *    -6.6579 *     0.0000    0.0000     2          
   176  O     s     -2.2520 *    -2.2520       8.8118 *  0.0000     2          
   177  O     s     -6.6579 *    -6.6579       0.0000    0.0000     1          
   178  Cl    s      4.3569 *     8.7628 *    -2.2030 *  0.0000     4          
   179  Cl    s      8.7628 *    -4.4550 *    -2.2030 *  0.0000     4          
   180  Cl    s      4.3569 *    -8.8609 *    -2.2030 *  0.0000     4          
   181  Cl    s     -4.4550 *    -8.8609 *    -2.2030 *  0.0000     4          
   182  O     s      6.5598 *     6.5598       4.4059 *  0.0000     2          
   183  O     s      6.5598 *    -6.6579 *     4.4059 *  0.0000     4          
   184  O     s     -6.6579 *    -6.6579       4.4059 *  0.0000     2          
   185  Cl    s     -0.0490 *     8.7628 *     6.6089 *  0.0000     4          
   186  Cl    s     -0.0490 *    -0.0490      11.0148 *  0.0000     2          
   187  Cl    s     -0.0490 *    -8.8609 *     6.6089 *  0.0000     4          
   188  O     s      2.1539 *    10.9657 *     0.0000    0.0000     2          
   189  O     s      2.1539 *     6.5598 *     8.8118 *  0.0000     4          
   190  O     s     10.9657 *    -2.2520 *     0.0000    0.0000     2          
   191  O     s      6.5598 *    -2.2520 *     8.8118 *  0.0000     4          
   192  O     s      2.1539 *    -6.6579 *     8.8118 *  0.0000     4          
   193  O     s      2.1539 *   -11.0638 *     0.0000    0.0000     2          
   194  O     s     -2.2520 *    -6.6579 *     8.8118 *  0.0000     4          
   195  O     s     -2.2520 *   -11.0638 *     0.0000    0.0000     2          
   196  Cl    s      4.3569 *     8.7628 *     6.6089 *  0.0000     4          
   197  Cl    s     -0.0490 *     4.3569 *    11.0148 *  0.0000     4          
   198  Cl    s      8.7628 *    -4.4550 *     6.6089 *  0.0000     4          
   199  Cl    s     -0.0490 *    -4.4550 *    11.0148 *  0.0000     4          
   200  Cl    s      4.3569 *    -8.8609 *     6.6089 *  0.0000     4          
   201  Cl    s     -4.4550 *    -8.8609 *     6.6089 *  0.0000     4          
--------------------------------------------------------------------------------


  Constraints on symmetry reduced coordinates :

--------------------------------------------------------------------------------
  Constraint no.      Unconstrained     Constrained    Coefficient    
                         Variable         Variable
--------------------------------------------------------------------------------
           1                 2 x             2 y         1.00000
           2                 6 x             6 y         1.00000
           3                 8 x             8 y         1.00000
           4                17 x            17 y         1.00000
           5                19 x            19 y         1.00000
           6                20 x            20 y         1.00000
           7                24 x            24 y         1.00000
           8                29 x            29 y         1.00000
           9                35 x            35 y         1.00000
          10                39 x            39 y         1.00000
          11                56 x            56 y         1.00000
          12                65 x            65 y         1.00000
          13                68 x            68 y         1.00000
          14                69 x            69 y         1.00000
          15                72 x            72 y         1.00000
          16                73 x            73 y         1.00000
          17                74 x            74 y         1.00000
          18                80 x            80 y         1.00000
          19                93 x            93 y         1.00000
          20                95 x            95 y         1.00000
          21               101 x           101 y         1.00000
          22               115 x           115 y         1.00000
          23               118 x           118 y         1.00000
          24               121 x           121 y         1.00000
          25               124 x           124 y         1.00000
          26               145 x           145 y         1.00000
          27               150 x           150 y         1.00000
          28               152 x           152 y         1.00000
          29               153 x           153 y         1.00000
          30               154 x           154 y         1.00000
          31               156 x           156 y         1.00000
          32               168 x           168 y         1.00000
          33               171 x           171 y         1.00000
          34               172 x           172 y         1.00000
          35               173 x           173 y         1.00000
          36               176 x           176 y         1.00000
          37               177 x           177 y         1.00000
          38               182 x           182 y         1.00000
          39               184 x           184 y         1.00000
          40               186 x           186 y         1.00000
--------------------------------------------------------------------------------


  Components of defect energy : 

--------------------------------------------------------------------------------
  Region 1 - region 1                   =     89.47098806 eV
  Region 1 - region 2a (unrelaxed)      =    -54.18445475 eV
  Region 1 - 2a (relaxed - correction)  =     -1.08118135 eV
  Region 1 (Total)                      =     34.20535196 eV
  Region 2a                             =      0.54107702 eV
  Region 2b                             =     -1.67713811 eV
--------------------------------------------------------------------------------
  Total defect energy                   =     33.06929086 eV
--------------------------------------------------------------------------------

  Largest displacement in region 2 =   0.0509 Angstroms


  Number of variables =      507

  Maximum number of calculations  =        1000
  Maximum Hessian update interval =          10
  Maximum step size               =   1.0000000
  Maximum parameter tolerance     =   0.0000100
  Maximum function  tolerance     =   0.0000100
  Maximum gradient  tolerance     =   0.0010000

  Symmetry adapted optimisation

  Symmetry to be used for second derivatives

  Newton-Raphson optimiser to be used

  BFGS hessian update to be used

  Lower half triangular hessian to be used

  Start of defect optimisation :

  Cycle:      0 Defect Energy:  33.069291  Gnorm:     0.086954  CPU:    0.732
  ** Hessian calculated **
  Cycle:      1 Defect Energy:  27.305262  Gnorm:     0.064056  CPU:   11.107
  Cycle:      2 Defect Energy:  22.519064  Gnorm:     0.011965  CPU:   14.517
  ** Hessian calculated **
  Cycle:      3 Defect Energy:  21.956691  Gnorm:     0.001373  CPU:   19.092
  Cycle:      4 Defect Energy:  21.941117  Gnorm:     0.000871  CPU:   19.725
  Cycle:      5 Defect Energy:  21.936807  Gnorm:     0.000642  CPU:   20.436
  Cycle:      6 Defect Energy:  21.934165  Gnorm:     0.000455  CPU:   21.062
  Cycle:      7 Defect Energy:  21.932820  Gnorm:     0.000319  CPU:   21.666
  Cycle:      8 Defect Energy:  21.932107  Gnorm:     0.000224  CPU:   22.229
  Cycle:      9 Defect Energy:  21.931777  Gnorm:     0.000157  CPU:   22.776
  Cycle:     10 Defect Energy:  21.931534  Gnorm:     0.000110  CPU:   23.376
  Cycle:     11 Defect Energy:  21.931459  Gnorm:     0.000077  CPU:   23.976
  Cycle:     12 Defect Energy:  21.931424  Gnorm:     0.000054  CPU:   24.577
  ** Hessian calculated **
  Cycle:     13 Defect Energy:  21.931409  Gnorm:     0.000038  CPU:   26.872


  **** Optimisation achieved ****


  Final defect energy  =       21.93140223
  Final defect Gnorm   =        0.00002643

  Components of defect energy : 

--------------------------------------------------------------------------------
  Region 1 - region 1                   =     71.09740552 eV
  Region 1 - region 2a (unrelaxed)      =    -47.13712144 eV
  Region 1 - 2a (relaxed - correction)  =     -0.76387059 eV
  Region 1 (Total)                      =     23.19641348 eV
  Region 2a                             =      0.38131498 eV
  Region 2b                             =     -1.64632623 eV
--------------------------------------------------------------------------------
  Total defect energy                   =     21.93140223 eV
--------------------------------------------------------------------------------

  Largest displacement in region 2 =   0.0509 Angstroms

  Final coordinates of region 1 :

--------------------------------------------------------------------------------
   No.  Atomic        x           y           z          Radius      Charge
        Label       (Angs)      (Angs)      (Angs)       (Angs)       (e) 
--------------------------------------------------------------------------------
     1  Na    c     1.917661    4.454484    0.000000    0.000000    1.000000
     2  Na    c     4.454484    1.917661    0.000000    0.000000    1.000000
     3  Cl    c     2.535664    2.535664   -1.895490    0.000000    1.485000
     4  Cl    c     2.535664    2.535664    1.895490    0.000000    1.485000
     5  Na    c     2.235486   -0.068890    0.000000    0.000000    1.000000
     6  Na    c    -0.068890    2.235486    0.000000    0.000000    1.000000
     7  O     c     0.090080    0.090080    0.000000    0.000000    0.183000
     8  O     c     4.440186   -0.152482    0.000000    0.000000    0.183000
     9  O     c    -0.152482    4.440186    0.000000    0.000000    0.183000
    10  Na    c     4.424363    4.424363   -2.498785    0.000000    1.000000
    11  Na    c     4.424363    4.424363    2.498785    0.000000    1.000000
    12  Na    c     4.424687   -0.145930   -2.224225    0.000000    1.000000
    13  Na    c     4.424687   -0.145930    2.224225    0.000000    1.000000
    14  Na    c    -0.145930    4.424687   -2.224225    0.000000    1.000000
    15  Na    c    -0.145930    4.424687    2.224225    0.000000    1.000000
    16  Na    c    -0.023322   -0.023322   -2.201047    0.000000    1.000000
    17  Na    c    -0.023322   -0.023322    2.201047    0.000000    1.000000
    18  Na    c     6.906882    4.414310    0.000000    0.000000    1.000000
    19  Na    c     4.414310    6.906882    0.000000    0.000000    1.000000
    20  Cl    c     2.514877    6.343243   -1.917436    0.000000    1.485000
    21  Cl    c     2.514877    6.343243    1.917436    0.000000    1.485000
    22  Cl    c     6.343243    2.514877   -1.917436    0.000000    1.485000
    23  Cl    c     6.343243    2.514877    1.917436    0.000000    1.485000
    24  Na    c     2.183806    4.407416    4.519649    0.000000    1.000000
    25  Na    c     2.183806    4.407416   -4.519649    0.000000    1.000000
    26  Na    c     4.407416    2.183806    4.519649    0.000000    1.000000
    27  Na    c     4.407416    2.183806   -4.519649    0.000000    1.000000
    28  Na    c     6.646935   -0.167410    0.000000    0.000000    1.000000
    29  Na    c    -0.167410    6.646935    0.000000    0.000000    1.000000
    30  Na    c     2.207303   -0.077802    4.485770    0.000000    1.000000
    31  Na    c     2.207303   -0.077802   -4.485770    0.000000    1.000000
    32  Na    c    -0.077802    2.207303    4.485770    0.000000    1.000000
    33  Na    c    -0.077802    2.207303   -4.485770    0.000000    1.000000
    34  Na    c    -2.301419    4.384611    0.000000    0.000000    1.000000
    35  Na    c     4.384611   -2.301419    0.000000    0.000000    1.000000
    36  Cl    c     2.207666   -2.157034   -2.212067    0.000000    1.485000
    37  Cl    c     2.207666   -2.157034    2.212067    0.000000    1.485000
    38  Cl    c    -2.157034    2.207666   -2.212067    0.000000    1.485000
    39  Cl    c    -2.157034    2.207666    2.212067    0.000000    1.485000
    40  Na    c    -2.187364    0.023852    0.000000    0.000000    1.000000
    41  Na    c     0.023852   -2.187364    0.000000    0.000000    1.000000
    42  O     c     4.409274    4.409274    4.564746    0.000000    0.183000
    43  O     c     4.409274    4.409274   -4.564746    0.000000    0.183000
    44  O     c     4.413418   -0.002441    4.408432    0.000000    0.183000
    45  O     c     4.413418   -0.002441   -4.408432    0.000000    0.183000
    46  O     c    -0.002441    4.413418    4.408432    0.000000    0.183000
    47  O     c    -0.002441    4.413418   -4.408432    0.000000    0.183000
    48  O     c     0.023256    0.023256    4.390642    0.000000    0.183000
    49  O     c     0.023256    0.023256   -4.390642    0.000000    0.183000
    50  Cl    c     6.331747    6.331747   -1.905545    0.000000    1.485000
    51  Cl    c     6.331747    6.331747    1.905545    0.000000    1.485000
    52  Na    c     2.179419    8.942359    0.000000    0.000000    1.000000
    53  Na    c     8.942359    2.179419    0.000000    0.000000    1.000000
    54  Na    c     6.628044    4.405972    4.554204    0.000000    1.000000
    55  Na    c     6.628044    4.405972   -4.554204    0.000000    1.000000
    56  Na    c     4.405972    6.628044    4.554204    0.000000    1.000000
    57  Na    c     4.405972    6.628044   -4.554204    0.000000    1.000000
    58  Na    c     6.615385   -0.081720    4.481903    0.000000    1.000000
    59  Na    c     6.615385   -0.081720   -4.481903    0.000000    1.000000
    60  Na    c    -0.081720    6.615385    4.481903    0.000000    1.000000
    61  Na    c    -0.081720    6.615385   -4.481903    0.000000    1.000000
    62  Cl    c     2.197827    2.197827    6.576161    0.000000    1.485000
    63  Cl    c     2.197827    2.197827   -6.576161    0.000000    1.485000
    64  Cl    c     6.638534   -2.173872   -2.218204    0.000000    1.485000
    65  Cl    c     6.638534   -2.173872    2.218204    0.000000    1.485000
    66  Cl    c    -2.173872    6.638534   -2.218204    0.000000    1.485000
    67  Cl    c    -2.173872    6.638534    2.218204    0.000000    1.485000
    68  Na    c    -2.230668    4.409385    4.447812    0.000000    1.000000
    69  Na    c    -2.230668    4.409385   -4.447812    0.000000    1.000000
    70  Na    c     4.409385   -2.230668    4.447812    0.000000    1.000000
    71  Na    c     4.409385   -2.230668   -4.447812    0.000000    1.000000
    72  Na    c     2.199311   -4.496603    0.000000    0.000000    1.000000
    73  Na    c    -4.496603    2.199311    0.000000    0.000000    1.000000
    74  Na    c    -2.204602   -0.020458    4.403561    0.000000    1.000000
    75  Na    c    -2.204602   -0.020458   -4.403561    0.000000    1.000000
    76  Na    c    -0.020458   -2.204602    4.403561    0.000000    1.000000
    77  Na    c    -0.020458   -2.204602   -4.403561    0.000000    1.000000
    78  Cl    c    -2.141513   -2.141513   -2.167394    0.000000    1.485000
    79  Cl    c    -2.141513   -2.141513    2.167394    0.000000    1.485000
    80  O     c     4.409155    8.970265    0.000000    0.000000    0.183000
    81  O     c     8.970265    4.409155    0.000000    0.000000    0.183000
    82  O     c     8.827274   -0.009802    0.000000    0.000000    0.183000
    83  O     c    -0.009802    8.827274    0.000000    0.000000    0.183000
    84  O     c     4.410385   -4.452974    0.000000    0.000000    0.183000
    85  O     c    -4.452974    4.410385    0.000000    0.000000    0.183000
    86  O     c     0.008193   -4.393578    0.000000    0.000000    0.183000
    87  O     c    -4.393578    0.008193    0.000000    0.000000    0.183000
    88  Na    c     4.395972    8.929244   -2.223068    0.000000    1.000000
    89  Na    c     4.395972    8.929244    2.223068    0.000000    1.000000
    90  Na    c     8.929244    4.395972   -2.223068    0.000000    1.000000
    91  Na    c     8.929244    4.395972    2.223068    0.000000    1.000000
    92  Na    c     4.377294    4.377294    6.705765    0.000000    1.000000
    93  Na    c     4.377294    4.377294   -6.705765    0.000000    1.000000
    94  Na    c     8.883710   -0.077208   -2.205944    0.000000    1.000000
    95  Na    c     8.883710   -0.077208    2.205944    0.000000    1.000000
    96  Na    c    -0.077208    8.883710   -2.205944    0.000000    1.000000
    97  Na    c    -0.077208    8.883710    2.205944    0.000000    1.000000
    98  Na    c     4.405190   -0.024156    6.634337    0.000000    1.000000
    99  Na    c     4.405190   -0.024156   -6.634337    0.000000    1.000000
   100  Na    c    -0.024156    4.405190    6.634337    0.000000    1.000000
   101  Na    c    -0.024156    4.405190   -6.634337    0.000000    1.000000
   102  Na    c     4.404331   -4.473093   -2.209242    0.000000    1.000000
   103  Na    c     4.404331   -4.473093    2.209242    0.000000    1.000000
   104  Na    c    -4.473093    4.404331   -2.209242    0.000000    1.000000
   105  Na    c    -4.473093    4.404331    2.209242    0.000000    1.000000
   106  Na    c    -0.015157   -0.015157    6.615026    0.000000    1.000000
   107  Na    c    -0.015157   -0.015157   -6.615026    0.000000    1.000000
   108  Na    c    -0.007356   -4.413741   -2.201664    0.000000    1.000000
   109  Na    c    -0.007356   -4.413741    2.201664    0.000000    1.000000
   110  Na    c    -4.413741   -0.007356   -2.201664    0.000000    1.000000
   111  Na    c    -4.413741   -0.007356    2.201664    0.000000    1.000000
   112  Na    c     6.630319    8.942350    0.000000    0.000000    1.000000
   113  Na    c     8.942350    6.630319    0.000000    0.000000    1.000000
   114  Na    c     2.197382    8.867436    4.482144    0.000000    1.000000
   115  Na    c     2.197382    8.867436   -4.482144    0.000000    1.000000
   116  Na    c     8.867436    2.197382    4.482144    0.000000    1.000000
   117  Na    c     8.867436    2.197382   -4.482144    0.000000    1.000000
   118  Cl    c     2.195083    6.628209    6.573851    0.000000    1.485000
   119  Cl    c     2.195083    6.628209   -6.573851    0.000000    1.485000
   120  Cl    c     6.628209    2.195083    6.573851    0.000000    1.485000
   121  Cl    c     6.628209    2.195083   -6.573851    0.000000    1.485000
   122  Na    c    -2.237827    8.866019    0.000000    0.000000    1.000000
   123  Na    c     8.866019   -2.237827    0.000000    0.000000    1.000000
   124  Na    c     6.619319   -4.463831    0.000000    0.000000    1.000000
   125  Na    c    -4.463831    6.619319    0.000000    0.000000    1.000000
   126  Cl    c     2.220667   -2.170241    6.580796    0.000000    1.485000
   127  Cl    c     2.220667   -2.170241   -6.580796    0.000000    1.485000
   128  Cl    c    -2.170241    2.220667    6.580796    0.000000    1.485000
   129  Cl    c    -2.170241    2.220667   -6.580796    0.000000    1.485000
   130  Na    c     2.198382   -4.422091    4.418529    0.000000    1.000000
   131  Na    c     2.198382   -4.422091   -4.418529    0.000000    1.000000
   132  Na    c    -4.422091    2.198382    4.418529    0.000000    1.000000
   133  Na    c    -4.422091    2.198382   -4.418529    0.000000    1.000000
   134  Na    c    -2.200968   -4.401637    0.000000    0.000000    1.000000
   135  Na    c    -4.401637   -2.200968    0.000000    0.000000    1.000000
   136  O     c     4.406634    8.814989    4.409224    0.000000    0.183000
   137  O     c     4.406634    8.814989   -4.409224    0.000000    0.183000
   138  O     c     8.814989    4.406634    4.409224    0.000000    0.183000
   139  O     c     8.814989    4.406634   -4.409224    0.000000    0.183000
   140  O     c     8.801911    0.011979    4.391386    0.000000    0.183000
   141  O     c     8.801911    0.011979   -4.391386    0.000000    0.183000
   142  O     c     0.011979    8.801911    4.391386    0.000000    0.183000
   143  O     c     0.011979    8.801911   -4.391386    0.000000    0.183000
   144  O     c     4.406972   -4.413111    4.404786    0.000000    0.183000
   145  O     c     4.406972   -4.413111   -4.404786    0.000000    0.183000
   146  O     c    -4.413111    4.406972    4.404786    0.000000    0.183000
   147  O     c    -4.413111    4.406972   -4.404786    0.000000    0.183000
   148  O     c    -0.000350   -4.399892    4.400552    0.000000    0.183000
   149  O     c    -0.000350   -4.399892   -4.400552    0.000000    0.183000
   150  O     c    -4.399892   -0.000350    4.400552    0.000000    0.183000
   151  O     c    -4.399892   -0.000350   -4.400552    0.000000    0.183000
   152  Na    c     6.612501    8.886719    4.471640    0.000000    1.000000
   153  Na    c     6.612501    8.886719   -4.471640    0.000000    1.000000
   154  Na    c     8.886719    6.612501    4.471640    0.000000    1.000000
   155  Na    c     8.886719    6.612501   -4.471640    0.000000    1.000000
   156  Na    c    11.104233    4.406646    0.000000    0.000000    1.000000
   157  Na    c     4.406646   11.104233    0.000000    0.000000    1.000000
   158  Cl    c     2.198134   10.992284   -2.215932    0.000000    1.485000
   159  Cl    c     2.198134   10.992284    2.215932    0.000000    1.485000
   160  Cl    c    10.992284    2.198134   -2.215932    0.000000    1.485000
   161  Cl    c    10.992284    2.198134    2.215932    0.000000    1.485000
   162  Cl    c     6.630757    6.630757    6.572988    0.000000    1.485000
   163  Cl    c     6.630757    6.630757   -6.572988    0.000000    1.485000
   164  Na    c    11.043586   -0.047199    0.000000    0.000000    1.000000
   165  Na    c    -0.047199   11.043586    0.000000    0.000000    1.000000
   166  Na    c     2.191957    4.400372    8.894444    0.000000    1.000000
   167  Na    c     2.191957    4.400372   -8.894444    0.000000    1.000000
   168  Na    c     4.400372    2.191957    8.894444    0.000000    1.000000
   169  Na    c     4.400372    2.191957   -8.894444    0.000000    1.000000
   170  Na    c    -2.218999    8.831105    4.416595    0.000000    1.000000
   171  Na    c    -2.218999    8.831105   -4.416595    0.000000    1.000000
   172  Na    c     8.831105   -2.218999    4.416595    0.000000    1.000000
   173  Na    c     8.831105   -2.218999   -4.416595    0.000000    1.000000
   174  Cl    c     6.604019   -2.172412    6.582437    0.000000    1.485000
   175  Cl    c     6.604019   -2.172412   -6.582437    0.000000    1.485000
   176  Cl    c    -2.172412    6.604019    6.582437    0.000000    1.485000
   177  Cl    c    -2.172412    6.604019   -6.582437    0.000000    1.485000
   178  Na    c     2.197445   -0.013875    8.837933    0.000000    1.000000
   179  Na    c     2.197445   -0.013875   -8.837933    0.000000    1.000000
   180  Na    c    -0.013875    2.197445    8.837933    0.000000    1.000000
   181  Na    c    -0.013875    2.197445   -8.837933    0.000000    1.000000
   182  Na    c     6.614709   -4.444666    4.410828    0.000000    1.000000
   183  Na    c     6.614709   -4.444666   -4.410828    0.000000    1.000000
   184  Na    c    -4.444666    6.614709    4.410828    0.000000    1.000000
   185  Na    c    -4.444666    6.614709   -4.410828    0.000000    1.000000
   186  Na    c    -6.644599    4.424409    0.000000    0.000000    1.000000
   187  Na    c     4.424409   -6.644599    0.000000    0.000000    1.000000
   188  Cl    c     2.207212   -6.590127   -2.201048    0.000000    1.485000
   189  Cl    c     2.207212   -6.590127    2.201048    0.000000    1.485000
   190  Cl    c    -6.590127    2.207212   -2.201048    0.000000    1.485000
   191  Cl    c    -6.590127    2.207212    2.201048    0.000000    1.485000
   192  Cl    c    -2.173103   -2.173103    6.578218    0.000000    1.485000
   193  Cl    c    -2.173103   -2.173103   -6.578218    0.000000    1.485000
   194  Na    c    -6.614336   -0.041879    0.000000    0.000000    1.000000
   195  Na    c    -0.041879   -6.614336    0.000000    0.000000    1.000000
   196  Na    c    -2.208313   -4.435730    4.413565    0.000000    1.000000
   197  Na    c    -2.208313   -4.435730   -4.413565    0.000000    1.000000
   198  Na    c    -4.435730   -2.208313    4.413565    0.000000    1.000000
   199  Na    c    -4.435730   -2.208313   -4.413565    0.000000    1.000000
   200  O     c     8.822860    8.822860    0.000000    0.000000    0.183000
   201  O     c     4.404766    4.404766    8.855998    0.000000    0.183000
   202  O     c     4.404766    4.404766   -8.855998    0.000000    0.183000
   203  O     c     4.407809   -0.002982    8.819509    0.000000    0.183000
   204  O     c     4.407809   -0.002982   -8.819509    0.000000    0.183000
   205  O     c    -0.002982    4.407809    8.819509    0.000000    0.183000
   206  O     c    -0.002982    4.407809   -8.819509    0.000000    0.183000
   207  O     c     8.821331   -4.419399    0.000000    0.000000    0.183000
   208  O     c    -4.419399    8.821331    0.000000    0.000000    0.183000
   209  O     c    -0.002845   -0.002845    8.811044    0.000000    0.183000
   210  O     c    -0.002845   -0.002845   -8.811044    0.000000    0.183000
   211  O     c    -4.401205   -4.401205    0.000000    0.000000    0.183000
   212  Na    c     8.880260    8.880260   -2.207567    0.000000    1.000000
   213  Na    c     8.880260    8.880260    2.207567    0.000000    1.000000
   214  Na    c     4.412484    8.839247    6.629901    0.000000    1.000000
   215  Na    c     4.412484    8.839247   -6.629901    0.000000    1.000000
   216  Na    c     8.839247    4.412484    6.629901    0.000000    1.000000
   217  Na    c     8.839247    4.412484   -6.629901    0.000000    1.000000
   218  Na    c     8.820091   -0.032194    6.615536    0.000000    1.000000
   219  Na    c     8.820091   -0.032194   -6.615536    0.000000    1.000000
   220  Na    c    -0.032194    8.820091    6.615536    0.000000    1.000000
   221  Na    c    -0.032194    8.820091   -6.615536    0.000000    1.000000
   222  Na    c     8.818700   -4.441143   -2.208557    0.000000    1.000000
   223  Na    c     8.818700   -4.441143    2.208557    0.000000    1.000000
   224  Na    c    -4.441143    8.818700   -2.208557    0.000000    1.000000
   225  Na    c    -4.441143    8.818700    2.208557    0.000000    1.000000
   226  Na    c     4.414603   -4.441488    6.612299    0.000000    1.000000
   227  Na    c     4.414603   -4.441488   -6.612299    0.000000    1.000000
   228  Na    c    -4.441488    4.414603    6.612299    0.000000    1.000000
   229  Na    c    -4.441488    4.414603   -6.612299    0.000000    1.000000
   230  Na    c    -0.022569   -4.418111    6.607187    0.000000    1.000000
   231  Na    c    -0.022569   -4.418111   -6.607187    0.000000    1.000000
   232  Na    c    -4.418111   -0.022569    6.607187    0.000000    1.000000
   233  Na    c    -4.418111   -0.022569   -6.607187    0.000000    1.000000
   234  Na    c    -4.427700   -4.427700   -2.202273    0.000000    1.000000
   235  Na    c    -4.427700   -4.427700    2.202273    0.000000    1.000000
   236  Cl    c     6.634774   10.984593   -2.214881    0.000000    1.485000
   237  Cl    c     6.634774   10.984593    2.214881    0.000000    1.485000
   238  Cl    c    10.984593    6.634774   -2.214881    0.000000    1.485000
   239  Cl    c    10.984593    6.634774    2.214881    0.000000    1.485000
   240  Na    c    11.033396    4.385865    4.431520    0.000000    1.000000
   241  Na    c    11.033396    4.385865   -4.431520    0.000000    1.000000
   242  Na    c     4.385865   11.033396    4.431520    0.000000    1.000000
   243  Na    c     4.385865   11.033396   -4.431520    0.000000    1.000000
   244  Na    c     6.610588    4.396534    8.857404    0.000000    1.000000
   245  Na    c     6.610588    4.396534   -8.857404    0.000000    1.000000
   246  Na    c     4.396534    6.610588    8.857404    0.000000    1.000000
   247  Na    c     4.396534    6.610588   -8.857404    0.000000    1.000000
   248  Na    c    11.022405   -0.009383    4.414849    0.000000    1.000000
   249  Na    c    11.022405   -0.009383   -4.414849    0.000000    1.000000
   250  Na    c    -0.009383   11.022405    4.414849    0.000000    1.000000
   251  Na    c    -0.009383   11.022405   -4.414849    0.000000    1.000000
   252  Cl    c    11.000800   -2.177413   -2.193227    0.000000    1.485000
   253  Cl    c    11.000800   -2.177413    2.193227    0.000000    1.485000
   254  Cl    c    -2.177413   11.000800   -2.193227    0.000000    1.485000
   255  Cl    c    -2.177413   11.000800    2.193227    0.000000    1.485000
   256  Na    c     6.611164   -0.011873    8.829260    0.000000    1.000000
   257  Na    c     6.611164   -0.011873   -8.829260    0.000000    1.000000
   258  Na    c    -0.011873    6.611164    8.829260    0.000000    1.000000
   259  Na    c    -0.011873    6.611164   -8.829260    0.000000    1.000000
   260  Na    c    -2.211272    4.398939    8.823701    0.000000    1.000000
   261  Na    c    -2.211272    4.398939   -8.823701    0.000000    1.000000
   262  Na    c     4.398939   -2.211272    8.823701    0.000000    1.000000
   263  Na    c     4.398939   -2.211272   -8.823701    0.000000    1.000000
   264  Cl    c     6.614226   -6.587347   -2.201662    0.000000    1.485000
   265  Cl    c     6.614226   -6.587347    2.201662    0.000000    1.485000
   266  Cl    c    -6.587347    6.614226   -2.201662    0.000000    1.485000
   267  Cl    c    -6.587347    6.614226    2.201662    0.000000    1.485000
   268  Na    c    -6.621750    4.388759    4.414027    0.000000    1.000000
   269  Na    c    -6.621750    4.388759   -4.414027    0.000000    1.000000
   270  Na    c     4.388759   -6.621750    4.414027    0.000000    1.000000
   271  Na    c     4.388759   -6.621750   -4.414027    0.000000    1.000000
   272  Na    c    -2.207590   -0.010160    8.818649    0.000000    1.000000
   273  Na    c    -2.207590   -0.010160   -8.818649    0.000000    1.000000
   274  Na    c    -0.010160   -2.207590    8.818649    0.000000    1.000000
   275  Na    c    -0.010160   -2.207590   -8.818649    0.000000    1.000000
   276  Na    c    -6.613028    0.002758    4.399948    0.000000    1.000000
   277  Na    c    -6.613028    0.002758   -4.399948    0.000000    1.000000
   278  Na    c     0.002758   -6.613028    4.399948    0.000000    1.000000
   279  Na    c     0.002758   -6.613028   -4.399948    0.000000    1.000000
   280  Cl    c    -2.191581   -6.583467   -2.196936    0.000000    1.485000
   281  Cl    c    -2.191581   -6.583467    2.196936    0.000000    1.485000
   282  Cl    c    -6.583467   -2.191581   -2.196936    0.000000    1.485000
   283  Cl    c    -6.583467   -2.191581    2.196936    0.000000    1.485000
   284  O     c     8.805962    8.805962    4.393813    0.000000    0.183000
   285  O     c     8.805962    8.805962   -4.393813    0.000000    0.183000
   286  O     c     8.819316   -4.413303    4.408298    0.000000    0.183000
   287  O     c     8.819316   -4.413303   -4.408298    0.000000    0.183000
   288  O     c    -4.413303    8.819316    4.408298    0.000000    0.183000
   289  O     c    -4.413303    8.819316   -4.408298    0.000000    0.183000
   290  O     c    -4.406915   -4.406915    4.401580    0.000000    0.183000
   291  O     c    -4.406915   -4.406915   -4.401580    0.000000    0.183000
   292  Na    c    11.038907    8.835636    0.000000    0.000000    1.000000
   293  Na    c     8.835636   11.038907    0.000000    0.000000    1.000000
   294  Na    c     2.193913   13.259444    0.000000    0.000000    1.000000
   295  Na    c    13.259444    2.193913    0.000000    0.000000    1.000000
   296  Cl    c     2.220144   10.995615    6.584537    0.000000    1.485000
   297  Cl    c     2.220144   10.995615   -6.584537    0.000000    1.485000
   298  Cl    c    10.995615    2.220144    6.584537    0.000000    1.485000
   299  Cl    c    10.995615    2.220144   -6.584537    0.000000    1.485000
   300  Na    c     2.198699    8.811724    8.830740    0.000000    1.000000
   301  Na    c     2.198699    8.811724   -8.830740    0.000000    1.000000
   302  Na    c     8.811724    2.198699    8.830740    0.000000    1.000000
   303  Na    c     8.811724    2.198699   -8.830740    0.000000    1.000000
   304  Na    c    11.025436   -4.449419    0.000000    0.000000    1.000000
   305  Na    c    -4.449419   11.025436    0.000000    0.000000    1.000000
   306  Cl    c     2.205753    2.205753   10.988879    0.000000    1.485000
   307  Cl    c     2.205753    2.205753  -10.988879    0.000000    1.485000
   308  Na    c    -6.626717    8.818967    0.000000    0.000000    1.000000
   309  Na    c     8.818967   -6.626717    0.000000    0.000000    1.000000
   310  Na    c     2.201462   -4.422292    8.819900    0.000000    1.000000
   311  Na    c     2.201462   -4.422292   -8.819900    0.000000    1.000000
   312  Na    c    -4.422292    2.201462    8.819900    0.000000    1.000000
   313  Na    c    -4.422292    2.201462   -8.819900    0.000000    1.000000
   314  Cl    c     2.210565   -6.585391    6.597692    0.000000    1.485000
   315  Cl    c     2.210565   -6.585391   -6.597692    0.000000    1.485000
   316  Cl    c    -6.585391    2.210565    6.597692    0.000000    1.485000
   317  Cl    c    -6.585391    2.210565   -6.597692    0.000000    1.485000
   318  Na    c     2.198371   -8.822149    0.000000    0.000000    1.000000
   319  Na    c    -8.822149    2.198371    0.000000    0.000000    1.000000
   320  Na    c    -6.614542   -4.409236    0.000000    0.000000    1.000000
   321  Na    c    -4.409236   -6.614542    0.000000    0.000000    1.000000
   322  O     c     4.406840   13.250880    0.000000    0.000000    0.183000
   323  O     c    13.250880    4.406840    0.000000    0.000000    0.183000
   324  O     c     4.408667    8.808615    8.810344    0.000000    0.183000
   325  O     c     4.408667    8.808615   -8.810344    0.000000    0.183000
   326  O     c     8.808615    4.408667    8.810344    0.000000    0.183000
   327  O     c     8.808615    4.408667   -8.810344    0.000000    0.183000
   328  O     c    13.224153   -0.000649    0.000000    0.000000    0.183000
   329  O     c    -0.000649   13.224153    0.000000    0.000000    0.183000
   330  O     c     8.810780   -0.000936    8.807734    0.000000    0.183000
   331  O     c     8.810780   -0.000936   -8.807734    0.000000    0.183000
   332  O     c    -0.000936    8.810780    8.807734    0.000000    0.183000
   333  O     c    -0.000936    8.810780   -8.807734    0.000000    0.183000
   334  O     c     4.407291   -4.403069    8.807015    0.000000    0.183000
   335  O     c     4.407291   -4.403069   -8.807015    0.000000    0.183000
   336  O     c    -4.403069    4.407291    8.807015    0.000000    0.183000
   337  O     c    -4.403069    4.407291   -8.807015    0.000000    0.183000
   338  O     c     4.408001   -8.821237    0.000000    0.000000    0.183000
   339  O     c    -8.821237    4.408001    0.000000    0.000000    0.183000
   340  O     c     0.001186   -4.401045    8.806324    0.000000    0.183000
   341  O     c     0.001186   -4.401045   -8.806324    0.000000    0.183000
   342  O     c    -4.401045    0.001186    8.806324    0.000000    0.183000
   343  O     c    -4.401045    0.001186   -8.806324    0.000000    0.183000
   344  O     c    -0.003510   -8.809154    0.000000    0.000000    0.183000
   345  O     c    -8.809154   -0.003510    0.000000    0.000000    0.183000
   346  Na    c     8.810164    8.810164    6.619712    0.000000    1.000000
   347  Na    c     8.810164    8.810164   -6.619712    0.000000    1.000000
   348  Na    c     4.399689   13.268920   -2.210754    0.000000    1.000000
   349  Na    c     4.399689   13.268920    2.210754    0.000000    1.000000
   350  Na    c    13.268920    4.399689   -2.210754    0.000000    1.000000
   351  Na    c    13.268920    4.399689    2.210754    0.000000    1.000000
   352  Na    c    13.243817   -0.013935   -2.207446    0.000000    1.000000
   353  Na    c    13.243817   -0.013935    2.207446    0.000000    1.000000
   354  Na    c    -0.013935   13.243817   -2.207446    0.000000    1.000000
   355  Na    c    -0.013935   13.243817    2.207446    0.000000    1.000000
   356  Na    c     4.413244    4.413244   11.042760    0.000000    1.000000
   357  Na    c     4.413244    4.413244  -11.042760    0.000000    1.000000
   358  Na    c     4.404722   -0.033866   11.026749    0.000000    1.000000
   359  Na    c     4.404722   -0.033866  -11.026749    0.000000    1.000000
   360  Na    c    -0.033866    4.404722   11.026749    0.000000    1.000000
   361  Na    c    -0.033866    4.404722  -11.026749    0.000000    1.000000
   362  Na    c     8.809331   -4.422971    6.615345    0.000000    1.000000
   363  Na    c     8.809331   -4.422971   -6.615345    0.000000    1.000000
   364  Na    c    -4.422971    8.809331    6.615345    0.000000    1.000000
   365  Na    c    -4.422971    8.809331   -6.615345    0.000000    1.000000
   366  Na    c    -0.013145   -0.013145   11.021025    0.000000    1.000000
   367  Na    c    -0.013145   -0.013145  -11.021025    0.000000    1.000000
   368  Na    c     4.403482   -8.844619   -2.205976    0.000000    1.000000
   369  Na    c     4.403482   -8.844619    2.205976    0.000000    1.000000
   370  Na    c    -8.844619    4.403482   -2.205976    0.000000    1.000000
   371  Na    c    -8.844619    4.403482    2.205976    0.000000    1.000000
   372  Na    c    -0.007185   -8.833601   -2.204192    0.000000    1.000000
   373  Na    c    -0.007185   -8.833601    2.204192    0.000000    1.000000
   374  Na    c    -8.833601   -0.007185   -2.204192    0.000000    1.000000
   375  Na    c    -8.833601   -0.007185    2.204192    0.000000    1.000000
   376  Na    c    -4.413673   -4.413673    6.612115    0.000000    1.000000
[...]
    121 y          0.000000     -0.013145    -0.013145    Cartesian    0.00
    121 z         11.014756     11.021025     0.006270    Cartesian    0.06
    122 x          4.405902      4.403482    -0.002421    Cartesian   -0.05
    122 y         -8.811805     -8.844619    -0.032814    Cartesian    0.37
    122 z         -2.202951     -2.205976    -0.003025    Cartesian    0.14
    123 x          0.000000     -0.007185    -0.007185    Cartesian    0.00
    123 y         -8.811805     -8.833601    -0.021797    Cartesian    0.25
    123 z         -2.202951     -2.204192    -0.001241    Cartesian    0.06
    124 x         -4.405902     -4.413673    -0.007771    Cartesian    0.18
    124 y         -4.405902     -4.413673    -0.007771    Cartesian    0.18
    124 z          6.608853      6.612115     0.003261    Cartesian    0.05
    125 x          6.608853      6.616405     0.007551    Cartesian    0.11
    125 y         13.217707     13.281428     0.063721    Cartesian    0.48
    125 z          0.000000      0.000000     0.000000    Cartesian    0.00
    126 x         11.014756     11.026830     0.012074    Cartesian    0.11
    126 y          8.811805      8.830824     0.019019    Cartesian    0.22
    126 z          4.405902      4.427507     0.021604    Cartesian    0.49
    127 x          6.608853      6.599890    -0.008963    Cartesian   -0.14
    127 y         11.014756     10.985552    -0.029204    Cartesian   -0.27
    127 z          6.608853      6.580731    -0.028122    Cartesian   -0.43
    128 x          2.202951      2.197900    -0.005051    Cartesian   -0.23
    128 y         13.217707     13.253465     0.035759    Cartesian    0.27
    128 z          4.405902      4.421230     0.015328    Cartesian    0.35
    129 x          6.608853      6.612708     0.003855    Cartesian    0.06
    129 y          8.811805      8.820432     0.008627    Cartesian    0.10
    129 z          8.811805      8.846518     0.034713    Cartesian    0.39
    130 x         -2.202951     -2.212879    -0.009928    Cartesian    0.45
    130 y         13.217707     13.259514     0.041807    Cartesian    0.32
    130 z          0.000000      0.000000     0.000000    Cartesian    0.00
    131 x          2.202951      2.206913     0.003962    Cartesian    0.18
    131 y          6.608853      6.608107    -0.000747    Cartesian   -0.01
    131 z         11.014756     10.977771    -0.036985    Cartesian   -0.34
    132 x         11.014756     10.985711    -0.029045    Cartesian   -0.26
    132 y         -2.202951     -2.172349     0.030602    Cartesian   -1.39
    132 z          6.608853      6.581675    -0.027179    Cartesian   -0.41
    133 x         -2.202951     -2.209067    -0.006116    Cartesian    0.28
    133 y          8.811805      8.825613     0.013809    Cartesian    0.16
    133 z          8.811805      8.841455     0.029650    Cartesian    0.34
    134 x         11.014756     11.022630     0.007874    Cartesian    0.07
    134 y         -4.405902     -4.438898    -0.032996    Cartesian    0.75
    134 z          4.405902      4.423894     0.017991    Cartesian    0.41
    135 x          6.608853      6.611139     0.002286    Cartesian    0.03
    135 y         -4.405902     -4.427810    -0.021908    Cartesian    0.50
    135 z          8.811805      8.840051     0.028246    Cartesian    0.32
    136 x         -6.608853     -6.621888    -0.013034    Cartesian    0.20
    136 y          8.811805      8.828261     0.016456    Cartesian    0.19
    136 z          4.405902      4.419382     0.013480    Cartesian    0.31
    137 x          2.202951      2.209680     0.006729    Cartesian    0.31
    137 y         -2.202951     -2.187149     0.015802    Cartesian   -0.72
    137 z         11.014756     10.982063    -0.032692    Cartesian   -0.30
    138 x          6.608853      6.602117    -0.006737    Cartesian   -0.10
    138 y         -6.608853     -6.577362     0.031492    Cartesian   -0.48
    138 z          6.608853      6.596059    -0.012794    Cartesian   -0.19
    139 x          6.608853      6.614009     0.005155    Cartesian    0.08
    139 y         -8.811805     -8.858173    -0.046368    Cartesian    0.53
    139 z          0.000000      0.000000     0.000000    Cartesian    0.00
    140 x          2.202951      2.200642    -0.002309    Cartesian   -0.10
    140 y         -8.811805     -8.847369    -0.035564    Cartesian    0.40
    140 z          4.405902      4.417639     0.011737    Cartesian    0.27
    141 x         -2.202951     -2.206986    -0.004035    Cartesian    0.18
    141 y         -4.405902     -4.425958    -0.020055    Cartesian    0.46
    141 z          8.811805      8.835381     0.023576    Cartesian    0.27
    142 x         -2.202951     -2.189834     0.013117    Cartesian   -0.60
    142 y         -6.608853     -6.577062     0.031792    Cartesian   -0.48
    142 z          6.608853      6.593411    -0.015443    Cartesian   -0.23
    143 x         -2.202951     -2.209807    -0.006856    Cartesian    0.31
    143 y         -8.811805     -8.849255    -0.037450    Cartesian    0.42
    143 z          0.000000      0.000000     0.000000    Cartesian    0.00
    144 x         -6.608853     -6.617295    -0.008442    Cartesian    0.13
    144 y         -4.405902     -4.426092    -0.020190    Cartesian    0.46
    144 z          4.405902      4.416062     0.010160    Cartesian    0.23
    145 x          2.202951      2.568250     0.365299    Cartesian   16.58
    145 y          2.202951      2.568250     0.365299    Cartesian   16.58
    145 z         -2.202951     -1.865693     0.337258    Cartesian  -15.31
    146 x          0.090080      0.090080     0.000000    Cartesian    0.00
    146 y          0.090080      0.090080     0.000000    Cartesian    0.00
    146 z          0.000000      0.000000     0.000000    Cartesian    0.00
    147 x          4.405902      4.440172     0.034270    Cartesian    0.78
    147 y          0.000000     -0.152347    -0.152347    Cartesian    0.00
    147 z          0.000000      0.000000     0.000000    Cartesian    0.00
    148 x          2.202951      2.547683     0.344732    Cartesian   15.65
    148 y          6.608853      6.313417    -0.295437    Cartesian   -4.47
    148 z         -2.202951     -1.885562     0.317389    Cartesian  -14.41
    149 x          2.202951      2.209800     0.006849    Cartesian    0.31
    149 y         -2.202951     -2.147110     0.055841    Cartesian   -2.53
    149 z         -2.202951     -2.210949    -0.007998    Cartesian    0.36
    150 x          4.405902      4.409278     0.003376    Cartesian    0.08
    150 y          4.405902      4.409278     0.003376    Cartesian    0.08
    150 z          4.405902      4.564611     0.158708    Cartesian    3.60
    151 x          4.405902      4.413422     0.007520    Cartesian    0.17
    151 y          0.000000     -0.002454    -0.002454    Cartesian    0.00
    151 z          4.405902      4.408443     0.002541    Cartesian    0.06
    152 x          0.000000      0.023260     0.023260    Cartesian    0.00
    152 y          0.000000      0.023260     0.023260    Cartesian    0.00
    152 z          4.405902      4.390642    -0.015261    Cartesian   -0.35
    153 x          6.608853      6.300983    -0.307871    Cartesian   -4.66
    153 y          6.608853      6.300983    -0.307871    Cartesian   -4.66
    153 z         -2.202951     -1.873371     0.329580    Cartesian  -14.96
    154 x          2.202951      2.200157    -0.002794    Cartesian   -0.13
    154 y          2.202951      2.200157    -0.002794    Cartesian   -0.13
    154 z          6.608853      6.566925    -0.041929    Cartesian   -0.63
    155 x          6.608853      6.638716     0.029863    Cartesian    0.45
    155 y         -2.202951     -2.163192     0.039759    Cartesian   -1.80
    155 z         -2.202951     -2.216959    -0.014008    Cartesian    0.64
    156 x         -2.202951     -2.132922     0.070029    Cartesian   -3.18
    156 y         -2.202951     -2.132922     0.070029    Cartesian   -3.18
    156 z         -2.202951     -2.164294     0.038657    Cartesian   -1.75
    157 x          4.405902      4.409161     0.003258    Cartesian    0.07
    157 y          8.811805      8.970131     0.158327    Cartesian    1.80
    157 z          0.000000      0.000000     0.000000    Cartesian    0.00
    158 x          8.811805      8.827286     0.015482    Cartesian    0.18
    158 y          0.000000     -0.009821    -0.009821    Cartesian    0.00
    158 z          0.000000      0.000000     0.000000    Cartesian    0.00
    159 x          4.405902      4.410383     0.004481    Cartesian    0.10
    159 y         -4.405902     -4.452939    -0.047036    Cartesian    1.07
    159 z          0.000000      0.000000     0.000000    Cartesian    0.00
    160 x          0.000000      0.008200     0.008200    Cartesian    0.00
    160 y         -4.405902     -4.393588     0.012314    Cartesian   -0.28
    160 z          0.000000      0.000000     0.000000    Cartesian    0.00
    161 x          2.202951      2.197496    -0.005455    Cartesian   -0.25
    161 y          6.608853      6.628628     0.019775    Cartesian    0.30
    161 z          6.608853      6.564204    -0.044650    Cartesian   -0.68
    162 x          2.202951      2.224078     0.021127    Cartesian    0.96
    162 y         -2.202951     -2.161618     0.041333    Cartesian   -1.88
    162 z          6.608853      6.573322    -0.035532    Cartesian   -0.54
    163 x          4.405902      4.406633     0.000731    Cartesian    0.02
    163 y          8.811805      8.815005     0.003201    Cartesian    0.04
    163 z          4.405902      4.409242     0.003340    Cartesian    0.08
    164 x          8.811805      8.801911    -0.009894    Cartesian   -0.11
    164 y          0.000000      0.011983     0.011983    Cartesian    0.00
    164 z          4.405902      4.391386    -0.014516    Cartesian   -0.33
    165 x          4.405902      4.406970     0.001068    Cartesian    0.02
    165 y         -4.405902     -4.413103    -0.007201    Cartesian    0.16
    165 z          4.405902      4.404786    -0.001116    Cartesian   -0.03
    166 x          0.000000     -0.000347    -0.000347    Cartesian    0.00
    166 y         -4.405902     -4.399887     0.006015    Cartesian   -0.14
    166 z          4.405902      4.400548    -0.005354    Cartesian   -0.12
    167 x          2.202951      2.200745    -0.002206    Cartesian   -0.10
    167 y         11.014756     10.984488    -0.030268    Cartesian   -0.27
    167 z         -2.202951     -2.214833    -0.011882    Cartesian    0.54
    168 x          6.608853      6.631093     0.022239    Cartesian    0.34
    168 y          6.608853      6.631093     0.022239    Cartesian    0.34
    168 z          6.608853      6.562865    -0.045988    Cartesian   -0.70
    169 x          6.608853      6.602444    -0.006410    Cartesian   -0.10
    169 y         -2.202951     -2.163415     0.039536    Cartesian   -1.79
    169 z          6.608853      6.574493    -0.034361    Cartesian   -0.52
    170 x          2.202951      2.209215     0.006264    Cartesian    0.28
    170 y         -6.608853     -6.583963     0.024891    Cartesian   -0.38
    170 z         -2.202951     -2.199896     0.003055    Cartesian   -0.14
    171 x         -2.202951     -2.168001     0.034950    Cartesian   -1.59
    171 y         -2.202951     -2.168001     0.034950    Cartesian   -1.59
    171 z          6.608853      6.573973    -0.034880    Cartesian   -0.53
    172 x          8.811805      8.822881     0.011077    Cartesian    0.13
    172 y          8.811805      8.822881     0.011077    Cartesian    0.13
    172 z          0.000000      0.000000     0.000000    Cartesian    0.00
    173 x          4.405902      4.404768    -0.001134    Cartesian   -0.03
    173 y          4.405902      4.404768    -0.001134    Cartesian   -0.03
    173 z          8.811805      8.855965     0.044160    Cartesian    0.50
    174 x          4.405902      4.407813     0.001911    Cartesian    0.04
    174 y          0.000000     -0.002981    -0.002981    Cartesian    0.00
    174 z          8.811805      8.819502     0.007697    Cartesian    0.09
    175 x          8.811805      8.821336     0.009532    Cartesian    0.11
    175 y         -4.405902     -4.419390    -0.013487    Cartesian    0.31
    175 z          0.000000      0.000000     0.000000    Cartesian    0.00
    176 x          0.000000     -0.002847    -0.002847    Cartesian    0.00
    176 y          0.000000     -0.002847    -0.002847    Cartesian    0.00
    176 z          8.811805      8.811040    -0.000764    Cartesian   -0.01
    177 x         -4.405902     -4.401200     0.004702    Cartesian   -0.11
    177 y         -4.405902     -4.401200     0.004702    Cartesian   -0.11
    177 z          0.000000      0.000000     0.000000    Cartesian    0.00
    178 x          6.608853      6.636156     0.027302    Cartesian    0.41
    178 y         11.014756     10.976868    -0.037888    Cartesian   -0.34
    178 z         -2.202951     -2.213867    -0.010916    Cartesian    0.50
    179 x         11.014756     10.994997    -0.019759    Cartesian   -0.18
    179 y         -2.202951     -2.169432     0.033519    Cartesian   -1.52
    179 z         -2.202951     -2.191084     0.011867    Cartesian   -0.54
    180 x          6.608853      6.614227     0.005373    Cartesian    0.08
    180 y         -6.608853     -6.581198     0.027656    Cartesian   -0.42
    180 z         -2.202951     -2.200745     0.002206    Cartesian   -0.10
    181 x         -2.202951     -2.189197     0.013754    Cartesian   -0.62
    181 y         -6.608853     -6.579680     0.029174    Cartesian   -0.44
    181 z         -2.202951     -2.196240     0.006711    Cartesian   -0.30
    182 x          8.811805      8.805967    -0.005837    Cartesian   -0.07
    182 y          8.811805      8.805967    -0.005837    Cartesian   -0.07
    182 z          4.405902      4.393810    -0.012092    Cartesian   -0.27
    183 x          8.811805      8.819319     0.007515    Cartesian    0.09
    183 y         -4.405902     -4.413303    -0.007401    Cartesian    0.17
    183 z          4.405902      4.408296     0.002394    Cartesian    0.05
    184 x         -4.405902     -4.406915    -0.001012    Cartesian    0.02
    184 y         -4.405902     -4.406915    -0.001012    Cartesian    0.02
    184 z          4.405902      4.401577    -0.004326    Cartesian   -0.10
    185 x          2.202951      2.223567     0.020616    Cartesian    0.94
    185 y         11.014756     10.990968    -0.023788    Cartesian   -0.22
    185 z          6.608853      6.578546    -0.030307    Cartesian   -0.46
    186 x          2.202951      2.207646     0.004694    Cartesian    0.21
    186 y          2.202951      2.207646     0.004694    Cartesian    0.21
    186 z         11.014756     10.982919    -0.031837    Cartesian   -0.29
    187 x          2.202951      2.212555     0.009604    Cartesian    0.44
    187 y         -6.608853     -6.581839     0.027015    Cartesian   -0.41
    187 z          6.608853      6.596162    -0.012691    Cartesian   -0.19
    188 x          4.405902      4.406841     0.000938    Cartesian    0.02
    188 y         13.217707     13.250863     0.033156    Cartesian    0.25
    188 z          0.000000      0.000000     0.000000    Cartesian    0.00
    189 x          4.405902      4.408671     0.002768    Cartesian    0.06
    189 y          8.811805      8.808615    -0.003190    Cartesian   -0.04
    189 z          8.811805      8.810334    -0.001470    Cartesian   -0.02
    190 x         13.217707     13.224154     0.006447    Cartesian    0.05
    190 y          0.000000     -0.000642    -0.000642    Cartesian    0.00
    190 z          0.000000      0.000000     0.000000    Cartesian    0.00
    191 x          8.811805      8.810780    -0.001025    Cartesian   -0.01
    191 y          0.000000     -0.000933    -0.000933    Cartesian    0.00
    191 z          8.811805      8.807731    -0.004073    Cartesian   -0.05
    192 x          4.405902      4.407292     0.001390    Cartesian    0.03
    192 y         -4.405902     -4.403068     0.002835    Cartesian   -0.06
    192 z          8.811805      8.807012    -0.004792    Cartesian   -0.05
    193 x          4.405902      4.408006     0.002104    Cartesian    0.05
    193 y         -8.811805     -8.821231    -0.009427    Cartesian    0.11
    193 z          0.000000      0.000000     0.000000    Cartesian    0.00
    194 x          0.000000      0.001189     0.001189    Cartesian    0.00
    194 y         -4.405902     -4.401040     0.004862    Cartesian   -0.11
    194 z          8.811805      8.806325    -0.005480    Cartesian   -0.06
    195 x          0.000000     -0.003512    -0.003512    Cartesian    0.00
    195 y         -8.811805     -8.809160     0.002644    Cartesian   -0.03
    195 z          0.000000      0.000000     0.000000    Cartesian    0.00
    196 x          6.608853      6.598188    -0.010665    Cartesian   -0.16
    196 y         11.014756     10.979252    -0.035503    Cartesian   -0.32
    196 z          6.608853      6.574285    -0.034568    Cartesian   -0.52
    197 x          2.202951      2.208801     0.005850    Cartesian    0.27
    197 y          6.608853      6.607375    -0.001479    Cartesian   -0.02
    197 z         11.014756     10.971288    -0.043467    Cartesian   -0.39
    198 x         11.014756     10.981884    -0.032871    Cartesian   -0.30
    198 y         -2.202951     -2.167549     0.035403    Cartesian   -1.61
    198 z          6.608853      6.577973    -0.030880    Cartesian   -0.47
    199 x          2.202951      2.211428     0.008477    Cartesian    0.38
    199 y         -2.202951     -2.184054     0.018897    Cartesian   -0.86
    199 z         11.014756     10.977806    -0.036950    Cartesian   -0.34
    200 x          6.608853      6.600999    -0.007854    Cartesian   -0.12
    200 y         -6.608853     -6.572391     0.036462    Cartesian   -0.55
    200 z          6.608853      6.594075    -0.014779    Cartesian   -0.22
    201 x         -2.202951     -2.187863     0.015088    Cartesian   -0.68
    201 y         -6.608853     -6.572488     0.036365    Cartesian   -0.55
    201 z          6.608853      6.591351    -0.017503    Cartesian   -0.26
--------------------------------------------------------------------------------


  Time to end of optimisation  =       27.4774 seconds


  Peak dynamic memory used =      90.31 MB 


  Timing analysis for GULP :

--------------------------------------------------------------------------------
  Task / Subroutine                                          Time (Seconds)
--------------------------------------------------------------------------------
  Calculation of reciprocal space energy and derivatives          0.0002
  Calculation of reciprocal space energy using symmetry           0.0004
  Calculation of real space energy and derivatives                0.0013
  Calculation of real space energy using symmetry                 0.0037
  Calculation for region 1 energy and derivatives (2-b)          12.7282
  Calculation for region 2a energy                                8.9781
  Calculation for region 2b energy                                0.0054
  Calculation and manipulation of Hessian matrix                  5.1248
  Calculation of matrix inversion                                 0.5523
  Symmetry generation of equivalent positions                     0.0017
--------------------------------------------------------------------------------
  Total CPU time                                                 27.4775
--------------------------------------------------------------------------------


  Dump file written as Na3OCl.grs


  Job Finished at 15:14.23 19th January    2021                               

