********************************************************************************
*                       GENERAL UTILITY LATTICE PROGRAM                        *
*                                 Julian Gale                                  *
*                       Curtin Institute for Computation                       *
*                    School of Molecular and Life Sciences                     *
*                    Curtin University, Western Australia                      *
********************************************************************************
* Version = 5.2.0 * Last modified =  10th September 2020                       *
********************************************************************************
*  optimise     - perform optimisation run                                     *
*  conp         - constant pressure calculation                                *
*  property     - calculate properties for final geometry                      *
*  defect       - perform defect calculation after bulk run                    *
*  compare      - compare initial and final structures                         *
********************************************************************************

  Job Started  at 15:13.54 19th January    2021                               

  Number of CPUs =     1


  Total number of configurations input =      1

********************************************************************************
*  Input for Configuration =   1                                               *
********************************************************************************

  Formula = OClNa3                                                      

  Number of irreducible atoms/shells =       5


  Total number atoms/shells =       7

  Dimensionality = 3               :  Bulk   


  Symmetry :

  Crystal family                   :  Cubic       
  Crystal class  (Groth - 1921)    :  Cubic Hexakisoctahedral              

  Space group (centrosymmetric)    :  P M 3 M         

  Patterson group                  :  P m -3 m 

  Cartesian lattice vectors (Angstroms) :

        4.504000    0.000000    0.000000
        0.000000    4.504000    0.000000
        0.000000    0.000000    4.504000

  Cell parameters (Angstroms/Degrees):

  a =       4.5040    alpha =  90.0000
  b =       4.5040    beta  =  90.0000
  c =       4.5040    gamma =  90.0000

  Initial cell volume =          91.368216 Angs**3

  Temperature of configuration =   0.00     K 

  Pressure of configuration =         0.000 GPa 

  Fractional coordinates of asymmetric unit :

--------------------------------------------------------------------------------
   No.  Atomic       x           y          z         Charge      Occupancy
        Label      (Frac)      (Frac)     (Frac)        (e)         (Frac)  
--------------------------------------------------------------------------------
      1 O     c    0.000000    0.000000    0.000000     0.18300    1.000000    
      2 Cl    c    0.500000    0.500000    0.500000     1.48500    1.000000    
      3 Na    c    0.500000    0.000000    0.000000     1.00000    1.000000    
      4 O     s    0.000000    0.000000    0.000000    -2.18300    1.000000    
      5 Cl    s    0.500000    0.500000    0.500000    -2.48500    1.000000    
--------------------------------------------------------------------------------


  Constraints : 

--------------------------------------------------------------------------------
  Constraint no.      Unconstrained     Constrained    Coefficient    Offset
                         Variable         Variable
--------------------------------------------------------------------------------
           1              Strain 1        Strain 2       1.00000      0.0000
           2              Strain 1        Strain 3       1.00000      0.0000
--------------------------------------------------------------------------------


********************************************************************************
*  General input information                                                   *
********************************************************************************

  Species output for all configurations : 

--------------------------------------------------------------------------------
  Species    Type    Atomic    Atomic    Charge       Radii (Angs)     Library
                     Number     Mass       (e)     Cova   Ionic  VDW   Symbol
--------------------------------------------------------------------------------
    Na       Core       11      22.99   1.000000   0.970  0.000  2.300          
    O        Core        8      16.00   0.183000   0.730  0.000  1.360          
    O        Shell       8       0.00  -2.183000   0.730  0.000  1.360          
    Cl       Core       17      35.45   1.485000   0.990  0.000  1.650          
    Cl       Shell      17       0.00  -2.485000   0.990  0.000  1.650          
    Mg       Core       12      24.31   0.415000   1.100  0.000  0.000          
    Mg       Shell      12       0.00   1.585000   1.100  0.000  0.000          
    Ca       Core       20      40.08  -1.135000   0.990  0.000  0.000          
    Ca       Shell      20       0.00   3.135000   0.990  0.000  0.000          
    Sr       Core       38      87.62  -1.251000   1.120  0.000  0.000          
    Sr       Shell      38       0.00   3.251000   1.120  0.000  0.000          
    Ba       Core       56     137.33  -7.203000   1.340  0.000  0.000          
    Ba       Shell      56       0.00   9.203000   1.340  0.000  0.000          
--------------------------------------------------------------------------------


  Lattice summation method               =    Ewald          (3-D)
                                         =    Parry          (2-D)
                                         =    Saunders et al (1-D)
  Accuracy factor for lattice sums       =   12.000


  Analytic derivatives to be used

  Time limit = Infinity

  Maximum range for interatomic potentials =    100000.000000 Angstroms

  General interatomic potentials :

--------------------------------------------------------------------------------
Atom  Types   Potential      Parameter       Value         Units   Cutoffs(Ang)
  1     2                                                            Min /  Max 
--------------------------------------------------------------------------------
O    c O    s Spring (c-s)  Spring k 2       593.71600    eV*Ang^-2 0.000  0.800
                            Spring k 4       0.0000000    eV*Ang^-4 
--------------------------------------------------------------------------------
Cl   c Cl   s Spring (c-s)  Spring k 2       29.380000    eV*Ang^-2 0.000  0.800
                            Spring k 4       0.0000000    eV*Ang^-4 
--------------------------------------------------------------------------------
Mg   c Mg   s Spring (c-s)  Spring k 2       361.60000    eV*Ang^-2 0.000  0.800
                            Spring k 4       0.0000000    eV*Ang^-4 
--------------------------------------------------------------------------------
Ca   c Ca   s Spring (c-s)  Spring k 2       110.20000    eV*Ang^-2 0.000  0.800
                            Spring k 4       0.0000000    eV*Ang^-4 
--------------------------------------------------------------------------------
Sr   c Sr   s Spring (c-s)  Spring k 2       71.700000    eV*Ang^-2 0.000  0.800
                            Spring k 4       0.0000000    eV*Ang^-4 
--------------------------------------------------------------------------------
Ba   c Ba   s Spring (c-s)  Spring k 2       495.20000    eV*Ang^-2 0.000  0.800
                            Spring k 4       0.0000000    eV*Ang^-4 
--------------------------------------------------------------------------------
Na   c Na   c Buckingham    Buckingham A     1788.1900    eV        0.000 12.000
                            Buckingham rho  0.15900000    Ang       
                            Buckingham C     0.0000000    eV*Ang^6  
--------------------------------------------------------------------------------
Na   c O    s Buckingham    Buckingham A     588.38000    eV        0.000 12.000
                            Buckingham rho  0.33800000    Ang       
                            Buckingham C     0.0000000    eV*Ang^6  
--------------------------------------------------------------------------------
Na   c Cl   s Buckingham    Buckingham A     1170.4100    eV        0.000 12.000
                            Buckingham rho  0.31500000    Ang       
                            Buckingham C     0.0000000    eV*Ang^6  
--------------------------------------------------------------------------------
O    s O    s Buckingham    Buckingham A     22764.300    eV        0.000 12.000
                            Buckingham rho  0.14900000    Ang       
                            Buckingham C     13.190000    eV*Ang^6  
--------------------------------------------------------------------------------
O    s Cl   s Buckingham    Buckingham A     8286.9100    eV        0.000 12.000
                            Buckingham rho  0.25900000    Ang       
                            Buckingham C     62.200000    eV*Ang^6  
--------------------------------------------------------------------------------
Cl   s Cl   s Buckingham    Buckingham A     1227.2000    eV        0.000 12.000
                            Buckingham rho  0.32100000    Ang       
                            Buckingham C     14.530000    eV*Ang^6  
--------------------------------------------------------------------------------
O    s Mg   s Buckingham    Buckingham A     1428.5000    eV        0.000 12.000
                            Buckingham rho  0.29450000    Ang       
                            Buckingham C     0.0000000    eV*Ang^6  
--------------------------------------------------------------------------------
Mg   s Cl   s Buckingham    Buckingham A     4914.5400    eV        0.000 12.000
                            Buckingham rho  0.25700000    Ang       
                            Buckingham C     0.0000000    eV*Ang^6  
--------------------------------------------------------------------------------
O    s Ca   s Buckingham    Buckingham A     1090.4000    eV        0.000 12.000
                            Buckingham rho  0.34370000    Ang       
                            Buckingham C     0.0000000    eV*Ang^6  
--------------------------------------------------------------------------------
Cl   s Ca   s Buckingham    Buckingham A     2302.0000    eV        0.000 12.000
                            Buckingham rho  0.34020000    Ang       
                            Buckingham C     0.0000000    eV*Ang^6  
--------------------------------------------------------------------------------
O    s Sr   s Buckingham    Buckingham A     959.10000    eV        0.000 12.000
                            Buckingham rho  0.37210000    Ang       
                            Buckingham C     0.0000000    eV*Ang^6  
--------------------------------------------------------------------------------
Cl   s Sr   s Buckingham    Buckingham A     2191.0900    eV        0.000 12.000
                            Buckingham rho  0.34570000    Ang       
                            Buckingham C     0.0000000    eV*Ang^6  
--------------------------------------------------------------------------------
O    s Ba   s Buckingham    Buckingham A     905.70000    eV        0.000 12.000
                            Buckingham rho  0.39760000    Ang       
                            Buckingham C     0.0000000    eV*Ang^6  
--------------------------------------------------------------------------------
Cl   s Ba   s Buckingham    Buckingham A     2704.5500    eV        0.000 12.000
                            Buckingham rho  0.35280000    Ang       
                            Buckingham C     0.0000000    eV*Ang^6  
--------------------------------------------------------------------------------

********************************************************************************
*  Output for configuration   1                                                *
********************************************************************************


  Components of energy : 

--------------------------------------------------------------------------------
  Interatomic potentials     =           4.94315381 eV    
  Monopole - monopole (real) =         -10.03624526 eV    
  Monopole - monopole (recip)=         -29.53581274 eV    
  Monopole - monopole (total)=         -39.57205800 eV    
--------------------------------------------------------------------------------
  Total lattice energy       =         -34.62890419 eV    
--------------------------------------------------------------------------------
  Total lattice energy       =           -3341.1599 kJ/(mole unit cells)
--------------------------------------------------------------------------------


  Number of variables =        1

  Maximum number of calculations  =          1000
  Maximum Hessian update interval =            10
  Maximum step size               =   1.000000000
  Maximum parameter tolerance     =   0.000010000
  Maximum function  tolerance     =   0.000010000
  Maximum gradient  tolerance     =   0.001000000
  Maximum gradient  component     =   0.010000000

  Symmetry constrained optimisation

  Symmetry used for second derivatives

  Cell parameters to be optimised using strains

  Newton-Raphson optimiser to be used

  BFGS hessian update to be used

  Lower half triangular hessian to be used

  Start of bulk optimisation :

  Cycle:      0 Energy:       -34.628904  Gnorm:      4.328237  CPU:    0.005
  ** Hessian calculated **
  Cycle:      1 Energy:       -34.677667  Gnorm:      0.044008  CPU:    0.007
  Cycle:      2 Energy:       -34.677671  Gnorm:      0.003653  CPU:    0.008


  **** Optimisation achieved ****


  Final energy =     -34.67767136 eV
  Final Gnorm  =       0.00000010

  Components of energy : 

--------------------------------------------------------------------------------
  Interatomic potentials     =           5.77546103 eV    
  Monopole - monopole (real) =         -10.25970290 eV    
  Monopole - monopole (recip)=         -30.19342950 eV    
  Monopole - monopole (total)=         -40.45313239 eV    
--------------------------------------------------------------------------------
  Total lattice energy       =         -34.67767136 eV    
--------------------------------------------------------------------------------
  Total lattice energy       =           -3345.8652 kJ/(mole unit cells)
--------------------------------------------------------------------------------

  Final asymmetric unit coordinates :

--------------------------------------------------------------------------------
   No.  Atomic        x           y           z         Radius
        Label       (Frac)      (Frac)      (Frac)       (Angs) 
--------------------------------------------------------------------------------
     1  O     c     0.000000    0.000000    0.000000    0.000000
     2  Cl    c     0.500000    0.500000    0.500000    0.000000
     3  Na    c     0.500000    0.000000    0.000000    0.000000
     4  O     s     0.000000    0.000000    0.000000    0.000000
     5  Cl    s     0.500000    0.500000    0.500000    0.000000
--------------------------------------------------------------------------------

  Final Cartesian lattice vectors (Angstroms) :

        4.405902    0.000000    0.000000
        0.000000    4.405902    0.000000
        0.000000    0.000000    4.405902


  Final cell parameters and derivatives :

--------------------------------------------------------------------------------
       a            4.405902 Angstrom     dE/de1(xx)     0.000000 eV/strain
       b            4.405902 Angstrom     dE/de2(yy)     0.000000 eV/strain
       c            4.405902 Angstrom     dE/de3(zz)     0.000000 eV/strain
       alpha       90.000000 Degrees      dE/de4(yz)     0.000000 eV/strain
       beta        90.000000 Degrees      dE/de5(xz)     0.000000 eV/strain
       gamma       90.000000 Degrees      dE/de6(xy)     0.000000 eV/strain
--------------------------------------------------------------------------------

  Primitive cell volume =            85.527266 Angs**3

  Density of cell =      2.338030 g/cm**3

  Non-primitive cell volume =            85.527266 Angs**3


  Final internal derivatives :

--------------------------------------------------------------------------------
   No.  Atomic          a             b             c           Radius
        Label          (eV)          (eV)          (eV)        (eV/Angs)
--------------------------------------------------------------------------------
      1 O     c       0.000000      0.000000      0.000000      0.000000
      2 Cl    c       0.000000      0.000000      0.000000      0.000000
      3 Na    c       0.000000      0.000000      0.000000      0.000000
      4 O     s       0.000000      0.000000      0.000000      0.000000
      5 Cl    s       0.000000      0.000000      0.000000      0.000000
--------------------------------------------------------------------------------
  Maximum abs         0.000000      0.000000      0.000000      0.000000
--------------------------------------------------------------------------------

  Comparison of initial and final structures : 

--------------------------------------------------------------------------------
  Parameter   Initial value   Final value   Difference    Units      Percent
--------------------------------------------------------------------------------
    Volume        91.368216     85.527266    -5.840950    Angs**3     -6.39
    a              4.504000      4.405902    -0.098098    Angstroms   -2.18
    b              4.504000      4.405902    -0.098098    Angstroms   -2.18
    c              4.504000      4.405902    -0.098098    Angstroms   -2.18
    alpha         90.000000     90.000000     0.000000    Degrees      0.00
    beta          90.000000     90.000000     0.000000    Degrees      0.00
    gamma         90.000000     90.000000     0.000000    Degrees      0.00
      1 x          0.000000      0.000000     0.000000    Fractional   0.00
      1 y          0.000000      0.000000     0.000000    Fractional   0.00
      1 z          0.000000      0.000000     0.000000    Fractional   0.00
      2 x          0.500000      0.500000     0.000000    Fractional   0.00
      2 y          0.500000      0.500000     0.000000    Fractional   0.00
      2 z          0.500000      0.500000     0.000000    Fractional   0.00
      3 x          0.500000      0.500000     0.000000    Fractional   0.00
      3 y          0.000000      0.000000     0.000000    Fractional   0.00
      3 z          0.000000      0.000000     0.000000    Fractional   0.00
      4 x          0.000000      0.000000     0.000000    Fractional   0.00
      4 y          0.000000      0.000000     0.000000    Fractional   0.00
      4 z          0.000000      0.000000     0.000000    Fractional   0.00
      5 x          0.500000      0.500000     0.000000    Fractional   0.00
      5 y          0.500000      0.500000     0.000000    Fractional   0.00
      5 z          0.500000      0.500000     0.000000    Fractional   0.00
--------------------------------------------------------------------------------


  Born effective charge tensors : 

-------------------------------------------------------------------------------
  Atom             x           y             z
-------------------------------------------------------------------------------
    1 O     x      -2.2939      0.0000      0.0000
            y       0.0000     -2.2939      0.0000
            z       0.0000      0.0000     -2.2939
-------------------------------------------------------------------------------
    2 Cl    x      -0.9918     -0.0000      0.0000
            y      -0.0000     -0.9918      0.0000
            z       0.0000      0.0000     -0.9918
-------------------------------------------------------------------------------
    3 Na    x       0.8372     -0.0000     -0.0000
            y      -0.0000      1.2243     -0.0000
            z       0.0000     -0.0000      1.2243
-------------------------------------------------------------------------------




  Elastic Constant Matrix: (Units=GPa)

-------------------------------------------------------------------------------
  Indices      1         2         3         4         5         6    
-------------------------------------------------------------------------------
       1     82.7680   24.3534   24.3534   -0.0000    0.0000   -0.0000
       2     24.3534   82.7680   24.3534   -0.0000   -0.0000   -0.0000
       3     24.3534   24.3534   82.7680    0.0000   -0.0000    0.0000
       4     -0.0000   -0.0000    0.0000   24.3534   -0.0000   -0.0000
       5      0.0000   -0.0000   -0.0000   -0.0000   24.3534   -0.0000
       6     -0.0000   -0.0000    0.0000   -0.0000   -0.0000   24.3534
-------------------------------------------------------------------------------


  Elastic Compliance Matrix: (Units=1/GPa)

-------------------------------------------------------------------------------
  Indices      1         2         3         4         5         6    
-------------------------------------------------------------------------------
       1    0.013948 -0.003171 -0.003171 -0.000000 -0.000000  0.000000
       2   -0.003171  0.013948 -0.003171  0.000000 -0.000000  0.000000
       3   -0.003171 -0.003171  0.013948 -0.000000  0.000000 -0.000000
       4   -0.000000  0.000000 -0.000000  0.041062  0.000000  0.000000
       5   -0.000000 -0.000000  0.000000  0.000000  0.041062  0.000000
       6    0.000000  0.000000 -0.000000  0.000000  0.000000  0.041062
-------------------------------------------------------------------------------

  Mechanical properties :

-------------------------------------------------------------------------------
  Convention :                    Reuss         Voigt         Hill
-------------------------------------------------------------------------------
  Bulk  Modulus (GPa)     =      43.82493      43.82493      43.82493
  Shear Modulus (GPa)     =      26.08758      26.29496      26.19127
-------------------------------------------------------------------------------
  Velocity S-wave (km/s)  =       3.34035       3.35360       3.34698
  Velocity P-wave (km/s)  =       5.79842       5.80861       5.80351
-------------------------------------------------------------------------------
  Compressibility (1/GPa) =    0.02281806
-------------------------------------------------------------------------------
  Stress axis :                     x             y             z
-------------------------------------------------------------------------------
  Youngs Moduli (GPa)     =      71.69479      71.69479      71.69479
-------------------------------------------------------------------------------
  Poissons Ratio (x)      =                     0.22734       0.22734
  Poissons Ratio (y)      =       0.22734                     0.22734
  Poissons Ratio (z)      =       0.22734       0.22734
-------------------------------------------------------------------------------


  Piezoelectric Strain Matrix: (Units=C/m**2)

-------------------------------------------------------------------------------
  Indices      1         2         3         4         5         6    
-------------------------------------------------------------------------------
       x    -0.00000  -0.00000  -0.00000  -0.00000   0.00000   0.00000
       y    -0.00000   0.00000  -0.00000   0.00000  -0.00000   0.00000
       z     0.00000   0.00000   0.00000  -0.00000   0.00000  -0.00000
-------------------------------------------------------------------------------


  Piezoelectric Stress Matrix: (Units=10**-11 C/N)

-------------------------------------------------------------------------------
  Indices      1         2         3         4         5         6    
-------------------------------------------------------------------------------
       x    -0.00000  -0.00000  -0.00000  -0.00000   0.00000   0.00000
       y    -0.00000   0.00000  -0.00000   0.00000  -0.00000   0.00000
       z     0.00000   0.00000  -0.00000  -0.00000   0.00000  -0.00000
-------------------------------------------------------------------------------


  Static dielectric constant tensor : 

-------------------------------------------------------------------------------
              x         y         z
-------------------------------------------------------------------------------
       x    11.08357  -0.00000  -0.00000
       y    -0.00000  11.08357  -0.00000
       z    -0.00000  -0.00000  11.08357
--------------------------------------------------------------------------------

  High frequency dielectric constant tensor : 

-------------------------------------------------------------------------------
              x         y         z
-------------------------------------------------------------------------------
       x     1.50771  -0.00000  -0.00000
       y    -0.00000   1.50771  -0.00000
       z    -0.00000  -0.00000   1.50771
-------------------------------------------------------------------------------

  Static refractive indices : 

-------------------------------------------------------------------------------
    1 =    3.32920      2 =    3.32920      3 =    3.32920
-------------------------------------------------------------------------------

  High frequency refractive indices : 

-------------------------------------------------------------------------------
    1 =    1.22789      2 =    1.22789      3 =    1.22789
-------------------------------------------------------------------------------


  Time to end of optimisation =       0.0107 seconds

********************************************************************************
*  Defect calculation for configuration   1 :                                  *
********************************************************************************

  Total number of defects =      3

  Total charge on defect  =   2.00

  Defect centre is at   2.2520   2.2520   0.0000  Angs

  Region 1 radius =  12.0000      Number of ions =    622

  Number of symmetry inequivalent region 1 ions  =    201

  Region 2 radius =  16.0000      Number of ions =    762

  Number of symmetry inequivalent region 2a ions =    224

  Region 2a mode = 4 : screened electrostatics due to region 1 
                       neglect correction to region 1 forces from 2a
                       region 2a displacements based on defects only

  Region 2a ions will only interact with defects in region 1

  Vacancies:

--------------------------------------------------------------------------------
    Specification type     Symbol/Number         x          y          z
--------------------------------------------------------------------------------
    Cartesian                                0.000000   0.000000   0.000000
    Cartesian                                4.504000   4.504000   0.000000
--------------------------------------------------------------------------------

  Interstitials:

--------------------------------------------------------------------------------
    Specification type     Symbol/Number         x          y          z
--------------------------------------------------------------------------------
    Atom/Cartesian          O                1.261120   1.261120   0.000000
--------------------------------------------------------------------------------


  Symmetry reduced region 1 (Relative to defect centre) :

--------------------------------------------------------------------------------
   No.   Atomic       x            y             z       Radius  Multiplicity   
         Label      (Angs)       (Angs)        (Angs)    (Angs)     
--------------------------------------------------------------------------------
     1  O     c     -0.9909      -0.9909       0.0000    0.0000     1    Defect
     2  Na    c     -0.0490 *     2.1539 *     0.0000    0.0000     2          
     3  Cl    c     -0.0490 *    -0.0490      -2.2030 *  0.0000     2          
     4  Na    c     -0.0490 *    -2.2520 *     0.0000    0.0000     2          
     5  O     c      2.1539 *    -2.2520 *     0.0000    0.0000     2          
     6  Na    c      2.1539 *     2.1539      -2.2030 *  0.0000     2          
     7  Na    c      2.1539 *    -2.2520 *    -2.2030 *  0.0000     4          
     8  Na    c     -2.2520 *    -2.2520      -2.2030 *  0.0000     2          
     9  Na    c      4.3569 *     2.1539 *     0.0000    0.0000     2          
    10  Cl    c     -0.0490 *     4.3569 *    -2.2030 *  0.0000     4          
    11  Na    c     -0.0490 *     2.1539 *     4.4059 *  0.0000     4          
    12  Na    c      4.3569 *    -2.2520 *     0.0000    0.0000     2          
    13  Na    c     -0.0490 *    -2.2520 *     4.4059 *  0.0000     4          
    14  Na    c     -4.4550 *     2.1539 *     0.0000    0.0000     2          
    15  Cl    c     -0.0490 *    -4.4550 *    -2.2030 *  0.0000     4          
    16  Na    c     -4.4550 *    -2.2520 *     0.0000    0.0000     2          
    17  O     c      2.1539 *     2.1539       4.4059 *  0.0000     2          
    18  O     c      2.1539 *    -2.2520 *     4.4059 *  0.0000     4          
    19  O     c     -2.2520 *    -2.2520       4.4059 *  0.0000     2          
    20  Cl    c      4.3569 *     4.3569      -2.2030 *  0.0000     2          
    21  Na    c     -0.0490 *     6.5598 *     0.0000    0.0000     2          
    22  Na    c      4.3569 *     2.1539 *     4.4059 *  0.0000     4          
    23  Na    c      4.3569 *    -2.2520 *     4.4059 *  0.0000     4          
    24  Cl    c     -0.0490 *    -0.0490       6.6089 *  0.0000     2          
    25  Cl    c      4.3569 *    -4.4550 *    -2.2030 *  0.0000     4          
    26  Na    c     -4.4550 *     2.1539 *     4.4059 *  0.0000     4          
    27  Na    c     -0.0490 *    -6.6579 *     0.0000    0.0000     2          
    28  Na    c     -4.4550 *    -2.2520 *     4.4059 *  0.0000     4          
    29  Cl    c     -4.4550 *    -4.4550      -2.2030 *  0.0000     2          
    30  O     c      2.1539 *     6.5598 *     0.0000    0.0000     2          
    31  O     c      6.5598 *    -2.2520 *     0.0000    0.0000     2          
    32  O     c      2.1539 *    -6.6579 *     0.0000    0.0000     2          
    33  O     c     -2.2520 *    -6.6579 *     0.0000    0.0000     2          
    34  Na    c      2.1539 *     6.5598 *    -2.2030 *  0.0000     4          
    35  Na    c      2.1539 *     2.1539       6.6089 *  0.0000     2          
    36  Na    c      6.5598 *    -2.2520 *    -2.2030 *  0.0000     4          
    37  Na    c      2.1539 *    -2.2520 *     6.6089 *  0.0000     4          
    38  Na    c      2.1539 *    -6.6579 *    -2.2030 *  0.0000     4          
    39  Na    c     -2.2520 *    -2.2520       6.6089 *  0.0000     2          
    40  Na    c     -2.2520 *    -6.6579 *    -2.2030 *  0.0000     4          
    41  Na    c      4.3569 *     6.5598 *     0.0000    0.0000     2          
    42  Na    c     -0.0490 *     6.5598 *     4.4059 *  0.0000     4          
    43  Cl    c     -0.0490 *     4.3569 *     6.6089 *  0.0000     4          
    44  Na    c     -4.4550 *     6.5598 *     0.0000    0.0000     2          
    45  Na    c      4.3569 *    -6.6579 *     0.0000    0.0000     2          
    46  Cl    c     -0.0490 *    -4.4550 *     6.6089 *  0.0000     4          
    47  Na    c     -0.0490 *    -6.6579 *     4.4059 *  0.0000     4          
    48  Na    c     -4.4550 *    -6.6579 *     0.0000    0.0000     2          
    49  O     c      2.1539 *     6.5598 *     4.4059 *  0.0000     4          
    50  O     c      6.5598 *    -2.2520 *     4.4059 *  0.0000     4          
    51  O     c      2.1539 *    -6.6579 *     4.4059 *  0.0000     4          
    52  O     c     -2.2520 *    -6.6579 *     4.4059 *  0.0000     4          
    53  Na    c      4.3569 *     6.5598 *     4.4059 *  0.0000     4          
    54  Na    c      8.7628 *     2.1539 *     0.0000    0.0000     2          
    55  Cl    c     -0.0490 *     8.7628 *    -2.2030 *  0.0000     4          
    56  Cl    c      4.3569 *     4.3569       6.6089 *  0.0000     2          
    57  Na    c      8.7628 *    -2.2520 *     0.0000    0.0000     2          
    58  Na    c     -0.0490 *     2.1539 *     8.8118 *  0.0000     4          
    59  Na    c     -4.4550 *     6.5598 *     4.4059 *  0.0000     4          
    60  Cl    c      4.3569 *    -4.4550 *     6.6089 *  0.0000     4          
    61  Na    c     -0.0490 *    -2.2520 *     8.8118 *  0.0000     4          
    62  Na    c      4.3569 *    -6.6579 *     4.4059 *  0.0000     4          
    63  Na    c     -8.8609 *     2.1539 *     0.0000    0.0000     2          
    64  Cl    c     -0.0490 *    -8.8609 *    -2.2030 *  0.0000     4          
    65  Cl    c     -4.4550 *    -4.4550       6.6089 *  0.0000     2          
    66  Na    c     -8.8609 *    -2.2520 *     0.0000    0.0000     2          
    67  Na    c     -4.4550 *    -6.6579 *     4.4059 *  0.0000     4          
    68  O     c      6.5598 *     6.5598       0.0000    0.0000     1          
    69  O     c      2.1539 *     2.1539       8.8118 *  0.0000     2          
    70  O     c      2.1539 *    -2.2520 *     8.8118 *  0.0000     4          
    71  O     c      6.5598 *    -6.6579 *     0.0000    0.0000     2          
    72  O     c     -2.2520 *    -2.2520       8.8118 *  0.0000     2          
    73  O     c     -6.6579 *    -6.6579       0.0000    0.0000     1          
    74  Na    c      6.5598 *     6.5598      -2.2030 *  0.0000     2          
    75  Na    c      2.1539 *     6.5598 *     6.6089 *  0.0000     4          
    76  Na    c      6.5598 *    -2.2520 *     6.6089 *  0.0000     4          
    77  Na    c      6.5598 *    -6.6579 *    -2.2030 *  0.0000     4          
    78  Na    c      2.1539 *    -6.6579 *     6.6089 *  0.0000     4          
    79  Na    c     -2.2520 *    -6.6579 *     6.6089 *  0.0000     4          
    80  Na    c     -6.6579 *    -6.6579      -2.2030 *  0.0000     2          
    81  Cl    c      4.3569 *     8.7628 *    -2.2030 *  0.0000     4          
    82  Na    c      8.7628 *     2.1539 *     4.4059 *  0.0000     4          
    83  Na    c      4.3569 *     2.1539 *     8.8118 *  0.0000     4          
    84  Na    c      8.7628 *    -2.2520 *     4.4059 *  0.0000     4          
    85  Cl    c      8.7628 *    -4.4550 *    -2.2030 *  0.0000     4          
    86  Na    c      4.3569 *    -2.2520 *     8.8118 *  0.0000     4          
    87  Na    c     -4.4550 *     2.1539 *     8.8118 *  0.0000     4          
    88  Cl    c      4.3569 *    -8.8609 *    -2.2030 *  0.0000     4          
    89  Na    c     -8.8609 *     2.1539 *     4.4059 *  0.0000     4          
    90  Na    c     -4.4550 *    -2.2520 *     8.8118 *  0.0000     4          
    91  Na    c     -8.8609 *    -2.2520 *     4.4059 *  0.0000     4          
    92  Cl    c     -4.4550 *    -8.8609 *    -2.2030 *  0.0000     4          
    93  O     c      6.5598 *     6.5598       4.4059 *  0.0000     2          
    94  O     c      6.5598 *    -6.6579 *     4.4059 *  0.0000     4          
    95  O     c     -6.6579 *    -6.6579       4.4059 *  0.0000     2          
    96  Na    c      8.7628 *     6.5598 *     0.0000    0.0000     2          
    97  Na    c     -0.0490 *    10.9657 *     0.0000    0.0000     2          
    98  Cl    c     -0.0490 *     8.7628 *     6.6089 *  0.0000     4          
    99  Na    c     -0.0490 *     6.5598 *     8.8118 *  0.0000     4          
   100  Na    c      8.7628 *    -6.6579 *     0.0000    0.0000     2          
   101  Cl    c     -0.0490 *    -0.0490      11.0148 *  0.0000     2          
   102  Na    c     -8.8609 *     6.5598 *     0.0000    0.0000     2          
   103  Na    c     -0.0490 *    -6.6579 *     8.8118 *  0.0000     4          
   104  Cl    c     -0.0490 *    -8.8609 *     6.6089 *  0.0000     4          
   105  Na    c     -0.0490 *   -11.0638 *     0.0000    0.0000     2          
   106  Na    c     -8.8609 *    -6.6579 *     0.0000    0.0000     2          
   107  O     c      2.1539 *    10.9657 *     0.0000    0.0000     2          
   108  O     c      2.1539 *     6.5598 *     8.8118 *  0.0000     4          
   109  O     c     10.9657 *    -2.2520 *     0.0000    0.0000     2          
   110  O     c      6.5598 *    -2.2520 *     8.8118 *  0.0000     4          
   111  O     c      2.1539 *    -6.6579 *     8.8118 *  0.0000     4          
   112  O     c      2.1539 *   -11.0638 *     0.0000    0.0000     2          
   113  O     c     -2.2520 *    -6.6579 *     8.8118 *  0.0000     4          
   114  O     c     -2.2520 *   -11.0638 *     0.0000    0.0000     2          
   115  Na    c      6.5598 *     6.5598       6.6089 *  0.0000     2          
   116  Na    c      2.1539 *    10.9657 *    -2.2030 *  0.0000     4          
   117  Na    c     10.9657 *    -2.2520 *    -2.2030 *  0.0000     4          
   118  Na    c      2.1539 *     2.1539      11.0148 *  0.0000     2          
   119  Na    c      2.1539 *    -2.2520 *    11.0148 *  0.0000     4          
   120  Na    c      6.5598 *    -6.6579 *     6.6089 *  0.0000     4          
   121  Na    c     -2.2520 *    -2.2520      11.0148 *  0.0000     2          
   122  Na    c      2.1539 *   -11.0638 *    -2.2030 *  0.0000     4          
   123  Na    c     -2.2520 *   -11.0638 *    -2.2030 *  0.0000     4          
   124  Na    c     -6.6579 *    -6.6579       6.6089 *  0.0000     2          
   125  Na    c      4.3569 *    10.9657 *     0.0000    0.0000     2          
   126  Na    c      8.7628 *     6.5598 *     4.4059 *  0.0000     4          
   127  Cl    c      4.3569 *     8.7628 *     6.6089 *  0.0000     4          
   128  Na    c     -0.0490 *    10.9657 *     4.4059 *  0.0000     4          
   129  Na    c      4.3569 *     6.5598 *     8.8118 *  0.0000     4          
   130  Na    c     -4.4550 *    10.9657 *     0.0000    0.0000     2          
   131  Cl    c     -0.0490 *     4.3569 *    11.0148 *  0.0000     4          
   132  Cl    c      8.7628 *    -4.4550 *     6.6089 *  0.0000     4          
   133  Na    c     -4.4550 *     6.5598 *     8.8118 *  0.0000     4          
   134  Na    c      8.7628 *    -6.6579 *     4.4059 *  0.0000     4          
   135  Na    c      4.3569 *    -6.6579 *     8.8118 *  0.0000     4          
   136  Na    c     -8.8609 *     6.5598 *     4.4059 *  0.0000     4          
   137  Cl    c     -0.0490 *    -4.4550 *    11.0148 *  0.0000     4          
   138  Cl    c      4.3569 *    -8.8609 *     6.6089 *  0.0000     4          
   139  Na    c      4.3569 *   -11.0638 *     0.0000    0.0000     2          
   140  Na    c     -0.0490 *   -11.0638 *     4.4059 *  0.0000     4          
   141  Na    c     -4.4550 *    -6.6579 *     8.8118 *  0.0000     4          
   142  Cl    c     -4.4550 *    -8.8609 *     6.6089 *  0.0000     4          
   143  Na    c     -4.4550 *   -11.0638 *     0.0000    0.0000     2          
   144  Na    c     -8.8609 *    -6.6579 *     4.4059 *  0.0000     4          
   145  O     s     -0.9909      -0.9909       0.0000    0.0000     1    Defect
   146  Cl    s     -0.0490 *    -0.0490      -2.2030 *  0.0000     2          
   147  O     s      2.1539 *    -2.2520 *     0.0000    0.0000     2          
   148  Cl    s     -0.0490 *     4.3569 *    -2.2030 *  0.0000     4          
   149  Cl    s     -0.0490 *    -4.4550 *    -2.2030 *  0.0000     4          
   150  O     s      2.1539 *     2.1539       4.4059 *  0.0000     2          
   151  O     s      2.1539 *    -2.2520 *     4.4059 *  0.0000     4          
   152  O     s     -2.2520 *    -2.2520       4.4059 *  0.0000     2          
   153  Cl    s      4.3569 *     4.3569      -2.2030 *  0.0000     2          
   154  Cl    s     -0.0490 *    -0.0490       6.6089 *  0.0000     2          
   155  Cl    s      4.3569 *    -4.4550 *    -2.2030 *  0.0000     4          
   156  Cl    s     -4.4550 *    -4.4550      -2.2030 *  0.0000     2          
   157  O     s      2.1539 *     6.5598 *     0.0000    0.0000     2          
   158  O     s      6.5598 *    -2.2520 *     0.0000    0.0000     2          
   159  O     s      2.1539 *    -6.6579 *     0.0000    0.0000     2          
   160  O     s     -2.2520 *    -6.6579 *     0.0000    0.0000     2          
   161  Cl    s     -0.0490 *     4.3569 *     6.6089 *  0.0000     4          
   162  Cl    s     -0.0490 *    -4.4550 *     6.6089 *  0.0000     4          
   163  O     s      2.1539 *     6.5598 *     4.4059 *  0.0000     4          
   164  O     s      6.5598 *    -2.2520 *     4.4059 *  0.0000     4          
   165  O     s      2.1539 *    -6.6579 *     4.4059 *  0.0000     4          
   166  O     s     -2.2520 *    -6.6579 *     4.4059 *  0.0000     4          
   167  Cl    s     -0.0490 *     8.7628 *    -2.2030 *  0.0000     4          
   168  Cl    s      4.3569 *     4.3569       6.6089 *  0.0000     2          
   169  Cl    s      4.3569 *    -4.4550 *     6.6089 *  0.0000     4          
   170  Cl    s     -0.0490 *    -8.8609 *    -2.2030 *  0.0000     4          
   171  Cl    s     -4.4550 *    -4.4550       6.6089 *  0.0000     2          
   172  O     s      6.5598 *     6.5598       0.0000    0.0000     1          
   173  O     s      2.1539 *     2.1539       8.8118 *  0.0000     2          
   174  O     s      2.1539 *    -2.2520 *     8.8118 *  0.0000     4          
   175  O     s      6.5598 *    -6.6579 *     0.0000    0.0000     2          
   176  O     s     -2.2520 *    -2.2520       8.8118 *  0.0000     2          
   177  O     s     -6.6579 *    -6.6579       0.0000    0.0000     1          
   178  Cl    s      4.3569 *     8.7628 *    -2.2030 *  0.0000     4          
   179  Cl    s      8.7628 *    -4.4550 *    -2.2030 *  0.0000     4          
   180  Cl    s      4.3569 *    -8.8609 *    -2.2030 *  0.0000     4          
   181  Cl    s     -4.4550 *    -8.8609 *    -2.2030 *  0.0000     4          
   182  O     s      6.5598 *     6.5598       4.4059 *  0.0000     2          
   183  O     s      6.5598 *    -6.6579 *     4.4059 *  0.0000     4          
   184  O     s     -6.6579 *    -6.6579       4.4059 *  0.0000     2          
   185  Cl    s     -0.0490 *     8.7628 *     6.6089 *  0.0000     4          
   186  Cl    s     -0.0490 *    -0.0490      11.0148 *  0.0000     2          
   187  Cl    s     -0.0490 *    -8.8609 *     6.6089 *  0.0000     4          
   188  O     s      2.1539 *    10.9657 *     0.0000    0.0000     2          
   189  O     s      2.1539 *     6.5598 *     8.8118 *  0.0000     4          
   190  O     s     10.9657 *    -2.2520 *     0.0000    0.0000     2          
   191  O     s      6.5598 *    -2.2520 *     8.8118 *  0.0000     4          
   192  O     s      2.1539 *    -6.6579 *     8.8118 *  0.0000     4          
   193  O     s      2.1539 *   -11.0638 *     0.0000    0.0000     2          
   194  O     s     -2.2520 *    -6.6579 *     8.8118 *  0.0000     4          
   195  O     s     -2.2520 *   -11.0638 *     0.0000    0.0000     2          
   196  Cl    s      4.3569 *     8.7628 *     6.6089 *  0.0000     4          
   197  Cl    s     -0.0490 *     4.3569 *    11.0148 *  0.0000     4          
   198  Cl    s      8.7628 *    -4.4550 *     6.6089 *  0.0000     4          
   199  Cl    s     -0.0490 *    -4.4550 *    11.0148 *  0.0000     4          
   200  Cl    s      4.3569 *    -8.8609 *     6.6089 *  0.0000     4          
   201  Cl    s     -4.4550 *    -8.8609 *     6.6089 *  0.0000     4          
--------------------------------------------------------------------------------


  Constraints on symmetry reduced coordinates :

--------------------------------------------------------------------------------
  Constraint no.      Unconstrained     Constrained    Coefficient    
                         Variable         Variable
--------------------------------------------------------------------------------
           1                 3 x             3 y         1.00000
           2                 6 x             6 y         1.00000
           3                 8 x             8 y         1.00000
           4                17 x            17 y         1.00000
           5                19 x            19 y         1.00000
           6                20 x            20 y         1.00000
           7                24 x            24 y         1.00000
           8                29 x            29 y         1.00000
           9                35 x            35 y         1.00000
          10                39 x            39 y         1.00000
          11                56 x            56 y         1.00000
          12                65 x            65 y         1.00000
          13                68 x            68 y         1.00000
          14                69 x            69 y         1.00000
          15                72 x            72 y         1.00000
          16                73 x            73 y         1.00000
          17                74 x            74 y         1.00000
          18                80 x            80 y         1.00000
          19                93 x            93 y         1.00000
          20                95 x            95 y         1.00000
          21               101 x           101 y         1.00000
          22               115 x           115 y         1.00000
          23               118 x           118 y         1.00000
          24               121 x           121 y         1.00000
          25               124 x           124 y         1.00000
          26               146 x           146 y         1.00000
          27               150 x           150 y         1.00000
          28               152 x           152 y         1.00000
          29               153 x           153 y         1.00000
          30               154 x           154 y         1.00000
          31               156 x           156 y         1.00000
          32               168 x           168 y         1.00000
          33               171 x           171 y         1.00000
          34               172 x           172 y         1.00000
          35               173 x           173 y         1.00000
          36               176 x           176 y         1.00000
          37               177 x           177 y         1.00000
          38               182 x           182 y         1.00000
          39               184 x           184 y         1.00000
          40               186 x           186 y         1.00000
--------------------------------------------------------------------------------


  Components of defect energy : 

--------------------------------------------------------------------------------
  Region 1 - region 1                   =     99.05338775 eV
  Region 1 - region 2a (unrelaxed)      =    -54.92297524 eV
  Region 1 - 2a (relaxed - correction)  =     -1.02132255 eV
  Region 1 (Total)                      =     43.10908996 eV
  Region 2a                             =      0.51107703 eV
  Region 2b                             =     -1.65009214 eV
--------------------------------------------------------------------------------
  Total defect energy                   =     41.97007485 eV
--------------------------------------------------------------------------------

  Largest displacement in region 2 =   0.0461 Angstroms


  Number of variables =      507

  Maximum number of calculations  =        1000
  Maximum Hessian update interval =          10
  Maximum step size               =   1.0000000
  Maximum parameter tolerance     =   0.0000100
  Maximum function  tolerance     =   0.0000100
  Maximum gradient  tolerance     =   0.0010000

  Symmetry adapted optimisation

  Symmetry to be used for second derivatives

  Newton-Raphson optimiser to be used

  BFGS hessian update to be used

  Lower half triangular hessian to be used

  Start of defect optimisation :

  Cycle:      0 Defect Energy:  41.970075  Gnorm:     0.094477  CPU:    3.632
  ** Hessian calculated **
  Cycle:      1 Defect Energy:  31.847973  Gnorm:     0.030820  CPU:   12.119
  ** Hessian calculated **
  Cycle:      2 Defect Energy:  29.524317  Gnorm:     0.023012  CPU:   16.182
  Cycle:      3 Defect Energy:  28.507995  Gnorm:     0.026640  CPU:   18.921
  Cycle:      4 Defect Energy:  27.666819  Gnorm:     0.019323  CPU:   21.670
  Cycle:      5 Defect Energy:  27.159764  Gnorm:     0.017393  CPU:   23.772
  Cycle:      6 Defect Energy:  26.752769  Gnorm:     0.015953  CPU:   26.539
  Cycle:      7 Defect Energy:  26.383202  Gnorm:     0.013499  CPU:   29.022
  Cycle:      8 Defect Energy:  26.062242  Gnorm:     0.013454  CPU:   31.602
  Cycle:      9 Defect Energy:  25.837988  Gnorm:     0.009007  CPU:   33.549
  Cycle:     10 Defect Energy:  25.671639  Gnorm:     0.011483  CPU:   36.051
  Cycle:     11 Defect Energy:  25.565466  Gnorm:     0.008120  CPU:   42.214
  ** Hessian calculated **
  Cycle:     12 Defect Energy:  25.507607  Gnorm:     0.008848  CPU:   47.170
  Cycle:     13 Defect Energy:  25.441259  Gnorm:     0.007315  CPU:   49.996
  Cycle:     14 Defect Energy:  25.412839  Gnorm:     0.006789  CPU:   50.646
  Cycle:     15 Defect Energy:  25.371584  Gnorm:     0.006723  CPU:   51.299
  Cycle:     16 Defect Energy:  25.307750  Gnorm:     0.006545  CPU:   52.040
  Cycle:     17 Defect Energy:  25.223759  Gnorm:     0.006402  CPU:   52.674
  Cycle:     18 Defect Energy:  25.154075  Gnorm:     0.006302  CPU:   53.313
  Cycle:     19 Defect Energy:  25.097844  Gnorm:     0.006213  CPU:   53.945
  Cycle:     20 Defect Energy:  25.048394  Gnorm:     0.006111  CPU:   54.579
  Cycle:     21 Defect Energy:  25.003820  Gnorm:     0.005819  CPU:   55.230
  ** Hessian calculated **
  Cycle:     22 Defect Energy:  24.813350  Gnorm:     0.005042  CPU:   57.567
  Cycle:     23 Defect Energy:  24.579027  Gnorm:     0.003876  CPU:   58.178
  Cycle:     24 Defect Energy:  24.410692  Gnorm:     0.002732  CPU:   58.778
  Cycle:     25 Defect Energy:  24.328263  Gnorm:     0.001927  CPU:   59.342
  Cycle:     26 Defect Energy:  24.287443  Gnorm:     0.001358  CPU:   59.947
  Cycle:     27 Defect Energy:  24.267241  Gnorm:     0.000955  CPU:   60.554
  Cycle:     28 Defect Energy:  24.257269  Gnorm:     0.000671  CPU:   61.156
  Cycle:     29 Defect Energy:  24.252367  Gnorm:     0.000471  CPU:   61.847
  Cycle:     30 Defect Energy:  24.249970  Gnorm:     0.000331  CPU:   62.443
  Cycle:     31 Defect Energy:  24.248804  Gnorm:     0.000232  CPU:   63.022
  ** Hessian calculated **
  Cycle:     32 Defect Energy:  24.248241  Gnorm:     0.000162  CPU:   65.110
  Cycle:     33 Defect Energy:  24.247973  Gnorm:     0.000114  CPU:   65.650
  Cycle:     34 Defect Energy:  24.247847  Gnorm:     0.000080  CPU:   66.244
  Cycle:     35 Defect Energy:  24.247788  Gnorm:     0.000056  CPU:   66.934
  Cycle:     36 Defect Energy:  24.247763  Gnorm:     0.000039  CPU:   67.521
  Cycle:     37 Defect Energy:  24.247752  Gnorm:     0.000027  CPU:   68.073


  **** Optimisation achieved ****


  Final defect energy  =       24.24774774
  Final defect Gnorm   =        0.00001915

  Components of defect energy : 

--------------------------------------------------------------------------------
  Region 1 - region 1                   =     73.34300177 eV
  Region 1 - region 2a (unrelaxed)      =    -47.07754644 eV
  Region 1 - 2a (relaxed - correction)  =     -0.74389414 eV
  Region 1 (Total)                      =     25.52156119 eV
  Region 2a                             =      0.37132268 eV
  Region 2b                             =     -1.64513612 eV
--------------------------------------------------------------------------------
  Total defect energy                   =     24.24774774 eV
--------------------------------------------------------------------------------

  Largest displacement in region 2 =   0.0461 Angstroms

  Final coordinates of region 1 :

--------------------------------------------------------------------------------
   No.  Atomic        x           y           z          Radius      Charge
        Label       (Angs)      (Angs)      (Angs)       (Angs)       (e) 
--------------------------------------------------------------------------------
     1  O     c     1.261120    1.261120    0.000000    0.000000    0.183000
     2  Na    c     1.640128    3.473346    0.000000    0.000000    1.000000
     3  Na    c     3.473346    1.640128    0.000000    0.000000    1.000000
     4  Cl    c     2.628453    2.628453   -2.439612    0.000000    1.485000
     5  Cl    c     2.628453    2.628453    2.439612    0.000000    1.485000
     6  Na    c     2.437767   -0.585666    0.000000    0.000000    1.000000
     7  Na    c    -0.585666    2.437767    0.000000    0.000000    1.000000
     8  O     c     4.566250   -0.159467    0.000000    0.000000    0.183000
     9  O     c    -0.159467    4.566250    0.000000    0.000000    0.183000
    10  Na    c     4.489591    4.489591   -2.548485    0.000000    1.000000
    11  Na    c     4.489591    4.489591    2.548485    0.000000    1.000000
    12  Na    c     4.633608   -0.014697   -2.236847    0.000000    1.000000
    13  Na    c     4.633608   -0.014697    2.236847    0.000000    1.000000
    14  Na    c    -0.014697    4.633608   -2.236847    0.000000    1.000000
    15  Na    c    -0.014697    4.633608    2.236847    0.000000    1.000000
    16  Na    c     0.639955    0.639955   -2.148226    0.000000    1.000000
    17  Na    c     0.639955    0.639955    2.148226    0.000000    1.000000
    18  Na    c     6.881672    4.227778    0.000000    0.000000    1.000000
    19  Na    c     4.227778    6.881672    0.000000    0.000000    1.000000
    20  Cl    c     2.445481    6.438390   -2.046998    0.000000    1.485000
    21  Cl    c     2.445481    6.438390    2.046998    0.000000    1.485000
    22  Cl    c     6.438390    2.445481   -2.046998    0.000000    1.485000
    23  Cl    c     6.438390    2.445481    2.046998    0.000000    1.485000
    24  Na    c     2.231045    4.452094    4.522858    0.000000    1.000000
    25  Na    c     2.231045    4.452094   -4.522858    0.000000    1.000000
    26  Na    c     4.452094    2.231045    4.522858    0.000000    1.000000
    27  Na    c     4.452094    2.231045   -4.522858    0.000000    1.000000
    28  Na    c     6.671440    0.368670    0.000000    0.000000    1.000000
    29  Na    c     0.368670    6.671440    0.000000    0.000000    1.000000
    30  Na    c     2.284961    0.003917    4.594082    0.000000    1.000000
    31  Na    c     2.284961    0.003917   -4.594082    0.000000    1.000000
    32  Na    c     0.003917    2.284961    4.594082    0.000000    1.000000
    33  Na    c     0.003917    2.284961   -4.594082    0.000000    1.000000
    34  Na    c    -2.297946    4.875487    0.000000    0.000000    1.000000
    35  Na    c     4.875487   -2.297946    0.000000    0.000000    1.000000
    36  Cl    c     2.047080   -2.171822   -2.066006    0.000000    1.485000
    37  Cl    c     2.047080   -2.171822    2.066006    0.000000    1.485000
    38  Cl    c    -2.171822    2.047080   -2.066006    0.000000    1.485000
    39  Cl    c    -2.171822    2.047080    2.066006    0.000000    1.485000
    40  Na    c    -2.452727   -0.084726    0.000000    0.000000    1.000000
    41  Na    c    -0.084726   -2.452727    0.000000    0.000000    1.000000
    42  O     c     4.480788    4.480788    4.628630    0.000000    0.183000
    43  O     c     4.480788    4.480788   -4.628630    0.000000    0.183000
    44  O     c     4.470016    0.000459    4.429057    0.000000    0.183000
    45  O     c     4.470016    0.000459   -4.429057    0.000000    0.183000
    46  O     c     0.000459    4.470016    4.429057    0.000000    0.183000
    47  O     c     0.000459    4.470016   -4.429057    0.000000    0.183000
    48  O     c     0.124201    0.124201    4.302699    0.000000    0.183000
    49  O     c     0.124201    0.124201   -4.302699    0.000000    0.183000
    50  Cl    c     6.320070    6.320070   -1.845495    0.000000    1.485000
    51  Cl    c     6.320070    6.320070    1.845495    0.000000    1.485000
    52  Na    c     2.197138    9.193564    0.000000    0.000000    1.000000
    53  Na    c     9.193564    2.197138    0.000000    0.000000    1.000000
    54  Na    c     6.662802    4.432707    4.615747    0.000000    1.000000
    55  Na    c     6.662802    4.432707   -4.615747    0.000000    1.000000
    56  Na    c     4.432707    6.662802    4.615747    0.000000    1.000000
    57  Na    c     4.432707    6.662802   -4.615747    0.000000    1.000000
    58  Na    c     6.658244   -0.044488    4.521612    0.000000    1.000000
    59  Na    c     6.658244   -0.044488   -4.521612    0.000000    1.000000
    60  Na    c    -0.044488    6.658244    4.521612    0.000000    1.000000
    61  Na    c    -0.044488    6.658244   -4.521612    0.000000    1.000000
    62  Cl    c     2.220882    2.220882    6.634076    0.000000    1.485000
    63  Cl    c     2.220882    2.220882   -6.634076    0.000000    1.485000
    64  Cl    c     6.664452   -2.204688   -2.275734    0.000000    1.485000
    65  Cl    c     6.664452   -2.204688    2.275734    0.000000    1.485000
    66  Cl    c    -2.204688    6.664452   -2.275734    0.000000    1.485000
    67  Cl    c    -2.204688    6.664452    2.275734    0.000000    1.485000
    68  Na    c    -2.210242    4.476804    4.460427    0.000000    1.000000
    69  Na    c    -2.210242    4.476804   -4.460427    0.000000    1.000000
    70  Na    c     4.476804   -2.210242    4.460427    0.000000    1.000000
    71  Na    c     4.476804   -2.210242   -4.460427    0.000000    1.000000
    72  Na    c     2.251995   -4.430508    0.000000    0.000000    1.000000
    73  Na    c    -4.430508    2.251995    0.000000    0.000000    1.000000
    74  Na    c    -2.117025    0.040569    4.114175    0.000000    1.000000
    75  Na    c    -2.117025    0.040569   -4.114175    0.000000    1.000000
    76  Na    c     0.040569   -2.117025    4.114175    0.000000    1.000000
    77  Na    c     0.040569   -2.117025   -4.114175    0.000000    1.000000
    78  Cl    c    -2.002591   -2.002591   -1.927407    0.000000    1.485000
    79  Cl    c    -2.002591   -2.002591    1.927407    0.000000    1.485000
    80  O     c     4.394332    8.961155    0.000000    0.000000    0.183000
    81  O     c     8.961155    4.394332    0.000000    0.000000    0.183000
    82  O     c     8.842839    0.028888    0.000000    0.000000    0.183000
    83  O     c     0.028888    8.842839    0.000000    0.000000    0.183000
    84  O     c     4.465038   -4.446850    0.000000    0.000000    0.183000
    85  O     c    -4.446850    4.465038    0.000000    0.000000    0.183000
    86  O     c     0.014384   -4.530323    0.000000    0.000000    0.183000
    87  O     c    -4.530323    0.014384    0.000000    0.000000    0.183000
    88  Na    c     4.392316    8.884037   -2.225556    0.000000    1.000000
    89  Na    c     4.392316    8.884037    2.225556    0.000000    1.000000
    90  Na    c     8.884037    4.392316   -2.225556    0.000000    1.000000
    91  Na    c     8.884037    4.392316    2.225556    0.000000    1.000000
    92  Na    c     4.385225    4.385225    6.739464    0.000000    1.000000
    93  Na    c     4.385225    4.385225   -6.739464    0.000000    1.000000
    94  Na    c     8.875038   -0.063116   -2.205737    0.000000    1.000000
    95  Na    c     8.875038   -0.063116    2.205737    0.000000    1.000000
    96  Na    c    -0.063116    8.875038   -2.205737    0.000000    1.000000
    97  Na    c    -0.063116    8.875038    2.205737    0.000000    1.000000
    98  Na    c     4.490334   -0.005983    6.650048    0.000000    1.000000
    99  Na    c     4.490334   -0.005983   -6.650048    0.000000    1.000000
   100  Na    c    -0.005983    4.490334    6.650048    0.000000    1.000000
   101  Na    c    -0.005983    4.490334   -6.650048    0.000000    1.000000
   102  Na    c     4.425797   -4.457257   -2.205538    0.000000    1.000000
   103  Na    c     4.425797   -4.457257    2.205538    0.000000    1.000000
   104  Na    c    -4.457257    4.425797   -2.205538    0.000000    1.000000
   105  Na    c    -4.457257    4.425797    2.205538    0.000000    1.000000
   106  Na    c    -0.080755   -0.080755    6.552945    0.000000    1.000000
   107  Na    c    -0.080755   -0.080755   -6.552945    0.000000    1.000000
   108  Na    c     0.032526   -4.577045   -2.201694    0.000000    1.000000
   109  Na    c     0.032526   -4.577045    2.201694    0.000000    1.000000
   110  Na    c    -4.577045    0.032526   -2.201694    0.000000    1.000000
   111  Na    c    -4.577045    0.032526    2.201694    0.000000    1.000000
   112  Na    c     6.607555    8.824138    0.000000    0.000000    1.000000
   113  Na    c     8.824138    6.607555    0.000000    0.000000    1.000000
   114  Na    c     2.208266    8.866174    4.448984    0.000000    1.000000
   115  Na    c     2.208266    8.866174   -4.448984    0.000000    1.000000
   116  Na    c     8.866174    2.208266    4.448984    0.000000    1.000000
   117  Na    c     8.866174    2.208266   -4.448984    0.000000    1.000000
   118  Cl    c     2.183127    6.646185    6.602931    0.000000    1.485000
   119  Cl    c     2.183127    6.646185   -6.602931    0.000000    1.485000
   120  Cl    c     6.646185    2.183127    6.602931    0.000000    1.485000
   121  Cl    c     6.646185    2.183127   -6.602931    0.000000    1.485000
   122  Na    c    -2.204102    8.654119    0.000000    0.000000    1.000000
   123  Na    c     8.654119   -2.204102    0.000000    0.000000    1.000000
   124  Na    c     6.652891   -4.693879    0.000000    0.000000    1.000000
   125  Na    c    -4.693879    6.652891    0.000000    0.000000    1.000000
   126  Cl    c     2.232246   -2.159677    6.561636    0.000000    1.485000
   127  Cl    c     2.232246   -2.159677   -6.561636    0.000000    1.485000
   128  Cl    c    -2.159677    2.232246    6.561636    0.000000    1.485000
   129  Cl    c    -2.159677    2.232246   -6.561636    0.000000    1.485000
   130  Na    c     2.202127   -4.391736    4.457011    0.000000    1.000000
   131  Na    c     2.202127   -4.391736   -4.457011    0.000000    1.000000
   132  Na    c    -4.391736    2.202127    4.457011    0.000000    1.000000
   133  Na    c    -4.391736    2.202127   -4.457011    0.000000    1.000000
   134  Na    c    -2.222706   -4.525242    0.000000    0.000000    1.000000
   135  Na    c    -4.525242   -2.222706    0.000000    0.000000    1.000000
   136  O     c     4.420267    8.833534    4.419623    0.000000    0.183000
   137  O     c     4.420267    8.833534   -4.419623    0.000000    0.183000
   138  O     c     8.833534    4.420267    4.419623    0.000000    0.183000
   139  O     c     8.833534    4.420267   -4.419623    0.000000    0.183000
   140  O     c     8.824497    0.015274    4.399652    0.000000    0.183000
   141  O     c     8.824497    0.015274   -4.399652    0.000000    0.183000
   142  O     c     0.015274    8.824497    4.399652    0.000000    0.183000
   143  O     c     0.015274    8.824497   -4.399652    0.000000    0.183000
   144  O     c     4.403261   -4.393556    4.395955    0.000000    0.183000
   145  O     c     4.403261   -4.393556   -4.395955    0.000000    0.183000
   146  O     c    -4.393556    4.403261    4.395955    0.000000    0.183000
   147  O     c    -4.393556    4.403261   -4.395955    0.000000    0.183000
   148  O     c     0.006272   -4.366519    4.371316    0.000000    0.183000
   149  O     c     0.006272   -4.366519   -4.371316    0.000000    0.183000
   150  O     c    -4.366519    0.006272    4.371316    0.000000    0.183000
   151  O     c    -4.366519    0.006272   -4.371316    0.000000    0.183000
   152  Na    c     6.622411    8.910588    4.474603    0.000000    1.000000
   153  Na    c     6.622411    8.910588   -4.474603    0.000000    1.000000
   154  Na    c     8.910588    6.622411    4.474603    0.000000    1.000000
   155  Na    c     8.910588    6.622411   -4.474603    0.000000    1.000000
   156  Na    c    11.099986    4.553738    0.000000    0.000000    1.000000
   157  Na    c     4.553738   11.099986    0.000000    0.000000    1.000000
   158  Cl    c     2.205306   11.024364   -2.233176    0.000000    1.485000
   159  Cl    c     2.205306   11.024364    2.233176    0.000000    1.485000
   160  Cl    c    11.024364    2.205306   -2.233176    0.000000    1.485000
   161  Cl    c    11.024364    2.205306    2.233176    0.000000    1.485000
   162  Cl    c     6.661850    6.661850    6.611633    0.000000    1.485000
   163  Cl    c     6.661850    6.661850   -6.611633    0.000000    1.485000
   164  Na    c    11.044664   -0.188956    0.000000    0.000000    1.000000
   165  Na    c    -0.188956   11.044664    0.000000    0.000000    1.000000
   166  Na    c     2.196621    4.405601    8.913448    0.000000    1.000000
   167  Na    c     2.196621    4.405601   -8.913448    0.000000    1.000000
   168  Na    c     4.405601    2.196621    8.913448    0.000000    1.000000
   169  Na    c     4.405601    2.196621   -8.913448    0.000000    1.000000
   170  Na    c    -2.214665    8.844296    4.428762    0.000000    1.000000
   171  Na    c    -2.214665    8.844296   -4.428762    0.000000    1.000000
   172  Na    c     8.844296   -2.214665    4.428762    0.000000    1.000000
   173  Na    c     8.844296   -2.214665   -4.428762    0.000000    1.000000
   174  Cl    c     6.611027   -2.181583    6.595914    0.000000    1.485000
   175  Cl    c     6.611027   -2.181583   -6.595914    0.000000    1.485000
   176  Cl    c    -2.181583    6.611027    6.595914    0.000000    1.485000
   177  Cl    c    -2.181583    6.611027   -6.595914    0.000000    1.485000
   178  Na    c     2.199555    0.005205    8.774207    0.000000    1.000000
   179  Na    c     2.199555    0.005205   -8.774207    0.000000    1.000000
   180  Na    c     0.005205    2.199555    8.774207    0.000000    1.000000
   181  Na    c     0.005205    2.199555   -8.774207    0.000000    1.000000
   182  Na    c     6.623789   -4.439669    4.397443    0.000000    1.000000
   183  Na    c     6.623789   -4.439669   -4.397443    0.000000    1.000000
   184  Na    c    -4.439669    6.623789    4.397443    0.000000    1.000000
   185  Na    c    -4.439669    6.623789   -4.397443    0.000000    1.000000
   186  Na    c    -6.651573    4.352155    0.000000    0.000000    1.000000
   187  Na    c     4.352155   -6.651573    0.000000    0.000000    1.000000
   188  Cl    c     2.224247   -6.598709   -2.202294    0.000000    1.485000
   189  Cl    c     2.224247   -6.598709    2.202294    0.000000    1.485000
   190  Cl    c    -6.598709    2.224247   -2.202294    0.000000    1.485000
   191  Cl    c    -6.598709    2.224247    2.202294    0.000000    1.485000
   192  Cl    c    -2.171295   -2.171295    6.537931    0.000000    1.485000
   193  Cl    c    -2.171295   -2.171295   -6.537931    0.000000    1.485000
   194  Na    c    -6.684038    0.036880    0.000000    0.000000    1.000000
   195  Na    c     0.036880   -6.684038    0.000000    0.000000    1.000000
   196  Na    c    -2.188357   -4.420889    4.449950    0.000000    1.000000
   197  Na    c    -2.188357   -4.420889   -4.449950    0.000000    1.000000
   198  Na    c    -4.420889   -2.188357    4.449950    0.000000    1.000000
   199  Na    c    -4.420889   -2.188357   -4.449950    0.000000    1.000000
   200  O     c     8.804673    8.804673    0.000000    0.000000    0.183000
   201  O     c     4.411061    4.411061    8.877564    0.000000    0.183000
   202  O     c     4.411061    4.411061   -8.877564    0.000000    0.183000
   203  O     c     4.414600   -0.001843    8.824119    0.000000    0.183000
   204  O     c     4.414600   -0.001843   -8.824119    0.000000    0.183000
   205  O     c    -0.001843    4.414600    8.824119    0.000000    0.183000
   206  O     c    -0.001843    4.414600   -8.824119    0.000000    0.183000
   207  O     c     8.813948   -4.415623    0.000000    0.000000    0.183000
   208  O     c    -4.415623    8.813948    0.000000    0.000000    0.183000
   209  O     c    -0.004239   -0.004239    8.781300    0.000000    0.183000
   210  O     c    -0.004239   -0.004239   -8.781300    0.000000    0.183000
   211  O     c    -4.420730   -4.420730    0.000000    0.000000    0.183000
   212  Na    c     8.884801    8.884801   -2.202383    0.000000    1.000000
   213  Na    c     8.884801    8.884801    2.202383    0.000000    1.000000
   214  Na    c     4.411283    8.881696    6.635622    0.000000    1.000000
   215  Na    c     4.411283    8.881696   -6.635622    0.000000    1.000000
   216  Na    c     8.881696    4.411283    6.635622    0.000000    1.000000
   217  Na    c     8.881696    4.411283   -6.635622    0.000000    1.000000
   218  Na    c     8.852484   -0.009068    6.622819    0.000000    1.000000
   219  Na    c     8.852484   -0.009068   -6.622819    0.000000    1.000000
   220  Na    c    -0.009068    8.852484    6.622819    0.000000    1.000000
   221  Na    c    -0.009068    8.852484   -6.622819    0.000000    1.000000
   222  Na    c     8.841284   -4.401236   -2.209769    0.000000    1.000000
   223  Na    c     8.841284   -4.401236    2.209769    0.000000    1.000000
   224  Na    c    -4.401236    8.841284   -2.209769    0.000000    1.000000
   225  Na    c    -4.401236    8.841284    2.209769    0.000000    1.000000
   226  Na    c     4.436441   -4.429116    6.610188    0.000000    1.000000
   227  Na    c     4.436441   -4.429116   -6.610188    0.000000    1.000000
   228  Na    c    -4.429116    4.436441    6.610188    0.000000    1.000000
   229  Na    c    -4.429116    4.436441   -6.610188    0.000000    1.000000
   230  Na    c    -0.017226   -4.280213    6.587585    0.000000    1.000000
   231  Na    c    -0.017226   -4.280213   -6.587585    0.000000    1.000000
   232  Na    c    -4.280213   -0.017226    6.587585    0.000000    1.000000
   233  Na    c    -4.280213   -0.017226   -6.587585    0.000000    1.000000
   234  Na    c    -4.449505   -4.449505   -2.204941    0.000000    1.000000
   235  Na    c    -4.449505   -4.449505    2.204941    0.000000    1.000000
   236  Cl    c     6.633908   10.984076   -2.209258    0.000000    1.485000
   237  Cl    c     6.633908   10.984076    2.209258    0.000000    1.485000
   238  Cl    c    10.984076    6.633908   -2.209258    0.000000    1.485000
   239  Cl    c    10.984076    6.633908    2.209258    0.000000    1.485000
   240  Na    c    11.040042    4.390503    4.408624    0.000000    1.000000
   241  Na    c    11.040042    4.390503   -4.408624    0.000000    1.000000
   242  Na    c     4.390503   11.040042    4.408624    0.000000    1.000000
   243  Na    c     4.390503   11.040042   -4.408624    0.000000    1.000000
   244  Na    c     6.619030    4.404979    8.859589    0.000000    1.000000
   245  Na    c     6.619030    4.404979   -8.859589    0.000000    1.000000
   246  Na    c     4.404979    6.619030    8.859589    0.000000    1.000000
   247  Na    c     4.404979    6.619030   -8.859589    0.000000    1.000000
   248  Na    c    11.030386   -0.001332    4.408599    0.000000    1.000000
   249  Na    c    11.030386   -0.001332   -4.408599    0.000000    1.000000
   250  Na    c    -0.001332   11.030386    4.408599    0.000000    1.000000
   251  Na    c    -0.001332   11.030386   -4.408599    0.000000    1.000000
   252  Cl    c    11.001635   -2.187402   -2.195563    0.000000    1.485000
   253  Cl    c    11.001635   -2.187402    2.195563    0.000000    1.485000
   254  Cl    c    -2.187402   11.001635   -2.195563    0.000000    1.485000
   255  Cl    c    -2.187402   11.001635    2.195563    0.000000    1.485000
   256  Na    c     6.620304   -0.012341    8.856137    0.000000    1.000000
   257  Na    c     6.620304   -0.012341   -8.856137    0.000000    1.000000
   258  Na    c    -0.012341    6.620304    8.856137    0.000000    1.000000
   259  Na    c    -0.012341    6.620304   -8.856137    0.000000    1.000000
   260  Na    c    -2.208349    4.390701    8.828038    0.000000    1.000000
   261  Na    c    -2.208349    4.390701   -8.828038    0.000000    1.000000
   262  Na    c     4.390701   -2.208349    8.828038    0.000000    1.000000
   263  Na    c     4.390701   -2.208349   -8.828038    0.000000    1.000000
   264  Cl    c     6.607572   -6.604117   -2.205234    0.000000    1.485000
   265  Cl    c     6.607572   -6.604117    2.205234    0.000000    1.485000
   266  Cl    c    -6.604117    6.607572   -2.205234    0.000000    1.485000
   267  Cl    c    -6.604117    6.607572    2.205234    0.000000    1.485000
   268  Na    c    -6.613748    4.384620    4.411678    0.000000    1.000000
   269  Na    c    -6.613748    4.384620   -4.411678    0.000000    1.000000
   270  Na    c     4.384620   -6.613748    4.411678    0.000000    1.000000
   271  Na    c     4.384620   -6.613748   -4.411678    0.000000    1.000000
   272  Na    c    -2.196164    0.005725    8.854525    0.000000    1.000000
   273  Na    c    -2.196164    0.005725   -8.854525    0.000000    1.000000
   274  Na    c     0.005725   -2.196164    8.854525    0.000000    1.000000
   275  Na    c     0.005725   -2.196164   -8.854525    0.000000    1.000000
   276  Na    c    -6.603118    0.014379    4.474994    0.000000    1.000000
   277  Na    c    -6.603118    0.014379   -4.474994    0.000000    1.000000
   278  Na    c     0.014379   -6.603118    4.474994    0.000000    1.000000
   279  Na    c     0.014379   -6.603118   -4.474994    0.000000    1.000000
   280  Cl    c    -2.209683   -6.587772   -2.207350    0.000000    1.485000
   281  Cl    c    -2.209683   -6.587772    2.207350    0.000000    1.485000
   282  Cl    c    -6.587772   -2.209683   -2.207350    0.000000    1.485000
   283  Cl    c    -6.587772   -2.209683    2.207350    0.000000    1.485000
   284  O     c     8.812234    8.812234    4.391174    0.000000    0.183000
   285  O     c     8.812234    8.812234   -4.391174    0.000000    0.183000
   286  O     c     8.825957   -4.414387    4.411249    0.000000    0.183000
   287  O     c     8.825957   -4.414387   -4.411249    0.000000    0.183000
   288  O     c    -4.414387    8.825957    4.411249    0.000000    0.183000
   289  O     c    -4.414387    8.825957   -4.411249    0.000000    0.183000
   290  O     c    -4.388631   -4.388631    4.393856    0.000000    0.183000
   291  O     c    -4.388631   -4.388631   -4.393856    0.000000    0.183000
   292  Na    c    11.027839    8.801687    0.000000    0.000000    1.000000
   293  Na    c     8.801687   11.027839    0.000000    0.000000    1.000000
   294  Na    c     2.195535   13.202361    0.000000    0.000000    1.000000
   295  Na    c    13.202361    2.195535    0.000000    0.000000    1.000000
   296  Cl    c     2.217357   11.000482    6.594346    0.000000    1.485000
   297  Cl    c     2.217357   11.000482   -6.594346    0.000000    1.485000
   298  Cl    c    11.000482    2.217357    6.594346    0.000000    1.485000
   299  Cl    c    11.000482    2.217357   -6.594346    0.000000    1.485000
   300  Na    c     2.199757    8.811716    8.834496    0.000000    1.000000
   301  Na    c     2.199757    8.811716   -8.834496    0.000000    1.000000
   302  Na    c     8.811716    2.199757    8.834496    0.000000    1.000000
   303  Na    c     8.811716    2.199757   -8.834496    0.000000    1.000000
   304  Na    c    11.021095   -4.346266    0.000000    0.000000    1.000000
   305  Na    c    -4.346266   11.021095    0.000000    0.000000    1.000000
   306  Cl    c     2.195712    2.195712   10.994533    0.000000    1.485000
   307  Cl    c     2.195712    2.195712  -10.994533    0.000000    1.485000
   308  Na    c    -6.625731    8.928475    0.000000    0.000000    1.000000
   309  Na    c     8.928475   -6.625731    0.000000    0.000000    1.000000
   310  Na    c     2.200311   -4.428288    8.810162    0.000000    1.000000
   311  Na    c     2.200311   -4.428288   -8.810162    0.000000    1.000000
   312  Na    c    -4.428288    2.200311    8.810162    0.000000    1.000000
   313  Na    c    -4.428288    2.200311   -8.810162    0.000000    1.000000
   314  Cl    c     2.202068   -6.580157    6.581706    0.000000    1.485000
   315  Cl    c     2.202068   -6.580157   -6.581706    0.000000    1.485000
   316  Cl    c    -6.580157    2.202068    6.581706    0.000000    1.485000
   317  Cl    c    -6.580157    2.202068   -6.581706    0.000000    1.485000
   318  Na    c     2.204895   -8.883950    0.000000    0.000000    1.000000
   319  Na    c    -8.883950    2.204895    0.000000    0.000000    1.000000
   320  Na    c    -6.630469   -4.434971    0.000000    0.000000    1.000000
   321  Na    c    -4.434971   -6.630469    0.000000    0.000000    1.000000
   322  O     c     4.419083   13.246145    0.000000    0.000000    0.183000
   323  O     c    13.246145    4.419083    0.000000    0.000000    0.183000
   324  O     c     4.407661    8.813690    8.813236    0.000000    0.183000
   325  O     c     4.407661    8.813690   -8.813236    0.000000    0.183000
   326  O     c     8.813690    4.407661    8.813236    0.000000    0.183000
   327  O     c     8.813690    4.407661   -8.813236    0.000000    0.183000
   328  O     c    13.221874   -0.013915    0.000000    0.000000    0.183000
   329  O     c    -0.013915   13.221874    0.000000    0.000000    0.183000
   330  O     c     8.815461   -0.001948    8.812758    0.000000    0.183000
   331  O     c     8.815461   -0.001948   -8.812758    0.000000    0.183000
   332  O     c    -0.001948    8.815461    8.812758    0.000000    0.183000
   333  O     c    -0.001948    8.815461   -8.812758    0.000000    0.183000
   334  O     c     4.404068   -4.403438    8.805213    0.000000    0.183000
   335  O     c     4.404068   -4.403438   -8.805213    0.000000    0.183000
   336  O     c    -4.403438    4.404068    8.805213    0.000000    0.183000
   337  O     c    -4.403438    4.404068   -8.805213    0.000000    0.183000
   338  O     c     4.402370   -8.823971    0.000000    0.000000    0.183000
   339  O     c    -8.823971    4.402370    0.000000    0.000000    0.183000
   340  O     c     0.000966   -4.389471    8.799430    0.000000    0.183000
   341  O     c     0.000966   -4.389471   -8.799430    0.000000    0.183000
   342  O     c    -4.389471    0.000966    8.799430    0.000000    0.183000
   343  O     c    -4.389471    0.000966   -8.799430    0.000000    0.183000
   344  O     c     0.002629   -8.838411    0.000000    0.000000    0.183000
   345  O     c    -8.838411    0.002629    0.000000    0.000000    0.183000
   346  Na    c     8.808303    8.808303    6.621136    0.000000    1.000000
   347  Na    c     8.808303    8.808303   -6.621136    0.000000    1.000000
   348  Na    c     4.387642   13.268017   -2.208799    0.000000    1.000000
   349  Na    c     4.387642   13.268017    2.208799    0.000000    1.000000
   350  Na    c    13.268017    4.387642   -2.208799    0.000000    1.000000
   351  Na    c    13.268017    4.387642    2.208799    0.000000    1.000000
[...]
    121 y          0.000000      0.017685     0.017685    Cartesian    0.00
    121 z         11.014756     11.011228    -0.003527    Cartesian   -0.03
    122 x          4.405902      4.420937     0.015035    Cartesian    0.34
    122 y         -8.811805     -8.841842    -0.030037    Cartesian    0.34
    122 z         -2.202951     -2.207588    -0.004637    Cartesian    0.21
    123 x          0.000000     -0.008737    -0.008737    Cartesian    0.00
    123 y         -8.811805     -8.844680    -0.032875    Cartesian    0.37
    123 z         -2.202951     -2.212326    -0.009375    Cartesian    0.43
    124 x         -4.405902     -4.411814    -0.005912    Cartesian    0.13
    124 y         -4.405902     -4.411814    -0.005912    Cartesian    0.13
    124 z          6.608853      6.611974     0.003120    Cartesian    0.05
    125 x          6.608853      6.624426     0.015573    Cartesian    0.24
    125 y         13.217707     13.316064     0.098357    Cartesian    0.74
    125 z          0.000000      0.000000     0.000000    Cartesian    0.00
    126 x         11.014756     11.030034     0.015279    Cartesian    0.14
    126 y          8.811805      8.839591     0.027786    Cartesian    0.32
    126 z          4.405902      4.427147     0.021244    Cartesian    0.48
    127 x          6.608853      6.604275    -0.004579    Cartesian   -0.07
    127 y         11.014756     10.994779    -0.019977    Cartesian   -0.18
    127 z          6.608853      6.584906    -0.023948    Cartesian   -0.36
    128 x          2.202951      2.199507    -0.003444    Cartesian   -0.16
    128 y         13.217707     13.252843     0.035136    Cartesian    0.27
    128 z          4.405902      4.426360     0.020457    Cartesian    0.46
    129 x          6.608853      6.614795     0.005942    Cartesian    0.09
    129 y          8.811805      8.817069     0.005264    Cartesian    0.06
    129 z          8.811805      8.841058     0.029253    Cartesian    0.33
    130 x         -2.202951     -2.216603    -0.013652    Cartesian    0.62
    130 y         13.217707     13.310847     0.093140    Cartesian    0.70
    130 z          0.000000      0.000000     0.000000    Cartesian    0.00
    131 x          2.202951      2.204175     0.001224    Cartesian    0.06
    131 y          6.608853      6.610212     0.001359    Cartesian    0.02
    131 z         11.014756     10.984653    -0.030103    Cartesian   -0.27
    132 x         11.014756     10.989198    -0.025557    Cartesian   -0.23
    132 y         -2.202951     -2.178013     0.024939    Cartesian   -1.13
    132 z          6.608853      6.588817    -0.020036    Cartesian   -0.30
    133 x         -2.202951     -2.208698    -0.005747    Cartesian    0.26
    133 y          8.811805      8.831516     0.019711    Cartesian    0.22
    133 z          8.811805      8.836070     0.024266    Cartesian    0.28
    134 x         11.014756     11.026510     0.011755    Cartesian    0.11
    134 y         -4.405902     -4.439178    -0.033276    Cartesian    0.76
    134 z          4.405902      4.428091     0.022188    Cartesian    0.50
    135 x          6.608853      6.611710     0.002857    Cartesian    0.04
    135 y         -4.405902     -4.418661    -0.012759    Cartesian    0.29
    135 z          8.811805      8.842485     0.030680    Cartesian    0.35
    136 x         -6.608853     -6.619672    -0.010818    Cartesian    0.16
    136 y          8.811805      8.834337     0.022532    Cartesian    0.26
    136 z          4.405902      4.414054     0.008151    Cartesian    0.19
    137 x          2.202951      2.201045    -0.001906    Cartesian   -0.09
    137 y         -2.202951     -2.188081     0.014870    Cartesian   -0.68
    137 z         11.014756     10.977793    -0.036963    Cartesian   -0.34
    138 x          6.608853      6.591324    -0.017529    Cartesian   -0.27
    138 y         -6.608853     -6.574162     0.034691    Cartesian   -0.52
    138 z          6.608853      6.590777    -0.018077    Cartesian   -0.27
    139 x          6.608853      6.616084     0.007231    Cartesian    0.11
    139 y         -8.811805     -8.833321    -0.021517    Cartesian    0.24
    139 z          0.000000      0.000000     0.000000    Cartesian    0.00
    140 x          2.202951      2.204104     0.001153    Cartesian    0.05
    140 y         -8.811805     -8.847253    -0.035448    Cartesian    0.40
    140 z          4.405902      4.410784     0.004882    Cartesian    0.11
    141 x         -2.202951     -2.202874     0.000077    Cartesian   -0.00
    141 y         -4.405902     -4.422949    -0.017047    Cartesian    0.39
    141 z          8.811805      8.831420     0.019616    Cartesian    0.22
    142 x         -2.202951     -2.192164     0.010788    Cartesian   -0.49
    142 y         -6.608853     -6.571345     0.037509    Cartesian   -0.57
    142 z          6.608853      6.576990    -0.031864    Cartesian   -0.48
    143 x         -2.202951     -2.208249    -0.005298    Cartesian    0.24
    143 y         -8.811805     -8.855762    -0.043957    Cartesian    0.50
    143 z          0.000000      0.000000     0.000000    Cartesian    0.00
    144 x         -6.608853     -6.612712    -0.003858    Cartesian    0.06
    144 y         -4.405902     -4.408341    -0.002439    Cartesian    0.06
    144 z          4.405902      4.419419     0.013516    Cartesian    0.31
    145 x          1.261120      1.261120     0.000000    Cartesian    0.00
    145 y          1.261120      1.261120     0.000000    Cartesian    0.00
    145 z          0.000000      0.000000     0.000000    Cartesian    0.00
    146 x          2.202951      2.654229     0.451278    Cartesian   20.49
    146 y          2.202951      2.654229     0.451278    Cartesian   20.49
    146 z         -2.202951     -2.430321    -0.227370    Cartesian   10.32
    147 x          4.405902      4.566059     0.160157    Cartesian    3.64
    147 y          0.000000     -0.159397    -0.159397    Cartesian    0.00
    147 z          0.000000      0.000000     0.000000    Cartesian    0.00
    148 x          2.202951      2.465245     0.262294    Cartesian   11.91
    148 y          6.608853      6.430743    -0.178111    Cartesian   -2.70
    148 z         -2.202951     -2.027194     0.175757    Cartesian   -7.98
    149 x          2.202951      2.030744    -0.172207    Cartesian   -7.82
    149 y         -2.202951     -2.154042     0.048909    Cartesian   -2.22
    149 z         -2.202951     -2.035643     0.167308    Cartesian   -7.59
    150 x          4.405902      4.480832     0.074930    Cartesian    1.70
    150 y          4.405902      4.480832     0.074930    Cartesian    1.70
    150 z          4.405902      4.628539     0.222637    Cartesian    5.05
    151 x          4.405902      4.470049     0.064147    Cartesian    1.46
    151 y          0.000000      0.000422     0.000422    Cartesian    0.00
    151 z          4.405902      4.429101     0.023199    Cartesian    0.53
    152 x          0.000000      0.124282     0.124282    Cartesian    0.00
    152 y          0.000000      0.124282     0.124282    Cartesian    0.00
    152 z          4.405902      4.302773    -0.103129    Cartesian   -2.34
    153 x          6.608853      6.289129    -0.319724    Cartesian   -4.84
    153 y          6.608853      6.289129    -0.319724    Cartesian   -4.84
    153 z         -2.202951     -1.822663     0.380288    Cartesian  -17.26
    154 x          2.202951      2.221211     0.018259    Cartesian    0.83
    154 y          2.202951      2.221211     0.018259    Cartesian    0.83
    154 z          6.608853      6.627544     0.018691    Cartesian    0.28
    155 x          6.608853      6.660978     0.052125    Cartesian    0.79
    155 y         -2.202951     -2.201570     0.001381    Cartesian   -0.06
    155 z         -2.202951     -2.274375    -0.071424    Cartesian    3.24
    156 x         -2.202951     -1.986834     0.216117    Cartesian   -9.81
    156 y         -2.202951     -1.986834     0.216117    Cartesian   -9.81
    156 z         -2.202951     -1.898796     0.304155    Cartesian  -13.81
    157 x          4.405902      4.394314    -0.011589    Cartesian   -0.26
    157 y          8.811805      8.961061     0.149256    Cartesian    1.69
    157 z          0.000000      0.000000     0.000000    Cartesian    0.00
    158 x          8.811805      8.842871     0.031066    Cartesian    0.35
    158 y          0.000000      0.028927     0.028927    Cartesian    0.00
    158 z          0.000000      0.000000     0.000000    Cartesian    0.00
    159 x          4.405902      4.465094     0.059191    Cartesian    1.34
    159 y         -4.405902     -4.446879    -0.040976    Cartesian    0.93
    159 z          0.000000      0.000000     0.000000    Cartesian    0.00
    160 x          0.000000      0.014365     0.014365    Cartesian    0.00
    160 y         -4.405902     -4.530214    -0.124312    Cartesian    2.82
    160 z          0.000000      0.000000     0.000000    Cartesian    0.00
    161 x          2.202951      2.181683    -0.021268    Cartesian   -0.97
    161 y          6.608853      6.645333     0.036480    Cartesian    0.55
    161 z          6.608853      6.593594    -0.015260    Cartesian   -0.23
    162 x          2.202951      2.235657     0.032706    Cartesian    1.48
    162 y         -2.202951     -2.152671     0.050280    Cartesian   -2.28
    162 z          6.608853      6.554965    -0.053888    Cartesian   -0.82
    163 x          4.405902      4.420267     0.014365    Cartesian    0.33
    163 y          8.811805      8.833540     0.021736    Cartesian    0.25
    163 z          4.405902      4.419649     0.013746    Cartesian    0.31
    164 x          8.811805      8.824479     0.012674    Cartesian    0.14
    164 y          0.000000      0.015283     0.015283    Cartesian    0.00
    164 z          4.405902      4.399660    -0.006242    Cartesian   -0.14
    165 x          4.405902      4.403260    -0.002642    Cartesian   -0.06
    165 y         -4.405902     -4.393540     0.012362    Cartesian   -0.28
    165 z          4.405902      4.395953    -0.009949    Cartesian   -0.23
    166 x          0.000000      0.006278     0.006278    Cartesian    0.00
    166 y         -4.405902     -4.366587     0.039315    Cartesian   -0.89
    166 z          4.405902      4.371281    -0.034621    Cartesian   -0.79
    167 x          2.202951      2.207440     0.004489    Cartesian    0.20
    167 y         11.014756     11.016148     0.001392    Cartesian    0.01
    167 z         -2.202951     -2.230721    -0.027770    Cartesian    1.26
    168 x          6.608853      6.663746     0.054892    Cartesian    0.83
    168 y          6.608853      6.663746     0.054892    Cartesian    0.83
    168 z          6.608853      6.604046    -0.004808    Cartesian   -0.07
    169 x          6.608853      6.606499    -0.002355    Cartesian   -0.04
    169 y         -2.202951     -2.173773     0.029178    Cartesian   -1.32
    169 z          6.608853      6.587617    -0.021237    Cartesian   -0.32
    170 x          2.202951      2.224322     0.021371    Cartesian    0.97
    170 y         -6.608853     -6.591699     0.017155    Cartesian   -0.26
    170 z         -2.202951     -2.199217     0.003734    Cartesian   -0.17
    171 x         -2.202951     -2.169353     0.033598    Cartesian   -1.53
    171 y         -2.202951     -2.169353     0.033598    Cartesian   -1.53
    171 z          6.608853      6.536452    -0.072401    Cartesian   -1.10
    172 x          8.811805      8.804675    -0.007130    Cartesian   -0.08
    172 y          8.811805      8.804675    -0.007130    Cartesian   -0.08
    172 z          0.000000      0.000000     0.000000    Cartesian    0.00
    173 x          4.405902      4.411064     0.005161    Cartesian    0.12
    173 y          4.405902      4.411064     0.005161    Cartesian    0.12
    173 z          8.811805      8.877524     0.065719    Cartesian    0.75
    174 x          4.405902      4.414616     0.008713    Cartesian    0.20
    174 y          0.000000     -0.001843    -0.001843    Cartesian    0.00
    174 z          8.811805      8.824099     0.012295    Cartesian    0.14
    175 x          8.811805      8.813918     0.002113    Cartesian    0.02
    175 y         -4.405902     -4.415665    -0.009763    Cartesian    0.22
    175 z          0.000000      0.000000     0.000000    Cartesian    0.00
    176 x          0.000000     -0.004257    -0.004257    Cartesian    0.00
    176 y          0.000000     -0.004257    -0.004257    Cartesian    0.00
    176 z          8.811805      8.781325    -0.030479    Cartesian   -0.35
    177 x         -4.405902     -4.420752    -0.014850    Cartesian    0.34
    177 y         -4.405902     -4.420752    -0.014850    Cartesian    0.34
    177 z          0.000000      0.000000     0.000000    Cartesian    0.00
    178 x          6.608853      6.634018     0.025164    Cartesian    0.38
    178 y         11.014756     10.978412    -0.036344    Cartesian   -0.33
    178 z         -2.202951     -2.207814    -0.004863    Cartesian    0.22
    179 x         11.014756     10.997718    -0.017038    Cartesian   -0.15
    179 y         -2.202951     -2.180998     0.021953    Cartesian   -1.00
    179 z         -2.202951     -2.192592     0.010359    Cartesian   -0.47
    180 x          6.608853      6.605344    -0.003510    Cartesian   -0.05
    180 y         -6.608853     -6.596499     0.012354    Cartesian   -0.19
    180 z         -2.202951     -2.201141     0.001810    Cartesian   -0.08
    181 x         -2.202951     -2.209059    -0.006107    Cartesian    0.28
    181 y         -6.608853     -6.581545     0.027308    Cartesian   -0.41
    181 z         -2.202951     -2.205329    -0.002378    Cartesian    0.11
    182 x          8.811805      8.812241     0.000436    Cartesian    0.00
    182 y          8.811805      8.812241     0.000436    Cartesian    0.00
    182 z          4.405902      4.391173    -0.014730    Cartesian   -0.33
    183 x          8.811805      8.825964     0.014159    Cartesian    0.16
    183 y         -4.405902     -4.414389    -0.008487    Cartesian    0.19
    183 z          4.405902      4.411249     0.005347    Cartesian    0.12
    184 x         -4.405902     -4.388629     0.017274    Cartesian   -0.39
    184 y         -4.405902     -4.388629     0.017274    Cartesian   -0.39
    184 z          4.405902      4.393852    -0.012050    Cartesian   -0.27
    185 x          2.202951      2.219907     0.016956    Cartesian    0.77
    185 y         11.014756     10.995874    -0.018882    Cartesian   -0.17
    185 z          6.608853      6.590591    -0.018262    Cartesian   -0.28
    186 x          2.202951      2.196237    -0.006714    Cartesian   -0.30
    186 y          2.202951      2.196237    -0.006714    Cartesian   -0.30
    186 z         11.014756     10.990062    -0.024694    Cartesian   -0.22
    187 x          2.202951      2.202979     0.000028    Cartesian    0.00
    187 y         -6.608853     -6.577718     0.031136    Cartesian   -0.47
    187 z          6.608853      6.577114    -0.031739    Cartesian   -0.48
    188 x          4.405902      4.419118     0.013215    Cartesian    0.30
    188 y         13.217707     13.246127     0.028420    Cartesian    0.22
    188 z          0.000000      0.000000     0.000000    Cartesian    0.00
    189 x          4.405902      4.407662     0.001759    Cartesian    0.04
    189 y          8.811805      8.813696     0.001891    Cartesian    0.02
    189 z          8.811805      8.813226     0.001421    Cartesian    0.02
    190 x         13.217707     13.221878     0.004171    Cartesian    0.03
    190 y          0.000000     -0.013946    -0.013946    Cartesian    0.00
    190 z          0.000000      0.000000     0.000000    Cartesian    0.00
    191 x          8.811805      8.815465     0.003661    Cartesian    0.04
    191 y          0.000000     -0.001945    -0.001945    Cartesian    0.00
    191 z          8.811805      8.812760     0.000956    Cartesian    0.01
    192 x          4.405902      4.404068    -0.001835    Cartesian   -0.04
    192 y         -4.405902     -4.403438     0.002464    Cartesian   -0.06
    192 z          8.811805      8.805209    -0.006595    Cartesian   -0.07
    193 x          4.405902      4.402349    -0.003553    Cartesian   -0.08
    193 y         -8.811805     -8.823968    -0.012163    Cartesian    0.14
    193 z          0.000000      0.000000     0.000000    Cartesian    0.00
    194 x          0.000000      0.000969     0.000969    Cartesian    0.00
    194 y         -4.405902     -4.389439     0.016464    Cartesian   -0.37
    194 z          8.811805      8.799450    -0.012355    Cartesian   -0.14
    195 x          0.000000      0.002641     0.002641    Cartesian    0.00
    195 y         -8.811805     -8.838396    -0.026592    Cartesian    0.30
    195 z          0.000000      0.000000     0.000000    Cartesian    0.00
    196 x          6.608853      6.602432    -0.006421    Cartesian   -0.10
    196 y         11.014756     10.988165    -0.026591    Cartesian   -0.24
    196 z          6.608853      6.578763    -0.030090    Cartesian   -0.46
    197 x          2.202951      2.205392     0.002441    Cartesian    0.11
    197 y          6.608853      6.609556     0.000703    Cartesian    0.01
    197 z         11.014756     10.978146    -0.036610    Cartesian   -0.33
    198 x         11.014756     10.985012    -0.029744    Cartesian   -0.27
    198 y         -2.202951     -2.173914     0.029037    Cartesian   -1.32
    198 z          6.608853      6.585834    -0.023020    Cartesian   -0.35
    199 x          2.202951      2.201391    -0.001560    Cartesian   -0.07
    199 y         -2.202951     -2.185984     0.016967    Cartesian   -0.77
    199 z         11.014756     10.973596    -0.041160    Cartesian   -0.37
    200 x          6.608853      6.588798    -0.020056    Cartesian   -0.30
    200 y         -6.608853     -6.569107     0.039746    Cartesian   -0.60
    200 z          6.608853      6.588667    -0.020187    Cartesian   -0.31
    201 x         -2.202951     -2.191977     0.010974    Cartesian   -0.50
    201 y         -6.608853     -6.567761     0.041093    Cartesian   -0.62
    201 z          6.608853      6.571281    -0.037572    Cartesian   -0.57
--------------------------------------------------------------------------------


  Time to end of optimisation  =       68.6456 seconds


  Peak dynamic memory used =      90.31 MB 


  Timing analysis for GULP :

--------------------------------------------------------------------------------
  Task / Subroutine                                          Time (Seconds)
--------------------------------------------------------------------------------
  Calculation of reciprocal space energy and derivatives          0.0002
  Calculation of reciprocal space energy using symmetry           0.0004
  Calculation of real space energy and derivatives                0.0013
  Calculation of real space energy using symmetry                 0.0039
  Calculation for region 1 energy and derivatives (2-b)          35.6666
  Calculation for region 2a energy                               26.3567
  Calculation for region 2b energy                                0.0138
  Calculation and manipulation of Hessian matrix                  6.0254
  Calculation of matrix inversion                                 0.4468
  Symmetry generation of equivalent positions                     0.0015
--------------------------------------------------------------------------------
  Total CPU time                                                 68.6457
--------------------------------------------------------------------------------


  Dump file written as Na3OCl.grs


  Job Finished at 15:15.04 19th January    2021                               

