********************************************************************************
*                       GENERAL UTILITY LATTICE PROGRAM                        *
*                                 Julian Gale                                  *
*                       Curtin Institute for Computation                       *
*                    School of Molecular and Life Sciences                     *
*                    Curtin University, Western Australia                      *
********************************************************************************
* Version = 5.2.0 * Last modified =  10th September 2020                       *
********************************************************************************
*  optimise     - perform optimisation run                                     *
*  conp         - constant pressure calculation                                *
*  property     - calculate properties for final geometry                      *
*  defect       - perform defect calculation after bulk run                    *
*  compare      - compare initial and final structures                         *
********************************************************************************

  Job Started  at 15:14.51 19th January    2021                               

  Number of CPUs =     1


  Total number of configurations input =      1

********************************************************************************
*  Input for Configuration =   1                                               *
********************************************************************************

  Formula = OClNa3                                                      

  Number of irreducible atoms/shells =       5


  Total number atoms/shells =       7

  Dimensionality = 3               :  Bulk   


  Symmetry :

  Crystal family                   :  Cubic       
  Crystal class  (Groth - 1921)    :  Cubic Hexakisoctahedral              

  Space group (centrosymmetric)    :  P M 3 M         

  Patterson group                  :  P m -3 m 

  Cartesian lattice vectors (Angstroms) :

        4.504000    0.000000    0.000000
        0.000000    4.504000    0.000000
        0.000000    0.000000    4.504000

  Cell parameters (Angstroms/Degrees):

  a =       4.5040    alpha =  90.0000
  b =       4.5040    beta  =  90.0000
  c =       4.5040    gamma =  90.0000

  Initial cell volume =          91.368216 Angs**3

  Temperature of configuration =   0.00     K 

  Pressure of configuration =         0.000 GPa 

  Fractional coordinates of asymmetric unit :

--------------------------------------------------------------------------------
   No.  Atomic       x           y          z         Charge      Occupancy
        Label      (Frac)      (Frac)     (Frac)        (e)         (Frac)  
--------------------------------------------------------------------------------
      1 O     c    0.000000    0.000000    0.000000     0.18300    1.000000    
      2 Cl    c    0.500000    0.500000    0.500000     1.48500    1.000000    
      3 Na    c    0.500000    0.000000    0.000000     1.00000    1.000000    
      4 O     s    0.000000    0.000000    0.000000    -2.18300    1.000000    
      5 Cl    s    0.500000    0.500000    0.500000    -2.48500    1.000000    
--------------------------------------------------------------------------------


  Constraints : 

--------------------------------------------------------------------------------
  Constraint no.      Unconstrained     Constrained    Coefficient    Offset
                         Variable         Variable
--------------------------------------------------------------------------------
           1              Strain 1        Strain 2       1.00000      0.0000
           2              Strain 1        Strain 3       1.00000      0.0000
--------------------------------------------------------------------------------


********************************************************************************
*  General input information                                                   *
********************************************************************************

  Species output for all configurations : 

--------------------------------------------------------------------------------
  Species    Type    Atomic    Atomic    Charge       Radii (Angs)     Library
                     Number     Mass       (e)     Cova   Ionic  VDW   Symbol
--------------------------------------------------------------------------------
    Na       Core       11      22.99   1.000000   0.970  0.000  2.300          
    O        Core        8      16.00   0.183000   0.730  0.000  1.360          
    O        Shell       8       0.00  -2.183000   0.730  0.000  1.360          
    Cl       Core       17      35.45   1.485000   0.990  0.000  1.650          
    Cl       Shell      17       0.00  -2.485000   0.990  0.000  1.650          
    Mg       Core       12      24.31   0.415000   1.100  0.000  0.000          
    Mg       Shell      12       0.00   1.585000   1.100  0.000  0.000          
    Ca       Core       20      40.08  -1.135000   0.990  0.000  0.000          
    Ca       Shell      20       0.00   3.135000   0.990  0.000  0.000          
    Sr       Core       38      87.62  -1.251000   1.120  0.000  0.000          
    Sr       Shell      38       0.00   3.251000   1.120  0.000  0.000          
    Ba       Core       56     137.33  -7.203000   1.340  0.000  0.000          
    Ba       Shell      56       0.00   9.203000   1.340  0.000  0.000          
--------------------------------------------------------------------------------


  Lattice summation method               =    Ewald          (3-D)
                                         =    Parry          (2-D)
                                         =    Saunders et al (1-D)
  Accuracy factor for lattice sums       =   12.000


  Analytic derivatives to be used

  Time limit = Infinity

  Maximum range for interatomic potentials =    100000.000000 Angstroms

  General interatomic potentials :

--------------------------------------------------------------------------------
Atom  Types   Potential      Parameter       Value         Units   Cutoffs(Ang)
  1     2                                                            Min /  Max 
--------------------------------------------------------------------------------
O    c O    s Spring (c-s)  Spring k 2       593.71600    eV*Ang^-2 0.000  0.800
                            Spring k 4       0.0000000    eV*Ang^-4 
--------------------------------------------------------------------------------
Cl   c Cl   s Spring (c-s)  Spring k 2       29.380000    eV*Ang^-2 0.000  0.800
                            Spring k 4       0.0000000    eV*Ang^-4 
--------------------------------------------------------------------------------
Mg   c Mg   s Spring (c-s)  Spring k 2       361.60000    eV*Ang^-2 0.000  0.800
                            Spring k 4       0.0000000    eV*Ang^-4 
--------------------------------------------------------------------------------
Ca   c Ca   s Spring (c-s)  Spring k 2       110.20000    eV*Ang^-2 0.000  0.800
                            Spring k 4       0.0000000    eV*Ang^-4 
--------------------------------------------------------------------------------
Sr   c Sr   s Spring (c-s)  Spring k 2       71.700000    eV*Ang^-2 0.000  0.800
                            Spring k 4       0.0000000    eV*Ang^-4 
--------------------------------------------------------------------------------
Ba   c Ba   s Spring (c-s)  Spring k 2       495.20000    eV*Ang^-2 0.000  0.800
                            Spring k 4       0.0000000    eV*Ang^-4 
--------------------------------------------------------------------------------
Na   c Na   c Buckingham    Buckingham A     1788.1900    eV        0.000 12.000
                            Buckingham rho  0.15900000    Ang       
                            Buckingham C     0.0000000    eV*Ang^6  
--------------------------------------------------------------------------------
Na   c O    s Buckingham    Buckingham A     588.38000    eV        0.000 12.000
                            Buckingham rho  0.33800000    Ang       
                            Buckingham C     0.0000000    eV*Ang^6  
--------------------------------------------------------------------------------
Na   c Cl   s Buckingham    Buckingham A     1170.4100    eV        0.000 12.000
                            Buckingham rho  0.31500000    Ang       
                            Buckingham C     0.0000000    eV*Ang^6  
--------------------------------------------------------------------------------
O    s O    s Buckingham    Buckingham A     22764.300    eV        0.000 12.000
                            Buckingham rho  0.14900000    Ang       
                            Buckingham C     13.190000    eV*Ang^6  
--------------------------------------------------------------------------------
O    s Cl   s Buckingham    Buckingham A     8286.9100    eV        0.000 12.000
                            Buckingham rho  0.25900000    Ang       
                            Buckingham C     62.200000    eV*Ang^6  
--------------------------------------------------------------------------------
Cl   s Cl   s Buckingham    Buckingham A     1227.2000    eV        0.000 12.000
                            Buckingham rho  0.32100000    Ang       
                            Buckingham C     14.530000    eV*Ang^6  
--------------------------------------------------------------------------------
O    s Mg   s Buckingham    Buckingham A     1428.5000    eV        0.000 12.000
                            Buckingham rho  0.29450000    Ang       
                            Buckingham C     0.0000000    eV*Ang^6  
--------------------------------------------------------------------------------
Mg   s Cl   s Buckingham    Buckingham A     4914.5400    eV        0.000 12.000
                            Buckingham rho  0.25700000    Ang       
                            Buckingham C     0.0000000    eV*Ang^6  
--------------------------------------------------------------------------------
O    s Ca   s Buckingham    Buckingham A     1090.4000    eV        0.000 12.000
                            Buckingham rho  0.34370000    Ang       
                            Buckingham C     0.0000000    eV*Ang^6  
--------------------------------------------------------------------------------
Cl   s Ca   s Buckingham    Buckingham A     2302.0000    eV        0.000 12.000
                            Buckingham rho  0.34020000    Ang       
                            Buckingham C     0.0000000    eV*Ang^6  
--------------------------------------------------------------------------------
O    s Sr   s Buckingham    Buckingham A     959.10000    eV        0.000 12.000
                            Buckingham rho  0.37210000    Ang       
                            Buckingham C     0.0000000    eV*Ang^6  
--------------------------------------------------------------------------------
Cl   s Sr   s Buckingham    Buckingham A     2191.0900    eV        0.000 12.000
                            Buckingham rho  0.34570000    Ang       
                            Buckingham C     0.0000000    eV*Ang^6  
--------------------------------------------------------------------------------
O    s Ba   s Buckingham    Buckingham A     905.70000    eV        0.000 12.000
                            Buckingham rho  0.39760000    Ang       
                            Buckingham C     0.0000000    eV*Ang^6  
--------------------------------------------------------------------------------
Cl   s Ba   s Buckingham    Buckingham A     2704.5500    eV        0.000 12.000
                            Buckingham rho  0.35280000    Ang       
                            Buckingham C     0.0000000    eV*Ang^6  
--------------------------------------------------------------------------------

********************************************************************************
*  Output for configuration   1                                                *
********************************************************************************


  Components of energy : 

--------------------------------------------------------------------------------
  Interatomic potentials     =           4.94315381 eV    
  Monopole - monopole (real) =         -10.03624526 eV    
  Monopole - monopole (recip)=         -29.53581274 eV    
  Monopole - monopole (total)=         -39.57205800 eV    
--------------------------------------------------------------------------------
  Total lattice energy       =         -34.62890419 eV    
--------------------------------------------------------------------------------
  Total lattice energy       =           -3341.1599 kJ/(mole unit cells)
--------------------------------------------------------------------------------


  Number of variables =        1

  Maximum number of calculations  =          1000
  Maximum Hessian update interval =            10
  Maximum step size               =   1.000000000
  Maximum parameter tolerance     =   0.000010000
  Maximum function  tolerance     =   0.000010000
  Maximum gradient  tolerance     =   0.001000000
  Maximum gradient  component     =   0.010000000

  Symmetry constrained optimisation

  Symmetry used for second derivatives

  Cell parameters to be optimised using strains

  Newton-Raphson optimiser to be used

  BFGS hessian update to be used

  Lower half triangular hessian to be used

  Start of bulk optimisation :

  Cycle:      0 Energy:       -34.628904  Gnorm:      4.328237  CPU:    0.016
  ** Hessian calculated **
  Cycle:      1 Energy:       -34.677667  Gnorm:      0.044008  CPU:    0.021
  Cycle:      2 Energy:       -34.677671  Gnorm:      0.003653  CPU:    0.024


  **** Optimisation achieved ****


  Final energy =     -34.67767136 eV
  Final Gnorm  =       0.00000010

  Components of energy : 

--------------------------------------------------------------------------------
  Interatomic potentials     =           5.77546103 eV    
  Monopole - monopole (real) =         -10.25970290 eV    
  Monopole - monopole (recip)=         -30.19342950 eV    
  Monopole - monopole (total)=         -40.45313239 eV    
--------------------------------------------------------------------------------
  Total lattice energy       =         -34.67767136 eV    
--------------------------------------------------------------------------------
  Total lattice energy       =           -3345.8652 kJ/(mole unit cells)
--------------------------------------------------------------------------------

  Final asymmetric unit coordinates :

--------------------------------------------------------------------------------
   No.  Atomic        x           y           z         Radius
        Label       (Frac)      (Frac)      (Frac)       (Angs) 
--------------------------------------------------------------------------------
     1  O     c     0.000000    0.000000    0.000000    0.000000
     2  Cl    c     0.500000    0.500000    0.500000    0.000000
     3  Na    c     0.500000    0.000000    0.000000    0.000000
     4  O     s     0.000000    0.000000    0.000000    0.000000
     5  Cl    s     0.500000    0.500000    0.500000    0.000000
--------------------------------------------------------------------------------

  Final Cartesian lattice vectors (Angstroms) :

        4.405902    0.000000    0.000000
        0.000000    4.405902    0.000000
        0.000000    0.000000    4.405902


  Final cell parameters and derivatives :

--------------------------------------------------------------------------------
       a            4.405902 Angstrom     dE/de1(xx)     0.000000 eV/strain
       b            4.405902 Angstrom     dE/de2(yy)     0.000000 eV/strain
       c            4.405902 Angstrom     dE/de3(zz)     0.000000 eV/strain
       alpha       90.000000 Degrees      dE/de4(yz)     0.000000 eV/strain
       beta        90.000000 Degrees      dE/de5(xz)     0.000000 eV/strain
       gamma       90.000000 Degrees      dE/de6(xy)     0.000000 eV/strain
--------------------------------------------------------------------------------

  Primitive cell volume =            85.527266 Angs**3

  Density of cell =      2.338030 g/cm**3

  Non-primitive cell volume =            85.527266 Angs**3


  Final internal derivatives :

--------------------------------------------------------------------------------
   No.  Atomic          a             b             c           Radius
        Label          (eV)          (eV)          (eV)        (eV/Angs)
--------------------------------------------------------------------------------
      1 O     c       0.000000      0.000000      0.000000      0.000000
      2 Cl    c       0.000000      0.000000      0.000000      0.000000
      3 Na    c       0.000000      0.000000      0.000000      0.000000
      4 O     s       0.000000      0.000000      0.000000      0.000000
      5 Cl    s       0.000000      0.000000      0.000000      0.000000
--------------------------------------------------------------------------------
  Maximum abs         0.000000      0.000000      0.000000      0.000000
--------------------------------------------------------------------------------

  Comparison of initial and final structures : 

--------------------------------------------------------------------------------
  Parameter   Initial value   Final value   Difference    Units      Percent
--------------------------------------------------------------------------------
    Volume        91.368216     85.527266    -5.840950    Angs**3     -6.39
    a              4.504000      4.405902    -0.098098    Angstroms   -2.18
    b              4.504000      4.405902    -0.098098    Angstroms   -2.18
    c              4.504000      4.405902    -0.098098    Angstroms   -2.18
    alpha         90.000000     90.000000     0.000000    Degrees      0.00
    beta          90.000000     90.000000     0.000000    Degrees      0.00
    gamma         90.000000     90.000000     0.000000    Degrees      0.00
      1 x          0.000000      0.000000     0.000000    Fractional   0.00
      1 y          0.000000      0.000000     0.000000    Fractional   0.00
      1 z          0.000000      0.000000     0.000000    Fractional   0.00
      2 x          0.500000      0.500000     0.000000    Fractional   0.00
      2 y          0.500000      0.500000     0.000000    Fractional   0.00
      2 z          0.500000      0.500000     0.000000    Fractional   0.00
      3 x          0.500000      0.500000     0.000000    Fractional   0.00
      3 y          0.000000      0.000000     0.000000    Fractional   0.00
      3 z          0.000000      0.000000     0.000000    Fractional   0.00
      4 x          0.000000      0.000000     0.000000    Fractional   0.00
      4 y          0.000000      0.000000     0.000000    Fractional   0.00
      4 z          0.000000      0.000000     0.000000    Fractional   0.00
      5 x          0.500000      0.500000     0.000000    Fractional   0.00
      5 y          0.500000      0.500000     0.000000    Fractional   0.00
      5 z          0.500000      0.500000     0.000000    Fractional   0.00
--------------------------------------------------------------------------------


  Born effective charge tensors : 

-------------------------------------------------------------------------------
  Atom             x           y             z
-------------------------------------------------------------------------------
    1 O     x      -2.2939      0.0000      0.0000
            y       0.0000     -2.2939      0.0000
            z       0.0000      0.0000     -2.2939
-------------------------------------------------------------------------------
    2 Cl    x      -0.9918     -0.0000      0.0000
            y      -0.0000     -0.9918      0.0000
            z       0.0000      0.0000     -0.9918
-------------------------------------------------------------------------------
    3 Na    x       0.8372     -0.0000     -0.0000
            y      -0.0000      1.2243     -0.0000
            z       0.0000     -0.0000      1.2243
-------------------------------------------------------------------------------




  Elastic Constant Matrix: (Units=GPa)

-------------------------------------------------------------------------------
  Indices      1         2         3         4         5         6    
-------------------------------------------------------------------------------
       1     82.7680   24.3534   24.3534   -0.0000    0.0000   -0.0000
       2     24.3534   82.7680   24.3534   -0.0000   -0.0000   -0.0000
       3     24.3534   24.3534   82.7680    0.0000   -0.0000    0.0000
       4     -0.0000   -0.0000    0.0000   24.3534   -0.0000   -0.0000
       5      0.0000   -0.0000   -0.0000   -0.0000   24.3534   -0.0000
       6     -0.0000   -0.0000    0.0000   -0.0000   -0.0000   24.3534
-------------------------------------------------------------------------------


  Elastic Compliance Matrix: (Units=1/GPa)

-------------------------------------------------------------------------------
  Indices      1         2         3         4         5         6    
-------------------------------------------------------------------------------
       1    0.013948 -0.003171 -0.003171 -0.000000 -0.000000  0.000000
       2   -0.003171  0.013948 -0.003171  0.000000 -0.000000  0.000000
       3   -0.003171 -0.003171  0.013948 -0.000000  0.000000 -0.000000
       4   -0.000000  0.000000 -0.000000  0.041062  0.000000  0.000000
       5   -0.000000 -0.000000  0.000000  0.000000  0.041062  0.000000
       6    0.000000  0.000000 -0.000000  0.000000  0.000000  0.041062
-------------------------------------------------------------------------------

  Mechanical properties :

-------------------------------------------------------------------------------
  Convention :                    Reuss         Voigt         Hill
-------------------------------------------------------------------------------
  Bulk  Modulus (GPa)     =      43.82493      43.82493      43.82493
  Shear Modulus (GPa)     =      26.08758      26.29496      26.19127
-------------------------------------------------------------------------------
  Velocity S-wave (km/s)  =       3.34035       3.35360       3.34698
  Velocity P-wave (km/s)  =       5.79842       5.80861       5.80351
-------------------------------------------------------------------------------
  Compressibility (1/GPa) =    0.02281806
-------------------------------------------------------------------------------
  Stress axis :                     x             y             z
-------------------------------------------------------------------------------
  Youngs Moduli (GPa)     =      71.69479      71.69479      71.69479
-------------------------------------------------------------------------------
  Poissons Ratio (x)      =                     0.22734       0.22734
  Poissons Ratio (y)      =       0.22734                     0.22734
  Poissons Ratio (z)      =       0.22734       0.22734
-------------------------------------------------------------------------------


  Piezoelectric Strain Matrix: (Units=C/m**2)

-------------------------------------------------------------------------------
  Indices      1         2         3         4         5         6    
-------------------------------------------------------------------------------
       x    -0.00000  -0.00000  -0.00000  -0.00000   0.00000   0.00000
       y    -0.00000   0.00000  -0.00000   0.00000  -0.00000   0.00000
       z     0.00000   0.00000   0.00000  -0.00000   0.00000  -0.00000
-------------------------------------------------------------------------------


  Piezoelectric Stress Matrix: (Units=10**-11 C/N)

-------------------------------------------------------------------------------
  Indices      1         2         3         4         5         6    
-------------------------------------------------------------------------------
       x    -0.00000  -0.00000  -0.00000  -0.00000   0.00000   0.00000
       y    -0.00000   0.00000  -0.00000   0.00000  -0.00000   0.00000
       z     0.00000   0.00000  -0.00000  -0.00000   0.00000  -0.00000
-------------------------------------------------------------------------------


  Static dielectric constant tensor : 

-------------------------------------------------------------------------------
              x         y         z
-------------------------------------------------------------------------------
       x    11.08357  -0.00000  -0.00000
       y    -0.00000  11.08357  -0.00000
       z    -0.00000  -0.00000  11.08357
--------------------------------------------------------------------------------

  High frequency dielectric constant tensor : 

-------------------------------------------------------------------------------
              x         y         z
-------------------------------------------------------------------------------
       x     1.50771  -0.00000  -0.00000
       y    -0.00000   1.50771  -0.00000
       z    -0.00000  -0.00000   1.50771
-------------------------------------------------------------------------------

  Static refractive indices : 

-------------------------------------------------------------------------------
    1 =    3.32920      2 =    3.32920      3 =    3.32920
-------------------------------------------------------------------------------

  High frequency refractive indices : 

-------------------------------------------------------------------------------
    1 =    1.22789      2 =    1.22789      3 =    1.22789
-------------------------------------------------------------------------------


  Time to end of optimisation =       0.0347 seconds

********************************************************************************
*  Defect calculation for configuration   1 :                                  *
********************************************************************************

  Total number of defects =      3

  Total charge on defect  =   2.00

  Defect centre is at   2.2520   2.2520   0.0000  Angs

  Region 1 radius =  12.0000      Number of ions =    622

  Number of symmetry inequivalent region 1 ions  =    201

  Region 2 radius =  16.0000      Number of ions =    762

  Number of symmetry inequivalent region 2a ions =    224

  Region 2a mode = 4 : screened electrostatics due to region 1 
                       neglect correction to region 1 forces from 2a
                       region 2a displacements based on defects only

  Region 2a ions will only interact with defects in region 1

  Vacancies:

--------------------------------------------------------------------------------
    Specification type     Symbol/Number         x          y          z
--------------------------------------------------------------------------------
    Cartesian                                0.000000   0.000000   0.000000
    Cartesian                                4.504000   4.504000   0.000000
--------------------------------------------------------------------------------

  Interstitials:

--------------------------------------------------------------------------------
    Specification type     Symbol/Number         x          y          z
--------------------------------------------------------------------------------
    Atom/Cartesian          O                1.621440   1.621440   0.000000
--------------------------------------------------------------------------------


  Symmetry reduced region 1 (Relative to defect centre) :

--------------------------------------------------------------------------------
   No.   Atomic       x            y             z       Radius  Multiplicity   
         Label      (Angs)       (Angs)        (Angs)    (Angs)     
--------------------------------------------------------------------------------
     1  O     c     -0.6306      -0.6306       0.0000    0.0000     1    Defect
     2  Na    c     -0.0490 *     2.1539 *     0.0000    0.0000     2          
     3  Cl    c     -0.0490 *    -0.0490      -2.2030 *  0.0000     2          
     4  Na    c     -0.0490 *    -2.2520 *     0.0000    0.0000     2          
     5  O     c      2.1539 *    -2.2520 *     0.0000    0.0000     2          
     6  Na    c      2.1539 *     2.1539      -2.2030 *  0.0000     2          
     7  Na    c      2.1539 *    -2.2520 *    -2.2030 *  0.0000     4          
     8  Na    c     -2.2520 *    -2.2520      -2.2030 *  0.0000     2          
     9  Na    c      4.3569 *     2.1539 *     0.0000    0.0000     2          
    10  Cl    c     -0.0490 *     4.3569 *    -2.2030 *  0.0000     4          
    11  Na    c     -0.0490 *     2.1539 *     4.4059 *  0.0000     4          
    12  Na    c      4.3569 *    -2.2520 *     0.0000    0.0000     2          
    13  Na    c     -0.0490 *    -2.2520 *     4.4059 *  0.0000     4          
    14  Na    c     -4.4550 *     2.1539 *     0.0000    0.0000     2          
    15  Cl    c     -0.0490 *    -4.4550 *    -2.2030 *  0.0000     4          
    16  Na    c     -4.4550 *    -2.2520 *     0.0000    0.0000     2          
    17  O     c      2.1539 *     2.1539       4.4059 *  0.0000     2          
    18  O     c      2.1539 *    -2.2520 *     4.4059 *  0.0000     4          
    19  O     c     -2.2520 *    -2.2520       4.4059 *  0.0000     2          
    20  Cl    c      4.3569 *     4.3569      -2.2030 *  0.0000     2          
    21  Na    c     -0.0490 *     6.5598 *     0.0000    0.0000     2          
    22  Na    c      4.3569 *     2.1539 *     4.4059 *  0.0000     4          
    23  Na    c      4.3569 *    -2.2520 *     4.4059 *  0.0000     4          
    24  Cl    c     -0.0490 *    -0.0490       6.6089 *  0.0000     2          
    25  Cl    c      4.3569 *    -4.4550 *    -2.2030 *  0.0000     4          
    26  Na    c     -4.4550 *     2.1539 *     4.4059 *  0.0000     4          
    27  Na    c     -0.0490 *    -6.6579 *     0.0000    0.0000     2          
    28  Na    c     -4.4550 *    -2.2520 *     4.4059 *  0.0000     4          
    29  Cl    c     -4.4550 *    -4.4550      -2.2030 *  0.0000     2          
    30  O     c      2.1539 *     6.5598 *     0.0000    0.0000     2          
    31  O     c      6.5598 *    -2.2520 *     0.0000    0.0000     2          
    32  O     c      2.1539 *    -6.6579 *     0.0000    0.0000     2          
    33  O     c     -2.2520 *    -6.6579 *     0.0000    0.0000     2          
    34  Na    c      2.1539 *     6.5598 *    -2.2030 *  0.0000     4          
    35  Na    c      2.1539 *     2.1539       6.6089 *  0.0000     2          
    36  Na    c      6.5598 *    -2.2520 *    -2.2030 *  0.0000     4          
    37  Na    c      2.1539 *    -2.2520 *     6.6089 *  0.0000     4          
    38  Na    c      2.1539 *    -6.6579 *    -2.2030 *  0.0000     4          
    39  Na    c     -2.2520 *    -2.2520       6.6089 *  0.0000     2          
    40  Na    c     -2.2520 *    -6.6579 *    -2.2030 *  0.0000     4          
    41  Na    c      4.3569 *     6.5598 *     0.0000    0.0000     2          
    42  Na    c     -0.0490 *     6.5598 *     4.4059 *  0.0000     4          
    43  Cl    c     -0.0490 *     4.3569 *     6.6089 *  0.0000     4          
    44  Na    c     -4.4550 *     6.5598 *     0.0000    0.0000     2          
    45  Na    c      4.3569 *    -6.6579 *     0.0000    0.0000     2          
    46  Cl    c     -0.0490 *    -4.4550 *     6.6089 *  0.0000     4          
    47  Na    c     -0.0490 *    -6.6579 *     4.4059 *  0.0000     4          
    48  Na    c     -4.4550 *    -6.6579 *     0.0000    0.0000     2          
    49  O     c      2.1539 *     6.5598 *     4.4059 *  0.0000     4          
    50  O     c      6.5598 *    -2.2520 *     4.4059 *  0.0000     4          
    51  O     c      2.1539 *    -6.6579 *     4.4059 *  0.0000     4          
    52  O     c     -2.2520 *    -6.6579 *     4.4059 *  0.0000     4          
    53  Na    c      4.3569 *     6.5598 *     4.4059 *  0.0000     4          
    54  Na    c      8.7628 *     2.1539 *     0.0000    0.0000     2          
    55  Cl    c     -0.0490 *     8.7628 *    -2.2030 *  0.0000     4          
    56  Cl    c      4.3569 *     4.3569       6.6089 *  0.0000     2          
    57  Na    c      8.7628 *    -2.2520 *     0.0000    0.0000     2          
    58  Na    c     -0.0490 *     2.1539 *     8.8118 *  0.0000     4          
    59  Na    c     -4.4550 *     6.5598 *     4.4059 *  0.0000     4          
    60  Cl    c      4.3569 *    -4.4550 *     6.6089 *  0.0000     4          
    61  Na    c     -0.0490 *    -2.2520 *     8.8118 *  0.0000     4          
    62  Na    c      4.3569 *    -6.6579 *     4.4059 *  0.0000     4          
    63  Na    c     -8.8609 *     2.1539 *     0.0000    0.0000     2          
    64  Cl    c     -0.0490 *    -8.8609 *    -2.2030 *  0.0000     4          
    65  Cl    c     -4.4550 *    -4.4550       6.6089 *  0.0000     2          
    66  Na    c     -8.8609 *    -2.2520 *     0.0000    0.0000     2          
    67  Na    c     -4.4550 *    -6.6579 *     4.4059 *  0.0000     4          
    68  O     c      6.5598 *     6.5598       0.0000    0.0000     1          
    69  O     c      2.1539 *     2.1539       8.8118 *  0.0000     2          
    70  O     c      2.1539 *    -2.2520 *     8.8118 *  0.0000     4          
    71  O     c      6.5598 *    -6.6579 *     0.0000    0.0000     2          
    72  O     c     -2.2520 *    -2.2520       8.8118 *  0.0000     2          
    73  O     c     -6.6579 *    -6.6579       0.0000    0.0000     1          
    74  Na    c      6.5598 *     6.5598      -2.2030 *  0.0000     2          
    75  Na    c      2.1539 *     6.5598 *     6.6089 *  0.0000     4          
    76  Na    c      6.5598 *    -2.2520 *     6.6089 *  0.0000     4          
    77  Na    c      6.5598 *    -6.6579 *    -2.2030 *  0.0000     4          
    78  Na    c      2.1539 *    -6.6579 *     6.6089 *  0.0000     4          
    79  Na    c     -2.2520 *    -6.6579 *     6.6089 *  0.0000     4          
    80  Na    c     -6.6579 *    -6.6579      -2.2030 *  0.0000     2          
    81  Cl    c      4.3569 *     8.7628 *    -2.2030 *  0.0000     4          
    82  Na    c      8.7628 *     2.1539 *     4.4059 *  0.0000     4          
    83  Na    c      4.3569 *     2.1539 *     8.8118 *  0.0000     4          
    84  Na    c      8.7628 *    -2.2520 *     4.4059 *  0.0000     4          
    85  Cl    c      8.7628 *    -4.4550 *    -2.2030 *  0.0000     4          
    86  Na    c      4.3569 *    -2.2520 *     8.8118 *  0.0000     4          
    87  Na    c     -4.4550 *     2.1539 *     8.8118 *  0.0000     4          
    88  Cl    c      4.3569 *    -8.8609 *    -2.2030 *  0.0000     4          
    89  Na    c     -8.8609 *     2.1539 *     4.4059 *  0.0000     4          
    90  Na    c     -4.4550 *    -2.2520 *     8.8118 *  0.0000     4          
    91  Na    c     -8.8609 *    -2.2520 *     4.4059 *  0.0000     4          
    92  Cl    c     -4.4550 *    -8.8609 *    -2.2030 *  0.0000     4          
    93  O     c      6.5598 *     6.5598       4.4059 *  0.0000     2          
    94  O     c      6.5598 *    -6.6579 *     4.4059 *  0.0000     4          
    95  O     c     -6.6579 *    -6.6579       4.4059 *  0.0000     2          
    96  Na    c      8.7628 *     6.5598 *     0.0000    0.0000     2          
    97  Na    c     -0.0490 *    10.9657 *     0.0000    0.0000     2          
    98  Cl    c     -0.0490 *     8.7628 *     6.6089 *  0.0000     4          
    99  Na    c     -0.0490 *     6.5598 *     8.8118 *  0.0000     4          
   100  Na    c      8.7628 *    -6.6579 *     0.0000    0.0000     2          
   101  Cl    c     -0.0490 *    -0.0490      11.0148 *  0.0000     2          
   102  Na    c     -8.8609 *     6.5598 *     0.0000    0.0000     2          
   103  Na    c     -0.0490 *    -6.6579 *     8.8118 *  0.0000     4          
   104  Cl    c     -0.0490 *    -8.8609 *     6.6089 *  0.0000     4          
   105  Na    c     -0.0490 *   -11.0638 *     0.0000    0.0000     2          
   106  Na    c     -8.8609 *    -6.6579 *     0.0000    0.0000     2          
   107  O     c      2.1539 *    10.9657 *     0.0000    0.0000     2          
   108  O     c      2.1539 *     6.5598 *     8.8118 *  0.0000     4          
   109  O     c     10.9657 *    -2.2520 *     0.0000    0.0000     2          
   110  O     c      6.5598 *    -2.2520 *     8.8118 *  0.0000     4          
   111  O     c      2.1539 *    -6.6579 *     8.8118 *  0.0000     4          
   112  O     c      2.1539 *   -11.0638 *     0.0000    0.0000     2          
   113  O     c     -2.2520 *    -6.6579 *     8.8118 *  0.0000     4          
   114  O     c     -2.2520 *   -11.0638 *     0.0000    0.0000     2          
   115  Na    c      6.5598 *     6.5598       6.6089 *  0.0000     2          
   116  Na    c      2.1539 *    10.9657 *    -2.2030 *  0.0000     4          
   117  Na    c     10.9657 *    -2.2520 *    -2.2030 *  0.0000     4          
   118  Na    c      2.1539 *     2.1539      11.0148 *  0.0000     2          
   119  Na    c      2.1539 *    -2.2520 *    11.0148 *  0.0000     4          
   120  Na    c      6.5598 *    -6.6579 *     6.6089 *  0.0000     4          
   121  Na    c     -2.2520 *    -2.2520      11.0148 *  0.0000     2          
   122  Na    c      2.1539 *   -11.0638 *    -2.2030 *  0.0000     4          
   123  Na    c     -2.2520 *   -11.0638 *    -2.2030 *  0.0000     4          
   124  Na    c     -6.6579 *    -6.6579       6.6089 *  0.0000     2          
   125  Na    c      4.3569 *    10.9657 *     0.0000    0.0000     2          
   126  Na    c      8.7628 *     6.5598 *     4.4059 *  0.0000     4          
   127  Cl    c      4.3569 *     8.7628 *     6.6089 *  0.0000     4          
   128  Na    c     -0.0490 *    10.9657 *     4.4059 *  0.0000     4          
   129  Na    c      4.3569 *     6.5598 *     8.8118 *  0.0000     4          
   130  Na    c     -4.4550 *    10.9657 *     0.0000    0.0000     2          
   131  Cl    c     -0.0490 *     4.3569 *    11.0148 *  0.0000     4          
   132  Cl    c      8.7628 *    -4.4550 *     6.6089 *  0.0000     4          
   133  Na    c     -4.4550 *     6.5598 *     8.8118 *  0.0000     4          
   134  Na    c      8.7628 *    -6.6579 *     4.4059 *  0.0000     4          
   135  Na    c      4.3569 *    -6.6579 *     8.8118 *  0.0000     4          
   136  Na    c     -8.8609 *     6.5598 *     4.4059 *  0.0000     4          
   137  Cl    c     -0.0490 *    -4.4550 *    11.0148 *  0.0000     4          
   138  Cl    c      4.3569 *    -8.8609 *     6.6089 *  0.0000     4          
   139  Na    c      4.3569 *   -11.0638 *     0.0000    0.0000     2          
   140  Na    c     -0.0490 *   -11.0638 *     4.4059 *  0.0000     4          
   141  Na    c     -4.4550 *    -6.6579 *     8.8118 *  0.0000     4          
   142  Cl    c     -4.4550 *    -8.8609 *     6.6089 *  0.0000     4          
   143  Na    c     -4.4550 *   -11.0638 *     0.0000    0.0000     2          
   144  Na    c     -8.8609 *    -6.6579 *     4.4059 *  0.0000     4          
   145  O     s     -0.6306      -0.6306       0.0000    0.0000     1    Defect
   146  Cl    s     -0.0490 *    -0.0490      -2.2030 *  0.0000     2          
   147  O     s      2.1539 *    -2.2520 *     0.0000    0.0000     2          
   148  Cl    s     -0.0490 *     4.3569 *    -2.2030 *  0.0000     4          
   149  Cl    s     -0.0490 *    -4.4550 *    -2.2030 *  0.0000     4          
   150  O     s      2.1539 *     2.1539       4.4059 *  0.0000     2          
   151  O     s      2.1539 *    -2.2520 *     4.4059 *  0.0000     4          
   152  O     s     -2.2520 *    -2.2520       4.4059 *  0.0000     2          
   153  Cl    s      4.3569 *     4.3569      -2.2030 *  0.0000     2          
   154  Cl    s     -0.0490 *    -0.0490       6.6089 *  0.0000     2          
   155  Cl    s      4.3569 *    -4.4550 *    -2.2030 *  0.0000     4          
   156  Cl    s     -4.4550 *    -4.4550      -2.2030 *  0.0000     2          
   157  O     s      2.1539 *     6.5598 *     0.0000    0.0000     2          
   158  O     s      6.5598 *    -2.2520 *     0.0000    0.0000     2          
   159  O     s      2.1539 *    -6.6579 *     0.0000    0.0000     2          
   160  O     s     -2.2520 *    -6.6579 *     0.0000    0.0000     2          
   161  Cl    s     -0.0490 *     4.3569 *     6.6089 *  0.0000     4          
   162  Cl    s     -0.0490 *    -4.4550 *     6.6089 *  0.0000     4          
   163  O     s      2.1539 *     6.5598 *     4.4059 *  0.0000     4          
   164  O     s      6.5598 *    -2.2520 *     4.4059 *  0.0000     4          
   165  O     s      2.1539 *    -6.6579 *     4.4059 *  0.0000     4          
   166  O     s     -2.2520 *    -6.6579 *     4.4059 *  0.0000     4          
   167  Cl    s     -0.0490 *     8.7628 *    -2.2030 *  0.0000     4          
   168  Cl    s      4.3569 *     4.3569       6.6089 *  0.0000     2          
   169  Cl    s      4.3569 *    -4.4550 *     6.6089 *  0.0000     4          
   170  Cl    s     -0.0490 *    -8.8609 *    -2.2030 *  0.0000     4          
   171  Cl    s     -4.4550 *    -4.4550       6.6089 *  0.0000     2          
   172  O     s      6.5598 *     6.5598       0.0000    0.0000     1          
   173  O     s      2.1539 *     2.1539       8.8118 *  0.0000     2          
   174  O     s      2.1539 *    -2.2520 *     8.8118 *  0.0000     4          
   175  O     s      6.5598 *    -6.6579 *     0.0000    0.0000     2          
   176  O     s     -2.2520 *    -2.2520       8.8118 *  0.0000     2          
   177  O     s     -6.6579 *    -6.6579       0.0000    0.0000     1          
   178  Cl    s      4.3569 *     8.7628 *    -2.2030 *  0.0000     4          
   179  Cl    s      8.7628 *    -4.4550 *    -2.2030 *  0.0000     4          
   180  Cl    s      4.3569 *    -8.8609 *    -2.2030 *  0.0000     4          
   181  Cl    s     -4.4550 *    -8.8609 *    -2.2030 *  0.0000     4          
   182  O     s      6.5598 *     6.5598       4.4059 *  0.0000     2          
   183  O     s      6.5598 *    -6.6579 *     4.4059 *  0.0000     4          
   184  O     s     -6.6579 *    -6.6579       4.4059 *  0.0000     2          
   185  Cl    s     -0.0490 *     8.7628 *     6.6089 *  0.0000     4          
   186  Cl    s     -0.0490 *    -0.0490      11.0148 *  0.0000     2          
   187  Cl    s     -0.0490 *    -8.8609 *     6.6089 *  0.0000     4          
   188  O     s      2.1539 *    10.9657 *     0.0000    0.0000     2          
   189  O     s      2.1539 *     6.5598 *     8.8118 *  0.0000     4          
   190  O     s     10.9657 *    -2.2520 *     0.0000    0.0000     2          
   191  O     s      6.5598 *    -2.2520 *     8.8118 *  0.0000     4          
   192  O     s      2.1539 *    -6.6579 *     8.8118 *  0.0000     4          
   193  O     s      2.1539 *   -11.0638 *     0.0000    0.0000     2          
   194  O     s     -2.2520 *    -6.6579 *     8.8118 *  0.0000     4          
   195  O     s     -2.2520 *   -11.0638 *     0.0000    0.0000     2          
   196  Cl    s      4.3569 *     8.7628 *     6.6089 *  0.0000     4          
   197  Cl    s     -0.0490 *     4.3569 *    11.0148 *  0.0000     4          
   198  Cl    s      8.7628 *    -4.4550 *     6.6089 *  0.0000     4          
   199  Cl    s     -0.0490 *    -4.4550 *    11.0148 *  0.0000     4          
   200  Cl    s      4.3569 *    -8.8609 *     6.6089 *  0.0000     4          
   201  Cl    s     -4.4550 *    -8.8609 *     6.6089 *  0.0000     4          
--------------------------------------------------------------------------------


  Constraints on symmetry reduced coordinates :

--------------------------------------------------------------------------------
  Constraint no.      Unconstrained     Constrained    Coefficient    
                         Variable         Variable
--------------------------------------------------------------------------------
           1                 3 x             3 y         1.00000
           2                 6 x             6 y         1.00000
           3                 8 x             8 y         1.00000
           4                17 x            17 y         1.00000
           5                19 x            19 y         1.00000
           6                20 x            20 y         1.00000
           7                24 x            24 y         1.00000
           8                29 x            29 y         1.00000
           9                35 x            35 y         1.00000
          10                39 x            39 y         1.00000
          11                56 x            56 y         1.00000
          12                65 x            65 y         1.00000
          13                68 x            68 y         1.00000
          14                69 x            69 y         1.00000
          15                72 x            72 y         1.00000
          16                73 x            73 y         1.00000
          17                74 x            74 y         1.00000
          18                80 x            80 y         1.00000
          19                93 x            93 y         1.00000
          20                95 x            95 y         1.00000
          21               101 x           101 y         1.00000
          22               115 x           115 y         1.00000
          23               118 x           118 y         1.00000
          24               121 x           121 y         1.00000
          25               124 x           124 y         1.00000
          26               146 x           146 y         1.00000
          27               150 x           150 y         1.00000
          28               152 x           152 y         1.00000
          29               153 x           153 y         1.00000
          30               154 x           154 y         1.00000
          31               156 x           156 y         1.00000
          32               168 x           168 y         1.00000
          33               171 x           171 y         1.00000
          34               172 x           172 y         1.00000
          35               173 x           173 y         1.00000
          36               176 x           176 y         1.00000
          37               177 x           177 y         1.00000
          38               182 x           182 y         1.00000
          39               184 x           184 y         1.00000
          40               186 x           186 y         1.00000
--------------------------------------------------------------------------------


  Components of defect energy : 

--------------------------------------------------------------------------------
  Region 1 - region 1                   =    100.61938118 eV
  Region 1 - region 2a (unrelaxed)      =    -55.03514914 eV
  Region 1 - 2a (relaxed - correction)  =     -1.01175687 eV
  Region 1 (Total)                      =     44.57247517 eV
  Region 2a                             =      0.50628304 eV
  Region 2b                             =     -1.64653806 eV
--------------------------------------------------------------------------------
  Total defect energy                   =     43.43222015 eV
--------------------------------------------------------------------------------

  Largest displacement in region 2 =   0.0442 Angstroms


  Number of variables =      507

  Maximum number of calculations  =        1000
  Maximum Hessian update interval =          10
  Maximum step size               =   1.0000000
  Maximum parameter tolerance     =   0.0000100
  Maximum function  tolerance     =   0.0000100
  Maximum gradient  tolerance     =   0.0010000

  Symmetry adapted optimisation

  Symmetry to be used for second derivatives

  Newton-Raphson optimiser to be used

  BFGS hessian update to be used

  Lower half triangular hessian to be used

  Start of defect optimisation :

  Cycle:      0 Defect Energy:  43.432220  Gnorm:     0.094970  CPU:    2.334
  ** Hessian calculated **
  Cycle:      1 Defect Energy:  36.744748  Gnorm:     0.072563  CPU:    7.946
  Cycle:      2 Defect Energy:  34.481971  Gnorm:     0.057676  CPU:   10.531
  ** Hessian calculated **
  Cycle:      3 Defect Energy:  29.767789  Gnorm:     0.029035  CPU:   14.596
  Cycle:      4 Defect Energy:  28.625193  Gnorm:     0.022017  CPU:   16.724
  Cycle:      5 Defect Energy:  27.928650  Gnorm:     0.015036  CPU:   22.906
  Cycle:      6 Defect Energy:  27.458231  Gnorm:     0.016100  CPU:   25.263
  Cycle:      7 Defect Energy:  27.005450  Gnorm:     0.013297  CPU:   28.516
  Cycle:      8 Defect Energy:  26.716035  Gnorm:     0.011256  CPU:   30.878
  Cycle:      9 Defect Energy:  26.382060  Gnorm:     0.009766  CPU:   33.909
  Cycle:     10 Defect Energy:  26.184945  Gnorm:     0.009868  CPU:   36.726
  Cycle:     11 Defect Energy:  26.072374  Gnorm:     0.008127  CPU:   39.013
  Cycle:     12 Defect Energy:  25.993574  Gnorm:     0.007449  CPU:   41.129
  ** Hessian calculated **
  Cycle:     13 Defect Energy:  25.902965  Gnorm:     0.007058  CPU:   43.311
  Cycle:     14 Defect Energy:  25.774490  Gnorm:     0.006459  CPU:   43.888
  Cycle:     15 Defect Energy:  25.597777  Gnorm:     0.005511  CPU:   44.465
  Cycle:     16 Defect Energy:  25.377056  Gnorm:     0.003981  CPU:   45.049
  Cycle:     17 Defect Energy:  25.258470  Gnorm:     0.002788  CPU:   45.630
  Cycle:     18 Defect Energy:  25.201425  Gnorm:     0.001955  CPU:   46.207
  Cycle:     19 Defect Energy:  25.173707  Gnorm:     0.001371  CPU:   46.789
  Cycle:     20 Defect Energy:  25.160151  Gnorm:     0.000962  CPU:   47.365
  Cycle:     21 Defect Energy:  25.153585  Gnorm:     0.000673  CPU:   48.032
  Cycle:     22 Defect Energy:  25.150404  Gnorm:     0.000473  CPU:   48.596
  ** Hessian calculated **
  Cycle:     23 Defect Energy:  25.148884  Gnorm:     0.000331  CPU:   50.697
  Cycle:     24 Defect Energy:  25.148167  Gnorm:     0.000232  CPU:   51.208
  Cycle:     25 Defect Energy:  25.147835  Gnorm:     0.000162  CPU:   51.760
  Cycle:     26 Defect Energy:  25.147687  Gnorm:     0.000114  CPU:   52.313
  Cycle:     27 Defect Energy:  25.147624  Gnorm:     0.000080  CPU:   52.962
  Cycle:     28 Defect Energy:  25.147600  Gnorm:     0.000056  CPU:   53.409


  **** Optimisation achieved ****


  Final defect energy  =       25.14759256
  Final defect Gnorm   =        0.00003900

  Components of defect energy : 

--------------------------------------------------------------------------------
  Region 1 - region 1                   =     74.20414371 eV
  Region 1 - region 2a (unrelaxed)      =    -47.03881713 eV
  Region 1 - 2a (relaxed - correction)  =     -0.74374800 eV
  Region 1 (Total)                      =     26.42157857 eV
  Region 2a                             =      0.37122501 eV
  Region 2b                             =     -1.64521102 eV
--------------------------------------------------------------------------------
  Total defect energy                   =     25.14759256 eV
--------------------------------------------------------------------------------

  Largest displacement in region 2 =   0.0442 Angstroms

  Final coordinates of region 1 :

--------------------------------------------------------------------------------
   No.  Atomic        x           y           z          Radius      Charge
        Label       (Angs)      (Angs)      (Angs)       (Angs)       (e) 
--------------------------------------------------------------------------------
     1  O     c     1.621440    1.621440    0.000000    0.000000    0.183000
     2  Na    c     1.800682    3.767242    0.000000    0.000000    1.000000
     3  Na    c     3.767242    1.800682    0.000000    0.000000    1.000000
     4  Cl    c     2.576618    2.576618   -2.684992    0.000000    1.485000
     5  Cl    c     2.576618    2.576618    2.684992    0.000000    1.485000
     6  Na    c     2.509238   -0.350600    0.000000    0.000000    1.000000
     7  Na    c    -0.350600    2.509238    0.000000    0.000000    1.000000
     8  O     c     4.639712   -0.146409    0.000000    0.000000    0.183000
     9  O     c    -0.146409    4.639712    0.000000    0.000000    0.183000
    10  Na    c     4.465619    4.465619   -2.591826    0.000000    1.000000
    11  Na    c     4.465619    4.465619    2.591826    0.000000    1.000000
    12  Na    c     4.623644    0.005685   -2.248433    0.000000    1.000000
    13  Na    c     4.623644    0.005685    2.248433    0.000000    1.000000
    14  Na    c     0.005685    4.623644   -2.248433    0.000000    1.000000
    15  Na    c     0.005685    4.623644    2.248433    0.000000    1.000000
    16  Na    c     0.747338    0.747338   -2.198385    0.000000    1.000000
    17  Na    c     0.747338    0.747338    2.198385    0.000000    1.000000
    18  Na    c     6.883347    4.282391    0.000000    0.000000    1.000000
    19  Na    c     4.282391    6.883347    0.000000    0.000000    1.000000
    20  Cl    c     2.494693    6.323874   -1.972163    0.000000    1.485000
    21  Cl    c     2.494693    6.323874    1.972163    0.000000    1.485000
    22  Cl    c     6.323874    2.494693   -1.972163    0.000000    1.485000
    23  Cl    c     6.323874    2.494693    1.972163    0.000000    1.485000
    24  Na    c     2.237021    4.466496    4.584832    0.000000    1.000000
    25  Na    c     2.237021    4.466496   -4.584832    0.000000    1.000000
    26  Na    c     4.466496    2.237021    4.584832    0.000000    1.000000
    27  Na    c     4.466496    2.237021   -4.584832    0.000000    1.000000
    28  Na    c     6.714021    0.341109    0.000000    0.000000    1.000000
    29  Na    c     0.341109    6.714021    0.000000    0.000000    1.000000
    30  Na    c     2.307540    0.058646    4.608784    0.000000    1.000000
    31  Na    c     2.307540    0.058646   -4.608784    0.000000    1.000000
    32  Na    c     0.058646    2.307540    4.608784    0.000000    1.000000
    33  Na    c     0.058646    2.307540   -4.608784    0.000000    1.000000
    34  Na    c    -2.281931    4.832751    0.000000    0.000000    1.000000
    35  Na    c     4.832751   -2.281931    0.000000    0.000000    1.000000
    36  Cl    c     1.999017   -2.033470   -1.990712    0.000000    1.485000
    37  Cl    c     1.999017   -2.033470    1.990712    0.000000    1.485000
    38  Cl    c    -2.033470    1.999017   -1.990712    0.000000    1.485000
    39  Cl    c    -2.033470    1.999017    1.990712    0.000000    1.485000
    40  Na    c    -2.449053   -0.054808    0.000000    0.000000    1.000000
    41  Na    c    -0.054808   -2.449053    0.000000    0.000000    1.000000
    42  O     c     4.507451    4.507451    4.667719    0.000000    0.183000
    43  O     c     4.507451    4.507451   -4.667719    0.000000    0.183000
    44  O     c     4.495802   -0.009855    4.451328    0.000000    0.183000
    45  O     c     4.495802   -0.009855   -4.451328    0.000000    0.183000
    46  O     c    -0.009855    4.495802    4.451328    0.000000    0.183000
    47  O     c    -0.009855    4.495802   -4.451328    0.000000    0.183000
    48  O     c     0.139093    0.139093    4.323231    0.000000    0.183000
    49  O     c     0.139093    0.139093   -4.323231    0.000000    0.183000
    50  Cl    c     6.340422    6.340422   -1.872333    0.000000    1.485000
    51  Cl    c     6.340422    6.340422    1.872333    0.000000    1.485000
    52  Na    c     2.204643    9.199709    0.000000    0.000000    1.000000
    53  Na    c     9.199709    2.204643    0.000000    0.000000    1.000000
    54  Na    c     6.672811    4.450073    4.619052    0.000000    1.000000
    55  Na    c     6.672811    4.450073   -4.619052    0.000000    1.000000
    56  Na    c     4.450073    6.672811    4.619052    0.000000    1.000000
    57  Na    c     4.450073    6.672811   -4.619052    0.000000    1.000000
    58  Na    c     6.669611   -0.062674    4.520564    0.000000    1.000000
    59  Na    c     6.669611   -0.062674   -4.520564    0.000000    1.000000
    60  Na    c    -0.062674    6.669611    4.520564    0.000000    1.000000
    61  Na    c    -0.062674    6.669611   -4.520564    0.000000    1.000000
    62  Cl    c     2.232878    2.232878    6.697600    0.000000    1.485000
    63  Cl    c     2.232878    2.232878   -6.697600    0.000000    1.485000
    64  Cl    c     6.680355   -2.217803   -2.280993    0.000000    1.485000
    65  Cl    c     6.680355   -2.217803    2.280993    0.000000    1.485000
    66  Cl    c    -2.217803    6.680355   -2.280993    0.000000    1.485000
    67  Cl    c    -2.217803    6.680355    2.280993    0.000000    1.485000
    68  Na    c    -2.209617    4.476598    4.464774    0.000000    1.000000
    69  Na    c    -2.209617    4.476598   -4.464774    0.000000    1.000000
    70  Na    c     4.476598   -2.209617    4.464774    0.000000    1.000000
    71  Na    c     4.476598   -2.209617   -4.464774    0.000000    1.000000
    72  Na    c     2.252193   -4.399771    0.000000    0.000000    1.000000
    73  Na    c    -4.399771    2.252193    0.000000    0.000000    1.000000
    74  Na    c    -2.093056    0.064979    4.092711    0.000000    1.000000
    75  Na    c    -2.093056    0.064979   -4.092711    0.000000    1.000000
    76  Na    c     0.064979   -2.093056    4.092711    0.000000    1.000000
    77  Na    c     0.064979   -2.093056   -4.092711    0.000000    1.000000
    78  Cl    c    -2.024019   -2.024019   -1.924095    0.000000    1.485000
    79  Cl    c    -2.024019   -2.024019    1.924095    0.000000    1.485000
    80  O     c     4.400926    8.966664    0.000000    0.000000    0.183000
    81  O     c     8.966664    4.400926    0.000000    0.000000    0.183000
    82  O     c     8.868955    0.031179    0.000000    0.000000    0.183000
    83  O     c     0.031179    8.868955    0.000000    0.000000    0.183000
    84  O     c     4.459649   -4.440565    0.000000    0.000000    0.183000
    85  O     c    -4.440565    4.459649    0.000000    0.000000    0.183000
    86  O     c     0.020598   -4.529655    0.000000    0.000000    0.183000
    87  O     c    -4.529655    0.020598    0.000000    0.000000    0.183000
    88  Na    c     4.403441    8.889178   -2.224723    0.000000    1.000000
    89  Na    c     4.403441    8.889178    2.224723    0.000000    1.000000
    90  Na    c     8.889178    4.403441   -2.224723    0.000000    1.000000
    91  Na    c     8.889178    4.403441    2.224723    0.000000    1.000000
    92  Na    c     4.412486    4.412486    6.763231    0.000000    1.000000
    93  Na    c     4.412486    4.412486   -6.763231    0.000000    1.000000
    94  Na    c     8.911685   -0.079901   -2.207287    0.000000    1.000000
    95  Na    c     8.911685   -0.079901    2.207287    0.000000    1.000000
    96  Na    c    -0.079901    8.911685   -2.207287    0.000000    1.000000
    97  Na    c    -0.079901    8.911685    2.207287    0.000000    1.000000
    98  Na    c     4.510943   -0.034523    6.662299    0.000000    1.000000
    99  Na    c     4.510943   -0.034523   -6.662299    0.000000    1.000000
   100  Na    c    -0.034523    4.510943    6.662299    0.000000    1.000000
   101  Na    c    -0.034523    4.510943   -6.662299    0.000000    1.000000
   102  Na    c     4.449208   -4.473879   -2.205011    0.000000    1.000000
   103  Na    c     4.449208   -4.473879    2.205011    0.000000    1.000000
   104  Na    c    -4.473879    4.449208   -2.205011    0.000000    1.000000
   105  Na    c    -4.473879    4.449208    2.205011    0.000000    1.000000
   106  Na    c    -0.083770   -0.083770    6.554700    0.000000    1.000000
   107  Na    c    -0.083770   -0.083770   -6.554700    0.000000    1.000000
   108  Na    c     0.017976   -4.576259   -2.198993    0.000000    1.000000
   109  Na    c     0.017976   -4.576259    2.198993    0.000000    1.000000
   110  Na    c    -4.576259    0.017976   -2.198993    0.000000    1.000000
   111  Na    c    -4.576259    0.017976    2.198993    0.000000    1.000000
   112  Na    c     6.617254    8.840361    0.000000    0.000000    1.000000
   113  Na    c     8.840361    6.617254    0.000000    0.000000    1.000000
   114  Na    c     2.207532    8.885609    4.471430    0.000000    1.000000
   115  Na    c     2.207532    8.885609   -4.471430    0.000000    1.000000
   116  Na    c     8.885609    2.207532    4.471430    0.000000    1.000000
   117  Na    c     8.885609    2.207532   -4.471430    0.000000    1.000000
   118  Cl    c     2.183595    6.664785    6.609385    0.000000    1.485000
   119  Cl    c     2.183595    6.664785   -6.609385    0.000000    1.485000
   120  Cl    c     6.664785    2.183595    6.609385    0.000000    1.485000
   121  Cl    c     6.664785    2.183595   -6.609385    0.000000    1.485000
   122  Na    c    -2.207300    8.661562    0.000000    0.000000    1.000000
   123  Na    c     8.661562   -2.207300    0.000000    0.000000    1.000000
   124  Na    c     6.651841   -4.667447    0.000000    0.000000    1.000000
   125  Na    c    -4.667447    6.651841    0.000000    0.000000    1.000000
   126  Cl    c     2.244872   -2.163942    6.566908    0.000000    1.485000
   127  Cl    c     2.244872   -2.163942   -6.566908    0.000000    1.485000
   128  Cl    c    -2.163942    2.244872    6.566908    0.000000    1.485000
   129  Cl    c    -2.163942    2.244872   -6.566908    0.000000    1.485000
   130  Na    c     2.203989   -4.405603    4.469849    0.000000    1.000000
   131  Na    c     2.203989   -4.405603   -4.469849    0.000000    1.000000
   132  Na    c    -4.405603    2.203989    4.469849    0.000000    1.000000
   133  Na    c    -4.405603    2.203989   -4.469849    0.000000    1.000000
   134  Na    c    -2.220143   -4.506912    0.000000    0.000000    1.000000
   135  Na    c    -4.506912   -2.220143    0.000000    0.000000    1.000000
   136  O     c     4.417997    8.837249    4.417275    0.000000    0.183000
   137  O     c     4.417997    8.837249   -4.417275    0.000000    0.183000
   138  O     c     8.837249    4.417997    4.417275    0.000000    0.183000
   139  O     c     8.837249    4.417997   -4.417275    0.000000    0.183000
   140  O     c     8.831662    0.016272    4.397529    0.000000    0.183000
   141  O     c     8.831662    0.016272   -4.397529    0.000000    0.183000
   142  O     c     0.016272    8.831662    4.397529    0.000000    0.183000
   143  O     c     0.016272    8.831662   -4.397529    0.000000    0.183000
   144  O     c     4.402093   -4.390631    4.392285    0.000000    0.183000
   145  O     c     4.402093   -4.390631   -4.392285    0.000000    0.183000
   146  O     c    -4.390631    4.402093    4.392285    0.000000    0.183000
   147  O     c    -4.390631    4.402093   -4.392285    0.000000    0.183000
   148  O     c     0.015297   -4.353642    4.364602    0.000000    0.183000
   149  O     c     0.015297   -4.353642   -4.364602    0.000000    0.183000
   150  O     c    -4.353642    0.015297    4.364602    0.000000    0.183000
   151  O     c    -4.353642    0.015297   -4.364602    0.000000    0.183000
   152  Na    c     6.624789    8.912597    4.472663    0.000000    1.000000
   153  Na    c     6.624789    8.912597   -4.472663    0.000000    1.000000
   154  Na    c     8.912597    6.624789    4.472663    0.000000    1.000000
   155  Na    c     8.912597    6.624789   -4.472663    0.000000    1.000000
   156  Na    c    11.104557    4.554065    0.000000    0.000000    1.000000
   157  Na    c     4.554065   11.104557    0.000000    0.000000    1.000000
   158  Cl    c     2.208265   11.022449   -2.234186    0.000000    1.485000
   159  Cl    c     2.208265   11.022449    2.234186    0.000000    1.485000
   160  Cl    c    11.022449    2.208265   -2.234186    0.000000    1.485000
   161  Cl    c    11.022449    2.208265    2.234186    0.000000    1.485000
   162  Cl    c     6.677158    6.677158    6.618605    0.000000    1.485000
   163  Cl    c     6.677158    6.677158   -6.618605    0.000000    1.485000
   164  Na    c    11.058664   -0.185343    0.000000    0.000000    1.000000
   165  Na    c    -0.185343   11.058664    0.000000    0.000000    1.000000
   166  Na    c     2.196177    4.396778    8.907497    0.000000    1.000000
   167  Na    c     2.196177    4.396778   -8.907497    0.000000    1.000000
   168  Na    c     4.396778    2.196177    8.907497    0.000000    1.000000
   169  Na    c     4.396778    2.196177   -8.907497    0.000000    1.000000
   170  Na    c    -2.218747    8.849452    4.428801    0.000000    1.000000
   171  Na    c    -2.218747    8.849452   -4.428801    0.000000    1.000000
   172  Na    c     8.849452   -2.218747    4.428801    0.000000    1.000000
   173  Na    c     8.849452   -2.218747   -4.428801    0.000000    1.000000
   174  Cl    c     6.624891   -2.191658    6.600833    0.000000    1.485000
   175  Cl    c     6.624891   -2.191658   -6.600833    0.000000    1.485000
   176  Cl    c    -2.191658    6.624891    6.600833    0.000000    1.485000
   177  Cl    c    -2.191658    6.624891   -6.600833    0.000000    1.485000
   178  Na    c     2.200824    0.008805    8.768346    0.000000    1.000000
   179  Na    c     2.200824    0.008805   -8.768346    0.000000    1.000000
   180  Na    c     0.008805    2.200824    8.768346    0.000000    1.000000
   181  Na    c     0.008805    2.200824   -8.768346    0.000000    1.000000
   182  Na    c     6.626377   -4.433383    4.400274    0.000000    1.000000
   183  Na    c     6.626377   -4.433383   -4.400274    0.000000    1.000000
   184  Na    c    -4.433383    6.626377    4.400274    0.000000    1.000000
   185  Na    c    -4.433383    6.626377   -4.400274    0.000000    1.000000
   186  Na    c    -6.648122    4.342606    0.000000    0.000000    1.000000
   187  Na    c     4.342606   -6.648122    0.000000    0.000000    1.000000
   188  Cl    c     2.228461   -6.588477   -2.206591    0.000000    1.485000
   189  Cl    c     2.228461   -6.588477    2.206591    0.000000    1.485000
   190  Cl    c    -6.588477    2.228461   -2.206591    0.000000    1.485000
   191  Cl    c    -6.588477    2.228461    2.206591    0.000000    1.485000
   192  Cl    c    -2.175626   -2.175626    6.548985    0.000000    1.485000
   193  Cl    c    -2.175626   -2.175626   -6.548985    0.000000    1.485000
   194  Na    c    -6.681760    0.045615    0.000000    0.000000    1.000000
   195  Na    c     0.045615   -6.681760    0.000000    0.000000    1.000000
   196  Na    c    -2.182308   -4.401537    4.446609    0.000000    1.000000
   197  Na    c    -2.182308   -4.401537   -4.446609    0.000000    1.000000
   198  Na    c    -4.401537   -2.182308    4.446609    0.000000    1.000000
   199  Na    c    -4.401537   -2.182308   -4.446609    0.000000    1.000000
   200  O     c     8.811204    8.811204    0.000000    0.000000    0.183000
   201  O     c     4.415427    4.415427    8.891441    0.000000    0.183000
   202  O     c     4.415427    4.415427   -8.891441    0.000000    0.183000
   203  O     c     4.419311   -0.005226    8.831099    0.000000    0.183000
   204  O     c     4.419311   -0.005226   -8.831099    0.000000    0.183000
   205  O     c    -0.005226    4.419311    8.831099    0.000000    0.183000
   206  O     c    -0.005226    4.419311   -8.831099    0.000000    0.183000
   207  O     c     8.816829   -4.415663    0.000000    0.000000    0.183000
   208  O     c    -4.415663    8.816829    0.000000    0.000000    0.183000
   209  O     c    -0.004585   -0.004585    8.784077    0.000000    0.183000
   210  O     c    -0.004585   -0.004585   -8.784077    0.000000    0.183000
   211  O     c    -4.420780   -4.420780    0.000000    0.000000    0.183000
   212  Na    c     8.884285    8.884285   -2.203214    0.000000    1.000000
   213  Na    c     8.884285    8.884285    2.203214    0.000000    1.000000
   214  Na    c     4.415920    8.878060    6.638289    0.000000    1.000000
   215  Na    c     4.415920    8.878060   -6.638289    0.000000    1.000000
   216  Na    c     8.878060    4.415920    6.638289    0.000000    1.000000
   217  Na    c     8.878060    4.415920   -6.638289    0.000000    1.000000
   218  Na    c     8.848227   -0.014664    6.625630    0.000000    1.000000
   219  Na    c     8.848227   -0.014664   -6.625630    0.000000    1.000000
   220  Na    c    -0.014664    8.848227    6.625630    0.000000    1.000000
   221  Na    c    -0.014664    8.848227   -6.625630    0.000000    1.000000
   222  Na    c     8.838290   -4.403521   -2.210857    0.000000    1.000000
   223  Na    c     8.838290   -4.403521    2.210857    0.000000    1.000000
   224  Na    c    -4.403521    8.838290   -2.210857    0.000000    1.000000
   225  Na    c    -4.403521    8.838290    2.210857    0.000000    1.000000
   226  Na    c     4.437347   -4.423006    6.611484    0.000000    1.000000
   227  Na    c     4.437347   -4.423006   -6.611484    0.000000    1.000000
   228  Na    c    -4.423006    4.437347    6.611484    0.000000    1.000000
   229  Na    c    -4.423006    4.437347   -6.611484    0.000000    1.000000
   230  Na    c    -0.018077   -4.264187    6.584630    0.000000    1.000000
   231  Na    c    -0.018077   -4.264187   -6.584630    0.000000    1.000000
   232  Na    c    -4.264187   -0.018077    6.584630    0.000000    1.000000
   233  Na    c    -4.264187   -0.018077   -6.584630    0.000000    1.000000
   234  Na    c    -4.443403   -4.443403   -2.204478    0.000000    1.000000
   235  Na    c    -4.443403   -4.443403    2.204478    0.000000    1.000000
   236  Cl    c     6.634109   10.986299   -2.208817    0.000000    1.485000
   237  Cl    c     6.634109   10.986299    2.208817    0.000000    1.485000
   238  Cl    c    10.986299    6.634109   -2.208817    0.000000    1.485000
   239  Cl    c    10.986299    6.634109    2.208817    0.000000    1.485000
   240  Na    c    11.042156    4.394075    4.409382    0.000000    1.000000
   241  Na    c    11.042156    4.394075   -4.409382    0.000000    1.000000
   242  Na    c     4.394075   11.042156    4.409382    0.000000    1.000000
   243  Na    c     4.394075   11.042156   -4.409382    0.000000    1.000000
   244  Na    c     6.621914    4.401244    8.880676    0.000000    1.000000
   245  Na    c     6.621914    4.401244   -8.880676    0.000000    1.000000
   246  Na    c     4.401244    6.621914    8.880676    0.000000    1.000000
   247  Na    c     4.401244    6.621914   -8.880676    0.000000    1.000000
   248  Na    c    11.035086   -0.005157    4.418693    0.000000    1.000000
   249  Na    c    11.035086   -0.005157   -4.418693    0.000000    1.000000
   250  Na    c    -0.005157   11.035086    4.418693    0.000000    1.000000
   251  Na    c    -0.005157   11.035086   -4.418693    0.000000    1.000000
   252  Cl    c    11.008228   -2.186315   -2.197473    0.000000    1.485000
   253  Cl    c    11.008228   -2.186315    2.197473    0.000000    1.485000
   254  Cl    c    -2.186315   11.008228   -2.197473    0.000000    1.485000
   255  Cl    c    -2.186315   11.008228    2.197473    0.000000    1.485000
   256  Na    c     6.622400   -0.008709    8.870609    0.000000    1.000000
   257  Na    c     6.622400   -0.008709   -8.870609    0.000000    1.000000
   258  Na    c    -0.008709    6.622400    8.870609    0.000000    1.000000
   259  Na    c    -0.008709    6.622400   -8.870609    0.000000    1.000000
   260  Na    c    -2.210564    4.386490    8.842566    0.000000    1.000000
   261  Na    c    -2.210564    4.386490   -8.842566    0.000000    1.000000
   262  Na    c     4.386490   -2.210564    8.842566    0.000000    1.000000
   263  Na    c     4.386490   -2.210564   -8.842566    0.000000    1.000000
   264  Cl    c     6.605414   -6.600085   -2.204022    0.000000    1.485000
   265  Cl    c     6.605414   -6.600085    2.204022    0.000000    1.485000
   266  Cl    c    -6.600085    6.605414   -2.204022    0.000000    1.485000
   267  Cl    c    -6.600085    6.605414    2.204022    0.000000    1.485000
   268  Na    c    -6.613799    4.386522    4.415820    0.000000    1.000000
   269  Na    c    -6.613799    4.386522   -4.415820    0.000000    1.000000
   270  Na    c     4.386522   -6.613799    4.415820    0.000000    1.000000
   271  Na    c     4.386522   -6.613799   -4.415820    0.000000    1.000000
   272  Na    c    -2.195318    0.006450    8.860134    0.000000    1.000000
   273  Na    c    -2.195318    0.006450   -8.860134    0.000000    1.000000
   274  Na    c     0.006450   -2.195318    8.860134    0.000000    1.000000
   275  Na    c     0.006450   -2.195318   -8.860134    0.000000    1.000000
   276  Na    c    -6.598903    0.008159    4.474598    0.000000    1.000000
   277  Na    c    -6.598903    0.008159   -4.474598    0.000000    1.000000
   278  Na    c     0.008159   -6.598903    4.474598    0.000000    1.000000
   279  Na    c     0.008159   -6.598903   -4.474598    0.000000    1.000000
   280  Cl    c    -2.203005   -6.587962   -2.210694    0.000000    1.485000
   281  Cl    c    -2.203005   -6.587962    2.210694    0.000000    1.485000
   282  Cl    c    -6.587962   -2.203005   -2.210694    0.000000    1.485000
   283  Cl    c    -6.587962   -2.203005    2.210694    0.000000    1.485000
   284  O     c     8.814189    8.814189    4.390839    0.000000    0.183000
   285  O     c     8.814189    8.814189   -4.390839    0.000000    0.183000
   286  O     c     8.829194   -4.416741    4.413100    0.000000    0.183000
   287  O     c     8.829194   -4.416741   -4.413100    0.000000    0.183000
   288  O     c    -4.416741    8.829194    4.413100    0.000000    0.183000
   289  O     c    -4.416741    8.829194   -4.413100    0.000000    0.183000
   290  O     c    -4.384132   -4.384132    4.393503    0.000000    0.183000
   291  O     c    -4.384132   -4.384132   -4.393503    0.000000    0.183000
   292  Na    c    11.030821    8.809278    0.000000    0.000000    1.000000
   293  Na    c     8.809278   11.030821    0.000000    0.000000    1.000000
   294  Na    c     2.196312   13.208455    0.000000    0.000000    1.000000
   295  Na    c    13.208455    2.196312    0.000000    0.000000    1.000000
   296  Cl    c     2.216754   11.002926    6.593630    0.000000    1.485000
   297  Cl    c     2.216754   11.002926   -6.593630    0.000000    1.485000
   298  Cl    c    11.002926    2.216754    6.593630    0.000000    1.485000
   299  Cl    c    11.002926    2.216754   -6.593630    0.000000    1.485000
   300  Na    c     2.199532    8.812663    8.832315    0.000000    1.000000
   301  Na    c     2.199532    8.812663   -8.832315    0.000000    1.000000
   302  Na    c     8.812663    2.199532    8.832315    0.000000    1.000000
   303  Na    c     8.812663    2.199532   -8.832315    0.000000    1.000000
   304  Na    c    11.021665   -4.353266    0.000000    0.000000    1.000000
   305  Na    c    -4.353266   11.021665    0.000000    0.000000    1.000000
   306  Cl    c     2.196536    2.196536   11.002826    0.000000    1.485000
   307  Cl    c     2.196536    2.196536  -11.002826    0.000000    1.485000
   308  Na    c    -6.624962    8.921167    0.000000    0.000000    1.000000
   309  Na    c     8.921167   -6.624962    0.000000    0.000000    1.000000
   310  Na    c     2.200206   -4.427854    8.806511    0.000000    1.000000
   311  Na    c     2.200206   -4.427854   -8.806511    0.000000    1.000000
   312  Na    c    -4.427854    2.200206    8.806511    0.000000    1.000000
   313  Na    c    -4.427854    2.200206   -8.806511    0.000000    1.000000
   314  Cl    c     2.204797   -6.578780    6.578088    0.000000    1.485000
   315  Cl    c     2.204797   -6.578780   -6.578088    0.000000    1.485000
   316  Cl    c    -6.578780    2.204797    6.578088    0.000000    1.485000
   317  Cl    c    -6.578780    2.204797   -6.578088    0.000000    1.485000
   318  Na    c     2.204494   -8.887466    0.000000    0.000000    1.000000
   319  Na    c    -8.887466    2.204494    0.000000    0.000000    1.000000
   320  Na    c    -6.628608   -4.434380    0.000000    0.000000    1.000000
   321  Na    c    -4.434380   -6.628608    0.000000    0.000000    1.000000
   322  O     c     4.418957   13.248218    0.000000    0.000000    0.183000
   323  O     c    13.248218    4.418957    0.000000    0.000000    0.183000
   324  O     c     4.408309    8.815078    8.814829    0.000000    0.183000
   325  O     c     4.408309    8.815078   -8.814829    0.000000    0.183000
   326  O     c     8.815078    4.408309    8.814829    0.000000    0.183000
   327  O     c     8.815078    4.408309   -8.814829    0.000000    0.183000
   328  O     c    13.227823   -0.012765    0.000000    0.000000    0.183000
   329  O     c    -0.012765   13.227823    0.000000    0.000000    0.183000
   330  O     c     8.816732   -0.002688    8.814075    0.000000    0.183000
   331  O     c     8.816732   -0.002688   -8.814075    0.000000    0.183000
   332  O     c    -0.002688    8.816732    8.814075    0.000000    0.183000
   333  O     c    -0.002688    8.816732   -8.814075    0.000000    0.183000
   334  O     c     4.404993   -4.404374    8.806226    0.000000    0.183000
   335  O     c     4.404993   -4.404374   -8.806226    0.000000    0.183000
   336  O     c    -4.404374    4.404993    8.806226    0.000000    0.183000
   337  O     c    -4.404374    4.404993   -8.806226    0.000000    0.183000
   338  O     c     4.400699   -8.822390    0.000000    0.000000    0.183000
   339  O     c    -8.822390    4.400699    0.000000    0.000000    0.183000
   340  O     c     0.002018   -4.388526    8.798401    0.000000    0.183000
   341  O     c     0.002018   -4.388526   -8.798401    0.000000    0.183000
   342  O     c    -4.388526    0.002018    8.798401    0.000000    0.183000
   343  O     c    -4.388526    0.002018   -8.798401    0.000000    0.183000
   344  O     c     0.004466   -8.837435    0.000000    0.000000    0.183000
   345  O     c    -8.837435    0.004466    0.000000    0.000000    0.183000
   346  Na    c     8.806376    8.806376    6.621571    0.000000    1.000000
   347  Na    c     8.806376    8.806376   -6.621571    0.000000    1.000000
   348  Na    c     4.387953   13.269165   -2.209205    0.000000    1.000000
   349  Na    c     4.387953   13.269165    2.209205    0.000000    1.000000
   350  Na    c    13.269165    4.387953   -2.209205    0.000000    1.000000
   351  Na    c    13.269165    4.387953    2.209205    0.000000    1.000000
   352  Na    c    13.246943    0.001638   -2.207968    0.000000    1.000000
   353  Na    c    13.246943    0.001638    2.207968    0.000000    1.000000
   354  Na    c     0.001638   13.246943   -2.207968    0.000000    1.000000
   355  Na    c     0.001638   13.246943    2.207968    0.000000    1.000000
   356  Na    c     4.419998    4.419998   11.056071    0.000000    1.000000
   357  Na    c     4.419998    4.419998  -11.056071    0.000000    1.000000
   358  Na    c     4.385675   -0.029856   11.029514    0.000000    1.000000
   359  Na    c     4.385675   -0.029856  -11.029514    0.000000    1.000000
   360  Na    c    -0.029856    4.385675   11.029514    0.000000    1.000000
   361  Na    c    -0.029856    4.385675  -11.029514    0.000000    1.000000
[...]
    121 y          0.000000      0.020431     0.020431    Cartesian    0.00
    121 z         11.014756     11.011719    -0.003037    Cartesian   -0.03
    122 x          4.405902      4.419397     0.013495    Cartesian    0.31
    122 y         -8.811805     -8.840400    -0.028595    Cartesian    0.32
    122 z         -2.202951     -2.207822    -0.004871    Cartesian    0.22
    123 x          0.000000     -0.011431    -0.011431    Cartesian    0.00
    123 y         -8.811805     -8.843240    -0.031436    Cartesian    0.36
    123 z         -2.202951     -2.212640    -0.009689    Cartesian    0.44
    124 x         -4.405902     -4.409201    -0.003299    Cartesian    0.07
    124 y         -4.405902     -4.409201    -0.003299    Cartesian    0.07
    124 z          6.608853      6.610928     0.002074    Cartesian    0.03
    125 x          6.608853      6.624892     0.016038    Cartesian    0.24
    125 y         13.217707     13.317232     0.099525    Cartesian    0.75
    125 z          0.000000      0.000000     0.000000    Cartesian    0.00
    126 x         11.014756     11.030622     0.015867    Cartesian    0.14
    126 y          8.811805      8.841618     0.029813    Cartesian    0.34
    126 z          4.405902      4.428787     0.022885    Cartesian    0.52
    127 x          6.608853      6.602835    -0.006018    Cartesian   -0.09
    127 y         11.014756     10.996294    -0.018461    Cartesian   -0.17
    127 z          6.608853      6.582253    -0.026601    Cartesian   -0.40
    128 x          2.202951      2.199801    -0.003150    Cartesian   -0.14
    128 y         13.217707     13.252624     0.034918    Cartesian    0.26
    128 z          4.405902      4.426427     0.020524    Cartesian    0.47
    129 x          6.608853      6.615641     0.006788    Cartesian    0.10
    129 y          8.811805      8.815443     0.003638    Cartesian    0.04
    129 z          8.811805      8.840834     0.029030    Cartesian    0.33
    130 x         -2.202951     -2.217529    -0.014578    Cartesian    0.66
    130 y         13.217707     13.313111     0.095404    Cartesian    0.72
    130 z          0.000000      0.000000     0.000000    Cartesian    0.00
    131 x          2.202951      2.203855     0.000904    Cartesian    0.04
    131 y          6.608853      6.614585     0.005731    Cartesian    0.09
    131 z         11.014756     10.986934    -0.027821    Cartesian   -0.25
    132 x         11.014756     10.991480    -0.023276    Cartesian   -0.21
    132 y         -2.202951     -2.175446     0.027505    Cartesian   -1.25
    132 z          6.608853      6.587362    -0.021492    Cartesian   -0.33
    133 x         -2.202951     -2.209434    -0.006483    Cartesian    0.29
    133 y          8.811805      8.829293     0.017488    Cartesian    0.20
    133 z          8.811805      8.837128     0.025323    Cartesian    0.29
    134 x         11.014756     11.027576     0.012821    Cartesian    0.12
    134 y         -4.405902     -4.443741    -0.037838    Cartesian    0.86
    134 z          4.405902      4.428495     0.022593    Cartesian    0.51
    135 x          6.608853      6.611941     0.003088    Cartesian    0.05
    135 y         -4.405902     -4.417810    -0.011907    Cartesian    0.27
    135 z          8.811805      8.842106     0.030302    Cartesian    0.34
    136 x         -6.608853     -6.620240    -0.011387    Cartesian    0.17
    136 y          8.811805      8.833834     0.022030    Cartesian    0.25
    136 z          4.405902      4.415936     0.010034    Cartesian    0.23
    137 x          2.202951      2.202321    -0.000630    Cartesian   -0.03
    137 y         -2.202951     -2.189400     0.013551    Cartesian   -0.62
    137 z         11.014756     10.980138    -0.034618    Cartesian   -0.31
    138 x          6.608853      6.590169    -0.018685    Cartesian   -0.28
    138 y         -6.608853     -6.574134     0.034720    Cartesian   -0.53
    138 z          6.608853      6.588304    -0.020550    Cartesian   -0.31
    139 x          6.608853      6.614490     0.005637    Cartesian    0.09
    139 y         -8.811805     -8.830719    -0.018914    Cartesian    0.21
    139 z          0.000000      0.000000     0.000000    Cartesian    0.00
    140 x          2.202951      2.203405     0.000454    Cartesian    0.02
    140 y         -8.811805     -8.845272    -0.033467    Cartesian    0.38
    140 z          4.405902      4.410734     0.004832    Cartesian    0.11
    141 x         -2.202951     -2.202353     0.000598    Cartesian   -0.03
    141 y         -4.405902     -4.420918    -0.015015    Cartesian    0.34
    141 z          8.811805      8.828671     0.016866    Cartesian    0.19
    142 x         -2.202951     -2.187091     0.015860    Cartesian   -0.72
    142 y         -6.608853     -6.569175     0.039678    Cartesian   -0.60
    142 z          6.608853      6.573185    -0.035669    Cartesian   -0.54
    143 x         -2.202951     -2.207467    -0.004515    Cartesian    0.20
    143 y         -8.811805     -8.852050    -0.040245    Cartesian    0.46
    143 z          0.000000      0.000000     0.000000    Cartesian    0.00
    144 x         -6.608853     -6.609659    -0.000806    Cartesian    0.01
    144 y         -4.405902     -4.403593     0.002309    Cartesian   -0.05
    144 z          4.405902      4.418446     0.012544    Cartesian    0.28
    145 x          1.621440      1.621440     0.000000    Cartesian    0.00
    145 y          1.621440      1.621440     0.000000    Cartesian    0.00
    145 z          0.000000      0.000000     0.000000    Cartesian    0.00
    146 x          2.202951      2.593215     0.390264    Cartesian   17.72
    146 y          2.202951      2.593215     0.390264    Cartesian   17.72
    146 z         -2.202951     -2.716845    -0.513893    Cartesian   23.33
    147 x          4.405902      4.639555     0.233652    Cartesian    5.30
    147 y          0.000000     -0.146324    -0.146324    Cartesian    0.00
    147 z          0.000000      0.000000     0.000000    Cartesian    0.00
    148 x          2.202951      2.519880     0.316929    Cartesian   14.39
    148 y          6.608853      6.308581    -0.300273    Cartesian   -4.54
    148 z         -2.202951     -1.950284     0.252667    Cartesian  -11.47
    149 x          2.202951      1.979583    -0.223368    Cartesian  -10.14
    149 y         -2.202951     -2.010784     0.192167    Cartesian   -8.72
    149 z         -2.202951     -1.960711     0.242240    Cartesian  -11.00
    150 x          4.405902      4.507517     0.101615    Cartesian    2.31
    150 y          4.405902      4.507517     0.101615    Cartesian    2.31
    150 z          4.405902      4.667640     0.261738    Cartesian    5.94
    151 x          4.405902      4.495846     0.089943    Cartesian    2.04
    151 y          0.000000     -0.009913    -0.009913    Cartesian    0.00
    151 z          4.405902      4.451391     0.045489    Cartesian    1.03
    152 x          0.000000      0.139177     0.139177    Cartesian    0.00
    152 y          0.000000      0.139177     0.139177    Cartesian    0.00
    152 z          4.405902      4.323321    -0.082581    Cartesian   -1.87
    153 x          6.608853      6.313869    -0.294984    Cartesian   -4.46
    153 y          6.608853      6.313869    -0.294984    Cartesian   -4.46
    153 z         -2.202951     -1.846688     0.356263    Cartesian  -16.17
    154 x          2.202951      2.233232     0.030281    Cartesian    1.37
    154 y          2.202951      2.233232     0.030281    Cartesian    1.37
    154 z          6.608853      6.694969     0.086116    Cartesian    1.30
    155 x          6.608853      6.680363     0.071509    Cartesian    1.08
    155 y         -2.202951     -2.217237    -0.014286    Cartesian    0.65
    155 z         -2.202951     -2.282110    -0.079159    Cartesian    3.59
    156 x         -2.202951     -2.010833     0.192118    Cartesian   -8.72
    156 y         -2.202951     -2.010833     0.192118    Cartesian   -8.72
    156 z         -2.202951     -1.897693     0.305258    Cartesian  -13.86
    157 x          4.405902      4.400916    -0.004986    Cartesian   -0.11
    157 y          8.811805      8.966575     0.154770    Cartesian    1.76
    157 z          0.000000      0.000000     0.000000    Cartesian    0.00
    158 x          8.811805      8.868972     0.057168    Cartesian    0.65
    158 y          0.000000      0.031214     0.031214    Cartesian    0.00
    158 z          0.000000      0.000000     0.000000    Cartesian    0.00
    159 x          4.405902      4.459699     0.053796    Cartesian    1.22
    159 y         -4.405902     -4.440592    -0.034690    Cartesian    0.79
    159 z          0.000000      0.000000     0.000000    Cartesian    0.00
    160 x          0.000000      0.020586     0.020586    Cartesian    0.00
    160 y         -4.405902     -4.529546    -0.123644    Cartesian    2.81
    160 z          0.000000      0.000000     0.000000    Cartesian    0.00
    161 x          2.202951      2.182365    -0.020586    Cartesian   -0.93
    161 y          6.608853      6.664629     0.055776    Cartesian    0.84
    161 z          6.608853      6.599975    -0.008878    Cartesian   -0.13
    162 x          2.202951      2.249566     0.046615    Cartesian    2.12
    162 y         -2.202951     -2.158852     0.044099    Cartesian   -2.00
    162 z          6.608853      6.562086    -0.046767    Cartesian   -0.71
    163 x          4.405902      4.417999     0.012097    Cartesian    0.27
    163 y          8.811805      8.837251     0.025447    Cartesian    0.29
    163 z          4.405902      4.417300     0.011397    Cartesian    0.26
    164 x          8.811805      8.831648     0.019843    Cartesian    0.23
    164 y          0.000000      0.016277     0.016277    Cartesian    0.00
    164 z          4.405902      4.397537    -0.008365    Cartesian   -0.19
    165 x          4.405902      4.402091    -0.003811    Cartesian   -0.09
    165 y         -4.405902     -4.390615     0.015287    Cartesian   -0.35
    165 z          4.405902      4.392283    -0.013619    Cartesian   -0.31
    166 x          0.000000      0.015307     0.015307    Cartesian    0.00
    166 y         -4.405902     -4.353719     0.052183    Cartesian   -1.18
    166 z          4.405902      4.364564    -0.041339    Cartesian   -0.94
    167 x          2.202951      2.210469     0.007518    Cartesian    0.34
    167 y         11.014756     11.013873    -0.000882    Cartesian   -0.01
    167 z         -2.202951     -2.231379    -0.028428    Cartesian    1.29
    168 x          6.608853      6.680238     0.071385    Cartesian    1.08
    168 y          6.608853      6.680238     0.071385    Cartesian    1.08
    168 z          6.608853      6.610846     0.001993    Cartesian    0.03
    169 x          6.608853      6.621121     0.012268    Cartesian    0.19
    169 y         -2.202951     -2.184056     0.018895    Cartesian   -0.86
    169 z          6.608853      6.592213    -0.016641    Cartesian   -0.25
    170 x          2.202951      2.229309     0.026358    Cartesian    1.20
    170 y         -6.608853     -6.581638     0.027215    Cartesian   -0.41
    170 z         -2.202951     -2.204081    -0.001130    Cartesian    0.05
    171 x         -2.202951     -2.174677     0.028274    Cartesian   -1.28
    171 y         -2.202951     -2.174677     0.028274    Cartesian   -1.28
    171 z          6.608853      6.548418    -0.060435    Cartesian   -0.91
    172 x          8.811805      8.811206    -0.000598    Cartesian   -0.01
    172 y          8.811805      8.811206    -0.000598    Cartesian   -0.01
    172 z          0.000000      0.000000     0.000000    Cartesian    0.00
    173 x          4.405902      4.415437     0.009534    Cartesian    0.22
    173 y          4.405902      4.415437     0.009534    Cartesian    0.22
    173 z          8.811805      8.891392     0.079588    Cartesian    0.90
    174 x          4.405902      4.419332     0.013430    Cartesian    0.30
    174 y          0.000000     -0.005232    -0.005232    Cartesian    0.00
    174 z          8.811805      8.831077     0.019273    Cartesian    0.22
    175 x          8.811805      8.816799     0.004994    Cartesian    0.06
    175 y         -4.405902     -4.415700    -0.009798    Cartesian    0.22
    175 z          0.000000      0.000000     0.000000    Cartesian    0.00
    176 x          0.000000     -0.004606    -0.004606    Cartesian    0.00
    176 y          0.000000     -0.004606    -0.004606    Cartesian    0.00
    176 z          8.811805      8.784104    -0.027700    Cartesian   -0.31
    177 x         -4.405902     -4.420801    -0.014899    Cartesian    0.34
    177 y         -4.405902     -4.420801    -0.014899    Cartesian    0.34
    177 z          0.000000      0.000000     0.000000    Cartesian    0.00
    178 x          6.608853      6.633755     0.024902    Cartesian    0.38
    178 y         11.014756     10.980208    -0.034548    Cartesian   -0.31
    178 z         -2.202951     -2.207225    -0.004274    Cartesian    0.19
    179 x         11.014756     11.003655    -0.011100    Cartesian   -0.10
    179 y         -2.202951     -2.178470     0.024481    Cartesian   -1.11
    179 z         -2.202951     -2.194826     0.008126    Cartesian   -0.37
    180 x          6.608853      6.602413    -0.006440    Cartesian   -0.10
    180 y         -6.608853     -6.591806     0.017047    Cartesian   -0.26
    180 z         -2.202951     -2.200402     0.002549    Cartesian   -0.12
    181 x         -2.202951     -2.201365     0.001586    Cartesian   -0.07
    181 y         -6.608853     -6.581944     0.026909    Cartesian   -0.41
    181 z         -2.202951     -2.209412    -0.006461    Cartesian    0.29
    182 x          8.811805      8.814197     0.002392    Cartesian    0.03
    182 y          8.811805      8.814197     0.002392    Cartesian    0.03
    182 z          4.405902      4.390836    -0.015066    Cartesian   -0.34
    183 x          8.811805      8.829202     0.017398    Cartesian    0.20
    183 y         -4.405902     -4.416741    -0.010839    Cartesian    0.25
    183 z          4.405902      4.413101     0.007199    Cartesian    0.16
    184 x         -4.405902     -4.384127     0.021775    Cartesian   -0.49
    184 y         -4.405902     -4.384127     0.021775    Cartesian   -0.49
    184 z          4.405902      4.393499    -0.012404    Cartesian   -0.28
    185 x          2.202951      2.219065     0.016113    Cartesian    0.73
    185 y         11.014756     10.997922    -0.016834    Cartesian   -0.15
    185 z          6.608853      6.588880    -0.019973    Cartesian   -0.30
    186 x          2.202951      2.197263    -0.005688    Cartesian   -0.26
    186 y          2.202951      2.197263    -0.005688    Cartesian   -0.26
    186 z         11.014756     10.999131    -0.015624    Cartesian   -0.14
    187 x          2.202951      2.206290     0.003339    Cartesian    0.15
    187 y         -6.608853     -6.575865     0.032988    Cartesian   -0.50
    187 z          6.608853      6.572658    -0.036195    Cartesian   -0.55
    188 x          4.405902      4.418991     0.013089    Cartesian    0.30
    188 y         13.217707     13.248200     0.030493    Cartesian    0.23
    188 z          0.000000      0.000000     0.000000    Cartesian    0.00
    189 x          4.405902      4.408309     0.002407    Cartesian    0.05
    189 y          8.811805      8.815084     0.003279    Cartesian    0.04
    189 z          8.811805      8.814821     0.003016    Cartesian    0.03
    190 x         13.217707     13.227822     0.010115    Cartesian    0.08
    190 y          0.000000     -0.012795    -0.012795    Cartesian    0.00
    190 z          0.000000      0.000000     0.000000    Cartesian    0.00
    191 x          8.811805      8.816735     0.004931    Cartesian    0.06
    191 y          0.000000     -0.002685    -0.002685    Cartesian    0.00
    191 z          8.811805      8.814079     0.002274    Cartesian    0.03
    192 x          4.405902      4.404993    -0.000909    Cartesian   -0.02
    192 y         -4.405902     -4.404372     0.001530    Cartesian   -0.03
    192 z          8.811805      8.806224    -0.005581    Cartesian   -0.06
    193 x          4.405902      4.400676    -0.005226    Cartesian   -0.12
    193 y         -8.811805     -8.822389    -0.010585    Cartesian    0.12
    193 z          0.000000      0.000000     0.000000    Cartesian    0.00
    194 x          0.000000      0.002022     0.002022    Cartesian    0.00
    194 y         -4.405902     -4.388490     0.017412    Cartesian   -0.40
    194 z          8.811805      8.798424    -0.013381    Cartesian   -0.15
    195 x          0.000000      0.004482     0.004482    Cartesian    0.00
    195 y         -8.811805     -8.837422    -0.025617    Cartesian    0.29
    195 z          0.000000      0.000000     0.000000    Cartesian    0.00
    196 x          6.608853      6.600773    -0.008080    Cartesian   -0.12
    196 y         11.014756     10.989806    -0.024950    Cartesian   -0.23
    196 z          6.608853      6.575735    -0.033118    Cartesian   -0.50
    197 x          2.202951      2.205199     0.002247    Cartesian    0.10
    197 y          6.608853      6.614697     0.005844    Cartesian    0.09
    197 z         11.014756     10.980317    -0.034439    Cartesian   -0.31
    198 x         11.014756     10.987463    -0.027293    Cartesian   -0.25
    198 y         -2.202951     -2.170735     0.032216    Cartesian   -1.46
    198 z          6.608853      6.583885    -0.024968    Cartesian   -0.38
    199 x          2.202951      2.203073     0.000122    Cartesian    0.01
    199 y         -2.202951     -2.187513     0.015438    Cartesian   -0.70
    199 z         11.014756     10.975933    -0.038823    Cartesian   -0.35
    200 x          6.608853      6.587592    -0.021261    Cartesian   -0.32
    200 y         -6.608853     -6.569194     0.039659    Cartesian   -0.60
    200 z          6.608853      6.585876    -0.022978    Cartesian   -0.35
    201 x         -2.202951     -2.186528     0.016423    Cartesian   -0.75
    201 y         -6.608853     -6.565988     0.042865    Cartesian   -0.65
    201 z          6.608853      6.567328    -0.041526    Cartesian   -0.63
--------------------------------------------------------------------------------


  Time to end of optimisation  =       53.7610 seconds


  Peak dynamic memory used =      90.31 MB 


  Timing analysis for GULP :

--------------------------------------------------------------------------------
  Task / Subroutine                                          Time (Seconds)
--------------------------------------------------------------------------------
  Calculation of reciprocal space energy and derivatives          0.0008
  Calculation of reciprocal space energy using symmetry           0.0013
  Calculation of real space energy and derivatives                0.0042
  Calculation of real space energy using symmetry                 0.0132
  Calculation for region 1 energy and derivatives (2-b)          29.0824
  Calculation for region 2a energy                               20.9086
  Calculation for region 2b energy                                0.0124
  Calculation and manipulation of Hessian matrix                  3.2948
  Calculation of matrix inversion                                 0.2955
  Symmetry generation of equivalent positions                     0.0049
--------------------------------------------------------------------------------
  Total CPU time                                                 53.7610
--------------------------------------------------------------------------------


  Dump file written as Na3OCl.grs


  Job Finished at 15:15.45 19th January    2021                               

