********************************************************************************
*                       GENERAL UTILITY LATTICE PROGRAM                        *
*                                 Julian Gale                                  *
*                       Curtin Institute for Computation                       *
*                    School of Molecular and Life Sciences                     *
*                    Curtin University, Western Australia                      *
********************************************************************************
* Version = 5.2.0 * Last modified =  10th September 2020                       *
********************************************************************************
*  optimise     - perform optimisation run                                     *
*  conp         - constant pressure calculation                                *
*  property     - calculate properties for final geometry                      *
*  defect       - perform defect calculation after bulk run                    *
*  compare      - compare initial and final structures                         *
********************************************************************************

  Job Started  at 15:15.03 19th January    2021                               

  Number of CPUs =     1


  Total number of configurations input =      1

********************************************************************************
*  Input for Configuration =   1                                               *
********************************************************************************

  Formula = OClNa3                                                      

  Number of irreducible atoms/shells =       5


  Total number atoms/shells =       7

  Dimensionality = 3               :  Bulk   


  Symmetry :

  Crystal family                   :  Cubic       
  Crystal class  (Groth - 1921)    :  Cubic Hexakisoctahedral              

  Space group (centrosymmetric)    :  P M 3 M         

  Patterson group                  :  P m -3 m 

  Cartesian lattice vectors (Angstroms) :

        4.504000    0.000000    0.000000
        0.000000    4.504000    0.000000
        0.000000    0.000000    4.504000

  Cell parameters (Angstroms/Degrees):

  a =       4.5040    alpha =  90.0000
  b =       4.5040    beta  =  90.0000
  c =       4.5040    gamma =  90.0000

  Initial cell volume =          91.368216 Angs**3

  Temperature of configuration =   0.00     K 

  Pressure of configuration =         0.000 GPa 

  Fractional coordinates of asymmetric unit :

--------------------------------------------------------------------------------
   No.  Atomic       x           y          z         Charge      Occupancy
        Label      (Frac)      (Frac)     (Frac)        (e)         (Frac)  
--------------------------------------------------------------------------------
      1 O     c    0.000000    0.000000    0.000000     0.18300    1.000000    
      2 Cl    c    0.500000    0.500000    0.500000     1.48500    1.000000    
      3 Na    c    0.500000    0.000000    0.000000     1.00000    1.000000    
      4 O     s    0.000000    0.000000    0.000000    -2.18300    1.000000    
      5 Cl    s    0.500000    0.500000    0.500000    -2.48500    1.000000    
--------------------------------------------------------------------------------


  Constraints : 

--------------------------------------------------------------------------------
  Constraint no.      Unconstrained     Constrained    Coefficient    Offset
                         Variable         Variable
--------------------------------------------------------------------------------
           1              Strain 1        Strain 2       1.00000      0.0000
           2              Strain 1        Strain 3       1.00000      0.0000
--------------------------------------------------------------------------------


********************************************************************************
*  General input information                                                   *
********************************************************************************

  Species output for all configurations : 

--------------------------------------------------------------------------------
  Species    Type    Atomic    Atomic    Charge       Radii (Angs)     Library
                     Number     Mass       (e)     Cova   Ionic  VDW   Symbol
--------------------------------------------------------------------------------
    Na       Core       11      22.99   1.000000   0.970  0.000  2.300          
    O        Core        8      16.00   0.183000   0.730  0.000  1.360          
    O        Shell       8       0.00  -2.183000   0.730  0.000  1.360          
    Cl       Core       17      35.45   1.485000   0.990  0.000  1.650          
    Cl       Shell      17       0.00  -2.485000   0.990  0.000  1.650          
    Mg       Core       12      24.31   0.415000   1.100  0.000  0.000          
    Mg       Shell      12       0.00   1.585000   1.100  0.000  0.000          
    Ca       Core       20      40.08  -1.135000   0.990  0.000  0.000          
    Ca       Shell      20       0.00   3.135000   0.990  0.000  0.000          
    Sr       Core       38      87.62  -1.251000   1.120  0.000  0.000          
    Sr       Shell      38       0.00   3.251000   1.120  0.000  0.000          
    Ba       Core       56     137.33  -7.203000   1.340  0.000  0.000          
    Ba       Shell      56       0.00   9.203000   1.340  0.000  0.000          
--------------------------------------------------------------------------------


  Lattice summation method               =    Ewald          (3-D)
                                         =    Parry          (2-D)
                                         =    Saunders et al (1-D)
  Accuracy factor for lattice sums       =   12.000


  Analytic derivatives to be used

  Time limit = Infinity

  Maximum range for interatomic potentials =    100000.000000 Angstroms

  General interatomic potentials :

--------------------------------------------------------------------------------
Atom  Types   Potential      Parameter       Value         Units   Cutoffs(Ang)
  1     2                                                            Min /  Max 
--------------------------------------------------------------------------------
O    c O    s Spring (c-s)  Spring k 2       593.71600    eV*Ang^-2 0.000  0.800
                            Spring k 4       0.0000000    eV*Ang^-4 
--------------------------------------------------------------------------------
Cl   c Cl   s Spring (c-s)  Spring k 2       29.380000    eV*Ang^-2 0.000  0.800
                            Spring k 4       0.0000000    eV*Ang^-4 
--------------------------------------------------------------------------------
Mg   c Mg   s Spring (c-s)  Spring k 2       361.60000    eV*Ang^-2 0.000  0.800
                            Spring k 4       0.0000000    eV*Ang^-4 
--------------------------------------------------------------------------------
Ca   c Ca   s Spring (c-s)  Spring k 2       110.20000    eV*Ang^-2 0.000  0.800
                            Spring k 4       0.0000000    eV*Ang^-4 
--------------------------------------------------------------------------------
Sr   c Sr   s Spring (c-s)  Spring k 2       71.700000    eV*Ang^-2 0.000  0.800
                            Spring k 4       0.0000000    eV*Ang^-4 
--------------------------------------------------------------------------------
Ba   c Ba   s Spring (c-s)  Spring k 2       495.20000    eV*Ang^-2 0.000  0.800
                            Spring k 4       0.0000000    eV*Ang^-4 
--------------------------------------------------------------------------------
Na   c Na   c Buckingham    Buckingham A     1788.1900    eV        0.000 12.000
                            Buckingham rho  0.15900000    Ang       
                            Buckingham C     0.0000000    eV*Ang^6  
--------------------------------------------------------------------------------
Na   c O    s Buckingham    Buckingham A     588.38000    eV        0.000 12.000
                            Buckingham rho  0.33800000    Ang       
                            Buckingham C     0.0000000    eV*Ang^6  
--------------------------------------------------------------------------------
Na   c Cl   s Buckingham    Buckingham A     1170.4100    eV        0.000 12.000
                            Buckingham rho  0.31500000    Ang       
                            Buckingham C     0.0000000    eV*Ang^6  
--------------------------------------------------------------------------------
O    s O    s Buckingham    Buckingham A     22764.300    eV        0.000 12.000
                            Buckingham rho  0.14900000    Ang       
                            Buckingham C     13.190000    eV*Ang^6  
--------------------------------------------------------------------------------
O    s Cl   s Buckingham    Buckingham A     8286.9100    eV        0.000 12.000
                            Buckingham rho  0.25900000    Ang       
                            Buckingham C     62.200000    eV*Ang^6  
--------------------------------------------------------------------------------
Cl   s Cl   s Buckingham    Buckingham A     1227.2000    eV        0.000 12.000
                            Buckingham rho  0.32100000    Ang       
                            Buckingham C     14.530000    eV*Ang^6  
--------------------------------------------------------------------------------
O    s Mg   s Buckingham    Buckingham A     1428.5000    eV        0.000 12.000
                            Buckingham rho  0.29450000    Ang       
                            Buckingham C     0.0000000    eV*Ang^6  
--------------------------------------------------------------------------------
Mg   s Cl   s Buckingham    Buckingham A     4914.5400    eV        0.000 12.000
                            Buckingham rho  0.25700000    Ang       
                            Buckingham C     0.0000000    eV*Ang^6  
--------------------------------------------------------------------------------
O    s Ca   s Buckingham    Buckingham A     1090.4000    eV        0.000 12.000
                            Buckingham rho  0.34370000    Ang       
                            Buckingham C     0.0000000    eV*Ang^6  
--------------------------------------------------------------------------------
Cl   s Ca   s Buckingham    Buckingham A     2302.0000    eV        0.000 12.000
                            Buckingham rho  0.34020000    Ang       
                            Buckingham C     0.0000000    eV*Ang^6  
--------------------------------------------------------------------------------
O    s Sr   s Buckingham    Buckingham A     959.10000    eV        0.000 12.000
                            Buckingham rho  0.37210000    Ang       
                            Buckingham C     0.0000000    eV*Ang^6  
--------------------------------------------------------------------------------
Cl   s Sr   s Buckingham    Buckingham A     2191.0900    eV        0.000 12.000
                            Buckingham rho  0.34570000    Ang       
                            Buckingham C     0.0000000    eV*Ang^6  
--------------------------------------------------------------------------------
O    s Ba   s Buckingham    Buckingham A     905.70000    eV        0.000 12.000
                            Buckingham rho  0.39760000    Ang       
                            Buckingham C     0.0000000    eV*Ang^6  
--------------------------------------------------------------------------------
Cl   s Ba   s Buckingham    Buckingham A     2704.5500    eV        0.000 12.000
                            Buckingham rho  0.35280000    Ang       
                            Buckingham C     0.0000000    eV*Ang^6  
--------------------------------------------------------------------------------

********************************************************************************
*  Output for configuration   1                                                *
********************************************************************************


  Components of energy : 

--------------------------------------------------------------------------------
  Interatomic potentials     =           4.94315381 eV    
  Monopole - monopole (real) =         -10.03624526 eV    
  Monopole - monopole (recip)=         -29.53581274 eV    
  Monopole - monopole (total)=         -39.57205800 eV    
--------------------------------------------------------------------------------
  Total lattice energy       =         -34.62890419 eV    
--------------------------------------------------------------------------------
  Total lattice energy       =           -3341.1599 kJ/(mole unit cells)
--------------------------------------------------------------------------------


  Number of variables =        1

  Maximum number of calculations  =          1000
  Maximum Hessian update interval =            10
  Maximum step size               =   1.000000000
  Maximum parameter tolerance     =   0.000010000
  Maximum function  tolerance     =   0.000010000
  Maximum gradient  tolerance     =   0.001000000
  Maximum gradient  component     =   0.010000000

  Symmetry constrained optimisation

  Symmetry used for second derivatives

  Cell parameters to be optimised using strains

  Newton-Raphson optimiser to be used

  BFGS hessian update to be used

  Lower half triangular hessian to be used

  Start of bulk optimisation :

  Cycle:      0 Energy:       -34.628904  Gnorm:      4.328237  CPU:    0.014
  ** Hessian calculated **
  Cycle:      1 Energy:       -34.677667  Gnorm:      0.044008  CPU:    0.018
  Cycle:      2 Energy:       -34.677671  Gnorm:      0.003653  CPU:    0.021


  **** Optimisation achieved ****


  Final energy =     -34.67767136 eV
  Final Gnorm  =       0.00000010

  Components of energy : 

--------------------------------------------------------------------------------
  Interatomic potentials     =           5.77546103 eV    
  Monopole - monopole (real) =         -10.25970290 eV    
  Monopole - monopole (recip)=         -30.19342950 eV    
  Monopole - monopole (total)=         -40.45313239 eV    
--------------------------------------------------------------------------------
  Total lattice energy       =         -34.67767136 eV    
--------------------------------------------------------------------------------
  Total lattice energy       =           -3345.8652 kJ/(mole unit cells)
--------------------------------------------------------------------------------

  Final asymmetric unit coordinates :

--------------------------------------------------------------------------------
   No.  Atomic        x           y           z         Radius
        Label       (Frac)      (Frac)      (Frac)       (Angs) 
--------------------------------------------------------------------------------
     1  O     c     0.000000    0.000000    0.000000    0.000000
     2  Cl    c     0.500000    0.500000    0.500000    0.000000
     3  Na    c     0.500000    0.000000    0.000000    0.000000
     4  O     s     0.000000    0.000000    0.000000    0.000000
     5  Cl    s     0.500000    0.500000    0.500000    0.000000
--------------------------------------------------------------------------------

  Final Cartesian lattice vectors (Angstroms) :

        4.405902    0.000000    0.000000
        0.000000    4.405902    0.000000
        0.000000    0.000000    4.405902


  Final cell parameters and derivatives :

--------------------------------------------------------------------------------
       a            4.405902 Angstrom     dE/de1(xx)     0.000000 eV/strain
       b            4.405902 Angstrom     dE/de2(yy)     0.000000 eV/strain
       c            4.405902 Angstrom     dE/de3(zz)     0.000000 eV/strain
       alpha       90.000000 Degrees      dE/de4(yz)     0.000000 eV/strain
       beta        90.000000 Degrees      dE/de5(xz)     0.000000 eV/strain
       gamma       90.000000 Degrees      dE/de6(xy)     0.000000 eV/strain
--------------------------------------------------------------------------------

  Primitive cell volume =            85.527266 Angs**3

  Density of cell =      2.338030 g/cm**3

  Non-primitive cell volume =            85.527266 Angs**3


  Final internal derivatives :

--------------------------------------------------------------------------------
   No.  Atomic          a             b             c           Radius
        Label          (eV)          (eV)          (eV)        (eV/Angs)
--------------------------------------------------------------------------------
      1 O     c       0.000000      0.000000      0.000000      0.000000
      2 Cl    c       0.000000      0.000000      0.000000      0.000000
      3 Na    c       0.000000      0.000000      0.000000      0.000000
      4 O     s       0.000000      0.000000      0.000000      0.000000
      5 Cl    s       0.000000      0.000000      0.000000      0.000000
--------------------------------------------------------------------------------
  Maximum abs         0.000000      0.000000      0.000000      0.000000
--------------------------------------------------------------------------------

  Comparison of initial and final structures : 

--------------------------------------------------------------------------------
  Parameter   Initial value   Final value   Difference    Units      Percent
--------------------------------------------------------------------------------
    Volume        91.368216     85.527266    -5.840950    Angs**3     -6.39
    a              4.504000      4.405902    -0.098098    Angstroms   -2.18
    b              4.504000      4.405902    -0.098098    Angstroms   -2.18
    c              4.504000      4.405902    -0.098098    Angstroms   -2.18
    alpha         90.000000     90.000000     0.000000    Degrees      0.00
    beta          90.000000     90.000000     0.000000    Degrees      0.00
    gamma         90.000000     90.000000     0.000000    Degrees      0.00
      1 x          0.000000      0.000000     0.000000    Fractional   0.00
      1 y          0.000000      0.000000     0.000000    Fractional   0.00
      1 z          0.000000      0.000000     0.000000    Fractional   0.00
      2 x          0.500000      0.500000     0.000000    Fractional   0.00
      2 y          0.500000      0.500000     0.000000    Fractional   0.00
      2 z          0.500000      0.500000     0.000000    Fractional   0.00
      3 x          0.500000      0.500000     0.000000    Fractional   0.00
      3 y          0.000000      0.000000     0.000000    Fractional   0.00
      3 z          0.000000      0.000000     0.000000    Fractional   0.00
      4 x          0.000000      0.000000     0.000000    Fractional   0.00
      4 y          0.000000      0.000000     0.000000    Fractional   0.00
      4 z          0.000000      0.000000     0.000000    Fractional   0.00
      5 x          0.500000      0.500000     0.000000    Fractional   0.00
      5 y          0.500000      0.500000     0.000000    Fractional   0.00
      5 z          0.500000      0.500000     0.000000    Fractional   0.00
--------------------------------------------------------------------------------


  Born effective charge tensors : 

-------------------------------------------------------------------------------
  Atom             x           y             z
-------------------------------------------------------------------------------
    1 O     x      -2.2939      0.0000      0.0000
            y       0.0000     -2.2939      0.0000
            z       0.0000      0.0000     -2.2939
-------------------------------------------------------------------------------
    2 Cl    x      -0.9918     -0.0000      0.0000
            y      -0.0000     -0.9918      0.0000
            z       0.0000      0.0000     -0.9918
-------------------------------------------------------------------------------
    3 Na    x       0.8372     -0.0000     -0.0000
            y      -0.0000      1.2243     -0.0000
            z       0.0000     -0.0000      1.2243
-------------------------------------------------------------------------------




  Elastic Constant Matrix: (Units=GPa)

-------------------------------------------------------------------------------
  Indices      1         2         3         4         5         6    
-------------------------------------------------------------------------------
       1     82.7680   24.3534   24.3534   -0.0000    0.0000   -0.0000
       2     24.3534   82.7680   24.3534   -0.0000   -0.0000   -0.0000
       3     24.3534   24.3534   82.7680    0.0000   -0.0000    0.0000
       4     -0.0000   -0.0000    0.0000   24.3534   -0.0000   -0.0000
       5      0.0000   -0.0000   -0.0000   -0.0000   24.3534   -0.0000
       6     -0.0000   -0.0000    0.0000   -0.0000   -0.0000   24.3534
-------------------------------------------------------------------------------


  Elastic Compliance Matrix: (Units=1/GPa)

-------------------------------------------------------------------------------
  Indices      1         2         3         4         5         6    
-------------------------------------------------------------------------------
       1    0.013948 -0.003171 -0.003171 -0.000000 -0.000000  0.000000
       2   -0.003171  0.013948 -0.003171  0.000000 -0.000000  0.000000
       3   -0.003171 -0.003171  0.013948 -0.000000  0.000000 -0.000000
       4   -0.000000  0.000000 -0.000000  0.041062  0.000000  0.000000
       5   -0.000000 -0.000000  0.000000  0.000000  0.041062  0.000000
       6    0.000000  0.000000 -0.000000  0.000000  0.000000  0.041062
-------------------------------------------------------------------------------

  Mechanical properties :

-------------------------------------------------------------------------------
  Convention :                    Reuss         Voigt         Hill
-------------------------------------------------------------------------------
  Bulk  Modulus (GPa)     =      43.82493      43.82493      43.82493
  Shear Modulus (GPa)     =      26.08758      26.29496      26.19127
-------------------------------------------------------------------------------
  Velocity S-wave (km/s)  =       3.34035       3.35360       3.34698
  Velocity P-wave (km/s)  =       5.79842       5.80861       5.80351
-------------------------------------------------------------------------------
  Compressibility (1/GPa) =    0.02281806
-------------------------------------------------------------------------------
  Stress axis :                     x             y             z
-------------------------------------------------------------------------------
  Youngs Moduli (GPa)     =      71.69479      71.69479      71.69479
-------------------------------------------------------------------------------
  Poissons Ratio (x)      =                     0.22734       0.22734
  Poissons Ratio (y)      =       0.22734                     0.22734
  Poissons Ratio (z)      =       0.22734       0.22734
-------------------------------------------------------------------------------


  Piezoelectric Strain Matrix: (Units=C/m**2)

-------------------------------------------------------------------------------
  Indices      1         2         3         4         5         6    
-------------------------------------------------------------------------------
       x    -0.00000  -0.00000  -0.00000  -0.00000   0.00000   0.00000
       y    -0.00000   0.00000  -0.00000   0.00000  -0.00000   0.00000
       z     0.00000   0.00000   0.00000  -0.00000   0.00000  -0.00000
-------------------------------------------------------------------------------


  Piezoelectric Stress Matrix: (Units=10**-11 C/N)

-------------------------------------------------------------------------------
  Indices      1         2         3         4         5         6    
-------------------------------------------------------------------------------
       x    -0.00000  -0.00000  -0.00000  -0.00000   0.00000   0.00000
       y    -0.00000   0.00000  -0.00000   0.00000  -0.00000   0.00000
       z     0.00000   0.00000  -0.00000  -0.00000   0.00000  -0.00000
-------------------------------------------------------------------------------


  Static dielectric constant tensor : 

-------------------------------------------------------------------------------
              x         y         z
-------------------------------------------------------------------------------
       x    11.08357  -0.00000  -0.00000
       y    -0.00000  11.08357  -0.00000
       z    -0.00000  -0.00000  11.08357
--------------------------------------------------------------------------------

  High frequency dielectric constant tensor : 

-------------------------------------------------------------------------------
              x         y         z
-------------------------------------------------------------------------------
       x     1.50771  -0.00000  -0.00000
       y    -0.00000   1.50771  -0.00000
       z    -0.00000  -0.00000   1.50771
-------------------------------------------------------------------------------

  Static refractive indices : 

-------------------------------------------------------------------------------
    1 =    3.32920      2 =    3.32920      3 =    3.32920
-------------------------------------------------------------------------------

  High frequency refractive indices : 

-------------------------------------------------------------------------------
    1 =    1.22789      2 =    1.22789      3 =    1.22789
-------------------------------------------------------------------------------


  Time to end of optimisation =       0.0298 seconds

********************************************************************************
*  Defect calculation for configuration   1 :                                  *
********************************************************************************

  Total number of defects =      3

  Total charge on defect  =   2.00

  Defect centre is at   2.2520   2.2520   0.0000  Angs

  Region 1 radius =  12.0000      Number of ions =    622

  Number of symmetry inequivalent region 1 ions  =    201

  Region 2 radius =  16.0000      Number of ions =    762

  Number of symmetry inequivalent region 2a ions =    224

  Region 2a mode = 4 : screened electrostatics due to region 1 
                       neglect correction to region 1 forces from 2a
                       region 2a displacements based on defects only

  Region 2a ions will only interact with defects in region 1

  Vacancies:

--------------------------------------------------------------------------------
    Specification type     Symbol/Number         x          y          z
--------------------------------------------------------------------------------
    Cartesian                                0.000000   0.000000   0.000000
    Cartesian                                4.504000   4.504000   0.000000
--------------------------------------------------------------------------------

  Interstitials:

--------------------------------------------------------------------------------
    Specification type     Symbol/Number         x          y          z
--------------------------------------------------------------------------------
    Atom/Cartesian          O                1.801600   1.801600   0.000000
--------------------------------------------------------------------------------


  Symmetry reduced region 1 (Relative to defect centre) :

--------------------------------------------------------------------------------
   No.   Atomic       x            y             z       Radius  Multiplicity   
         Label      (Angs)       (Angs)        (Angs)    (Angs)     
--------------------------------------------------------------------------------
     1  O     c     -0.4504      -0.4504       0.0000    0.0000     1    Defect
     2  Na    c     -0.0490 *     2.1539 *     0.0000    0.0000     2          
     3  Cl    c     -0.0490 *    -0.0490      -2.2030 *  0.0000     2          
     4  Na    c     -0.0490 *    -2.2520 *     0.0000    0.0000     2          
     5  O     c      2.1539 *    -2.2520 *     0.0000    0.0000     2          
     6  Na    c      2.1539 *     2.1539      -2.2030 *  0.0000     2          
     7  Na    c      2.1539 *    -2.2520 *    -2.2030 *  0.0000     4          
     8  Na    c     -2.2520 *    -2.2520      -2.2030 *  0.0000     2          
     9  Na    c      4.3569 *     2.1539 *     0.0000    0.0000     2          
    10  Cl    c     -0.0490 *     4.3569 *    -2.2030 *  0.0000     4          
    11  Na    c     -0.0490 *     2.1539 *     4.4059 *  0.0000     4          
    12  Na    c      4.3569 *    -2.2520 *     0.0000    0.0000     2          
    13  Na    c     -0.0490 *    -2.2520 *     4.4059 *  0.0000     4          
    14  Na    c     -4.4550 *     2.1539 *     0.0000    0.0000     2          
    15  Cl    c     -0.0490 *    -4.4550 *    -2.2030 *  0.0000     4          
    16  Na    c     -4.4550 *    -2.2520 *     0.0000    0.0000     2          
    17  O     c      2.1539 *     2.1539       4.4059 *  0.0000     2          
    18  O     c      2.1539 *    -2.2520 *     4.4059 *  0.0000     4          
    19  O     c     -2.2520 *    -2.2520       4.4059 *  0.0000     2          
    20  Cl    c      4.3569 *     4.3569      -2.2030 *  0.0000     2          
    21  Na    c     -0.0490 *     6.5598 *     0.0000    0.0000     2          
    22  Na    c      4.3569 *     2.1539 *     4.4059 *  0.0000     4          
    23  Na    c      4.3569 *    -2.2520 *     4.4059 *  0.0000     4          
    24  Cl    c     -0.0490 *    -0.0490       6.6089 *  0.0000     2          
    25  Cl    c      4.3569 *    -4.4550 *    -2.2030 *  0.0000     4          
    26  Na    c     -4.4550 *     2.1539 *     4.4059 *  0.0000     4          
    27  Na    c     -0.0490 *    -6.6579 *     0.0000    0.0000     2          
    28  Na    c     -4.4550 *    -2.2520 *     4.4059 *  0.0000     4          
    29  Cl    c     -4.4550 *    -4.4550      -2.2030 *  0.0000     2          
    30  O     c      2.1539 *     6.5598 *     0.0000    0.0000     2          
    31  O     c      6.5598 *    -2.2520 *     0.0000    0.0000     2          
    32  O     c      2.1539 *    -6.6579 *     0.0000    0.0000     2          
    33  O     c     -2.2520 *    -6.6579 *     0.0000    0.0000     2          
    34  Na    c      2.1539 *     6.5598 *    -2.2030 *  0.0000     4          
    35  Na    c      2.1539 *     2.1539       6.6089 *  0.0000     2          
    36  Na    c      6.5598 *    -2.2520 *    -2.2030 *  0.0000     4          
    37  Na    c      2.1539 *    -2.2520 *     6.6089 *  0.0000     4          
    38  Na    c      2.1539 *    -6.6579 *    -2.2030 *  0.0000     4          
    39  Na    c     -2.2520 *    -2.2520       6.6089 *  0.0000     2          
    40  Na    c     -2.2520 *    -6.6579 *    -2.2030 *  0.0000     4          
    41  Na    c      4.3569 *     6.5598 *     0.0000    0.0000     2          
    42  Na    c     -0.0490 *     6.5598 *     4.4059 *  0.0000     4          
    43  Cl    c     -0.0490 *     4.3569 *     6.6089 *  0.0000     4          
    44  Na    c     -4.4550 *     6.5598 *     0.0000    0.0000     2          
    45  Na    c      4.3569 *    -6.6579 *     0.0000    0.0000     2          
    46  Cl    c     -0.0490 *    -4.4550 *     6.6089 *  0.0000     4          
    47  Na    c     -0.0490 *    -6.6579 *     4.4059 *  0.0000     4          
    48  Na    c     -4.4550 *    -6.6579 *     0.0000    0.0000     2          
    49  O     c      2.1539 *     6.5598 *     4.4059 *  0.0000     4          
    50  O     c      6.5598 *    -2.2520 *     4.4059 *  0.0000     4          
    51  O     c      2.1539 *    -6.6579 *     4.4059 *  0.0000     4          
    52  O     c     -2.2520 *    -6.6579 *     4.4059 *  0.0000     4          
    53  Na    c      4.3569 *     6.5598 *     4.4059 *  0.0000     4          
    54  Na    c      8.7628 *     2.1539 *     0.0000    0.0000     2          
    55  Cl    c     -0.0490 *     8.7628 *    -2.2030 *  0.0000     4          
    56  Cl    c      4.3569 *     4.3569       6.6089 *  0.0000     2          
    57  Na    c      8.7628 *    -2.2520 *     0.0000    0.0000     2          
    58  Na    c     -0.0490 *     2.1539 *     8.8118 *  0.0000     4          
    59  Na    c     -4.4550 *     6.5598 *     4.4059 *  0.0000     4          
    60  Cl    c      4.3569 *    -4.4550 *     6.6089 *  0.0000     4          
    61  Na    c     -0.0490 *    -2.2520 *     8.8118 *  0.0000     4          
    62  Na    c      4.3569 *    -6.6579 *     4.4059 *  0.0000     4          
    63  Na    c     -8.8609 *     2.1539 *     0.0000    0.0000     2          
    64  Cl    c     -0.0490 *    -8.8609 *    -2.2030 *  0.0000     4          
    65  Cl    c     -4.4550 *    -4.4550       6.6089 *  0.0000     2          
    66  Na    c     -8.8609 *    -2.2520 *     0.0000    0.0000     2          
    67  Na    c     -4.4550 *    -6.6579 *     4.4059 *  0.0000     4          
    68  O     c      6.5598 *     6.5598       0.0000    0.0000     1          
    69  O     c      2.1539 *     2.1539       8.8118 *  0.0000     2          
    70  O     c      2.1539 *    -2.2520 *     8.8118 *  0.0000     4          
    71  O     c      6.5598 *    -6.6579 *     0.0000    0.0000     2          
    72  O     c     -2.2520 *    -2.2520       8.8118 *  0.0000     2          
    73  O     c     -6.6579 *    -6.6579       0.0000    0.0000     1          
    74  Na    c      6.5598 *     6.5598      -2.2030 *  0.0000     2          
    75  Na    c      2.1539 *     6.5598 *     6.6089 *  0.0000     4          
    76  Na    c      6.5598 *    -2.2520 *     6.6089 *  0.0000     4          
    77  Na    c      6.5598 *    -6.6579 *    -2.2030 *  0.0000     4          
    78  Na    c      2.1539 *    -6.6579 *     6.6089 *  0.0000     4          
    79  Na    c     -2.2520 *    -6.6579 *     6.6089 *  0.0000     4          
    80  Na    c     -6.6579 *    -6.6579      -2.2030 *  0.0000     2          
    81  Cl    c      4.3569 *     8.7628 *    -2.2030 *  0.0000     4          
    82  Na    c      8.7628 *     2.1539 *     4.4059 *  0.0000     4          
    83  Na    c      4.3569 *     2.1539 *     8.8118 *  0.0000     4          
    84  Na    c      8.7628 *    -2.2520 *     4.4059 *  0.0000     4          
    85  Cl    c      8.7628 *    -4.4550 *    -2.2030 *  0.0000     4          
    86  Na    c      4.3569 *    -2.2520 *     8.8118 *  0.0000     4          
    87  Na    c     -4.4550 *     2.1539 *     8.8118 *  0.0000     4          
    88  Cl    c      4.3569 *    -8.8609 *    -2.2030 *  0.0000     4          
    89  Na    c     -8.8609 *     2.1539 *     4.4059 *  0.0000     4          
    90  Na    c     -4.4550 *    -2.2520 *     8.8118 *  0.0000     4          
    91  Na    c     -8.8609 *    -2.2520 *     4.4059 *  0.0000     4          
    92  Cl    c     -4.4550 *    -8.8609 *    -2.2030 *  0.0000     4          
    93  O     c      6.5598 *     6.5598       4.4059 *  0.0000     2          
    94  O     c      6.5598 *    -6.6579 *     4.4059 *  0.0000     4          
    95  O     c     -6.6579 *    -6.6579       4.4059 *  0.0000     2          
    96  Na    c      8.7628 *     6.5598 *     0.0000    0.0000     2          
    97  Na    c     -0.0490 *    10.9657 *     0.0000    0.0000     2          
    98  Cl    c     -0.0490 *     8.7628 *     6.6089 *  0.0000     4          
    99  Na    c     -0.0490 *     6.5598 *     8.8118 *  0.0000     4          
   100  Na    c      8.7628 *    -6.6579 *     0.0000    0.0000     2          
   101  Cl    c     -0.0490 *    -0.0490      11.0148 *  0.0000     2          
   102  Na    c     -8.8609 *     6.5598 *     0.0000    0.0000     2          
   103  Na    c     -0.0490 *    -6.6579 *     8.8118 *  0.0000     4          
   104  Cl    c     -0.0490 *    -8.8609 *     6.6089 *  0.0000     4          
   105  Na    c     -0.0490 *   -11.0638 *     0.0000    0.0000     2          
   106  Na    c     -8.8609 *    -6.6579 *     0.0000    0.0000     2          
   107  O     c      2.1539 *    10.9657 *     0.0000    0.0000     2          
   108  O     c      2.1539 *     6.5598 *     8.8118 *  0.0000     4          
   109  O     c     10.9657 *    -2.2520 *     0.0000    0.0000     2          
   110  O     c      6.5598 *    -2.2520 *     8.8118 *  0.0000     4          
   111  O     c      2.1539 *    -6.6579 *     8.8118 *  0.0000     4          
   112  O     c      2.1539 *   -11.0638 *     0.0000    0.0000     2          
   113  O     c     -2.2520 *    -6.6579 *     8.8118 *  0.0000     4          
   114  O     c     -2.2520 *   -11.0638 *     0.0000    0.0000     2          
   115  Na    c      6.5598 *     6.5598       6.6089 *  0.0000     2          
   116  Na    c      2.1539 *    10.9657 *    -2.2030 *  0.0000     4          
   117  Na    c     10.9657 *    -2.2520 *    -2.2030 *  0.0000     4          
   118  Na    c      2.1539 *     2.1539      11.0148 *  0.0000     2          
   119  Na    c      2.1539 *    -2.2520 *    11.0148 *  0.0000     4          
   120  Na    c      6.5598 *    -6.6579 *     6.6089 *  0.0000     4          
   121  Na    c     -2.2520 *    -2.2520      11.0148 *  0.0000     2          
   122  Na    c      2.1539 *   -11.0638 *    -2.2030 *  0.0000     4          
   123  Na    c     -2.2520 *   -11.0638 *    -2.2030 *  0.0000     4          
   124  Na    c     -6.6579 *    -6.6579       6.6089 *  0.0000     2          
   125  Na    c      4.3569 *    10.9657 *     0.0000    0.0000     2          
   126  Na    c      8.7628 *     6.5598 *     4.4059 *  0.0000     4          
   127  Cl    c      4.3569 *     8.7628 *     6.6089 *  0.0000     4          
   128  Na    c     -0.0490 *    10.9657 *     4.4059 *  0.0000     4          
   129  Na    c      4.3569 *     6.5598 *     8.8118 *  0.0000     4          
   130  Na    c     -4.4550 *    10.9657 *     0.0000    0.0000     2          
   131  Cl    c     -0.0490 *     4.3569 *    11.0148 *  0.0000     4          
   132  Cl    c      8.7628 *    -4.4550 *     6.6089 *  0.0000     4          
   133  Na    c     -4.4550 *     6.5598 *     8.8118 *  0.0000     4          
   134  Na    c      8.7628 *    -6.6579 *     4.4059 *  0.0000     4          
   135  Na    c      4.3569 *    -6.6579 *     8.8118 *  0.0000     4          
   136  Na    c     -8.8609 *     6.5598 *     4.4059 *  0.0000     4          
   137  Cl    c     -0.0490 *    -4.4550 *    11.0148 *  0.0000     4          
   138  Cl    c      4.3569 *    -8.8609 *     6.6089 *  0.0000     4          
   139  Na    c      4.3569 *   -11.0638 *     0.0000    0.0000     2          
   140  Na    c     -0.0490 *   -11.0638 *     4.4059 *  0.0000     4          
   141  Na    c     -4.4550 *    -6.6579 *     8.8118 *  0.0000     4          
   142  Cl    c     -4.4550 *    -8.8609 *     6.6089 *  0.0000     4          
   143  Na    c     -4.4550 *   -11.0638 *     0.0000    0.0000     2          
   144  Na    c     -8.8609 *    -6.6579 *     4.4059 *  0.0000     4          
   145  O     s     -0.4504      -0.4504       0.0000    0.0000     1    Defect
   146  Cl    s     -0.0490 *    -0.0490      -2.2030 *  0.0000     2          
   147  O     s      2.1539 *    -2.2520 *     0.0000    0.0000     2          
   148  Cl    s     -0.0490 *     4.3569 *    -2.2030 *  0.0000     4          
   149  Cl    s     -0.0490 *    -4.4550 *    -2.2030 *  0.0000     4          
   150  O     s      2.1539 *     2.1539       4.4059 *  0.0000     2          
   151  O     s      2.1539 *    -2.2520 *     4.4059 *  0.0000     4          
   152  O     s     -2.2520 *    -2.2520       4.4059 *  0.0000     2          
   153  Cl    s      4.3569 *     4.3569      -2.2030 *  0.0000     2          
   154  Cl    s     -0.0490 *    -0.0490       6.6089 *  0.0000     2          
   155  Cl    s      4.3569 *    -4.4550 *    -2.2030 *  0.0000     4          
   156  Cl    s     -4.4550 *    -4.4550      -2.2030 *  0.0000     2          
   157  O     s      2.1539 *     6.5598 *     0.0000    0.0000     2          
   158  O     s      6.5598 *    -2.2520 *     0.0000    0.0000     2          
   159  O     s      2.1539 *    -6.6579 *     0.0000    0.0000     2          
   160  O     s     -2.2520 *    -6.6579 *     0.0000    0.0000     2          
   161  Cl    s     -0.0490 *     4.3569 *     6.6089 *  0.0000     4          
   162  Cl    s     -0.0490 *    -4.4550 *     6.6089 *  0.0000     4          
   163  O     s      2.1539 *     6.5598 *     4.4059 *  0.0000     4          
   164  O     s      6.5598 *    -2.2520 *     4.4059 *  0.0000     4          
   165  O     s      2.1539 *    -6.6579 *     4.4059 *  0.0000     4          
   166  O     s     -2.2520 *    -6.6579 *     4.4059 *  0.0000     4          
   167  Cl    s     -0.0490 *     8.7628 *    -2.2030 *  0.0000     4          
   168  Cl    s      4.3569 *     4.3569       6.6089 *  0.0000     2          
   169  Cl    s      4.3569 *    -4.4550 *     6.6089 *  0.0000     4          
   170  Cl    s     -0.0490 *    -8.8609 *    -2.2030 *  0.0000     4          
   171  Cl    s     -4.4550 *    -4.4550       6.6089 *  0.0000     2          
   172  O     s      6.5598 *     6.5598       0.0000    0.0000     1          
   173  O     s      2.1539 *     2.1539       8.8118 *  0.0000     2          
   174  O     s      2.1539 *    -2.2520 *     8.8118 *  0.0000     4          
   175  O     s      6.5598 *    -6.6579 *     0.0000    0.0000     2          
   176  O     s     -2.2520 *    -2.2520       8.8118 *  0.0000     2          
   177  O     s     -6.6579 *    -6.6579       0.0000    0.0000     1          
   178  Cl    s      4.3569 *     8.7628 *    -2.2030 *  0.0000     4          
   179  Cl    s      8.7628 *    -4.4550 *    -2.2030 *  0.0000     4          
   180  Cl    s      4.3569 *    -8.8609 *    -2.2030 *  0.0000     4          
   181  Cl    s     -4.4550 *    -8.8609 *    -2.2030 *  0.0000     4          
   182  O     s      6.5598 *     6.5598       4.4059 *  0.0000     2          
   183  O     s      6.5598 *    -6.6579 *     4.4059 *  0.0000     4          
   184  O     s     -6.6579 *    -6.6579       4.4059 *  0.0000     2          
   185  Cl    s     -0.0490 *     8.7628 *     6.6089 *  0.0000     4          
   186  Cl    s     -0.0490 *    -0.0490      11.0148 *  0.0000     2          
   187  Cl    s     -0.0490 *    -8.8609 *     6.6089 *  0.0000     4          
   188  O     s      2.1539 *    10.9657 *     0.0000    0.0000     2          
   189  O     s      2.1539 *     6.5598 *     8.8118 *  0.0000     4          
   190  O     s     10.9657 *    -2.2520 *     0.0000    0.0000     2          
   191  O     s      6.5598 *    -2.2520 *     8.8118 *  0.0000     4          
   192  O     s      2.1539 *    -6.6579 *     8.8118 *  0.0000     4          
   193  O     s      2.1539 *   -11.0638 *     0.0000    0.0000     2          
   194  O     s     -2.2520 *    -6.6579 *     8.8118 *  0.0000     4          
   195  O     s     -2.2520 *   -11.0638 *     0.0000    0.0000     2          
   196  Cl    s      4.3569 *     8.7628 *     6.6089 *  0.0000     4          
   197  Cl    s     -0.0490 *     4.3569 *    11.0148 *  0.0000     4          
   198  Cl    s      8.7628 *    -4.4550 *     6.6089 *  0.0000     4          
   199  Cl    s     -0.0490 *    -4.4550 *    11.0148 *  0.0000     4          
   200  Cl    s      4.3569 *    -8.8609 *     6.6089 *  0.0000     4          
   201  Cl    s     -4.4550 *    -8.8609 *     6.6089 *  0.0000     4          
--------------------------------------------------------------------------------


  Constraints on symmetry reduced coordinates :

--------------------------------------------------------------------------------
  Constraint no.      Unconstrained     Constrained    Coefficient    
                         Variable         Variable
--------------------------------------------------------------------------------
           1                 3 x             3 y         1.00000
           2                 6 x             6 y         1.00000
           3                 8 x             8 y         1.00000
           4                17 x            17 y         1.00000
           5                19 x            19 y         1.00000
           6                20 x            20 y         1.00000
           7                24 x            24 y         1.00000
           8                29 x            29 y         1.00000
           9                35 x            35 y         1.00000
          10                39 x            39 y         1.00000
          11                56 x            56 y         1.00000
          12                65 x            65 y         1.00000
          13                68 x            68 y         1.00000
          14                69 x            69 y         1.00000
          15                72 x            72 y         1.00000
          16                73 x            73 y         1.00000
          17                74 x            74 y         1.00000
          18                80 x            80 y         1.00000
          19                93 x            93 y         1.00000
          20                95 x            95 y         1.00000
          21               101 x           101 y         1.00000
          22               115 x           115 y         1.00000
          23               118 x           118 y         1.00000
          24               121 x           121 y         1.00000
          25               124 x           124 y         1.00000
          26               146 x           146 y         1.00000
          27               150 x           150 y         1.00000
          28               152 x           152 y         1.00000
          29               153 x           153 y         1.00000
          30               154 x           154 y         1.00000
          31               156 x           156 y         1.00000
          32               168 x           168 y         1.00000
          33               171 x           171 y         1.00000
          34               172 x           172 y         1.00000
          35               173 x           173 y         1.00000
          36               176 x           176 y         1.00000
          37               177 x           177 y         1.00000
          38               182 x           182 y         1.00000
          39               184 x           184 y         1.00000
          40               186 x           186 y         1.00000
--------------------------------------------------------------------------------


  Components of defect energy : 

--------------------------------------------------------------------------------
  Region 1 - region 1                   =    101.27047147 eV
  Region 1 - region 2a (unrelaxed)      =    -55.07122449 eV
  Region 1 - 2a (relaxed - correction)  =     -1.00828585 eV
  Region 1 (Total)                      =     45.19096113 eV
  Region 2a                             =      0.50454361 eV
  Region 2b                             =     -1.64557349 eV
--------------------------------------------------------------------------------
  Total defect energy                   =     44.04993126 eV
--------------------------------------------------------------------------------

  Largest displacement in region 2 =   0.0432 Angstroms


  Number of variables =      507

  Maximum number of calculations  =        1000
  Maximum Hessian update interval =          10
  Maximum step size               =   1.0000000
  Maximum parameter tolerance     =   0.0000100
  Maximum function  tolerance     =   0.0000100
  Maximum gradient  tolerance     =   0.0010000

  Symmetry adapted optimisation

  Symmetry to be used for second derivatives

  Newton-Raphson optimiser to be used

  BFGS hessian update to be used

  Lower half triangular hessian to be used

  Start of defect optimisation :

  Cycle:      0 Defect Energy:  44.049931  Gnorm:     0.096586  CPU:    1.996
  ** Hessian calculated **
  Cycle:      1 Defect Energy:  39.759236  Gnorm:     0.081939  CPU:   11.507
  ** Hessian calculated **
  Cycle:      2 Defect Energy:  31.056242  Gnorm:     0.031217  CPU:   17.591
  Cycle:      3 Defect Energy:  29.885040  Gnorm:     0.018532  CPU:   19.964
  Cycle:      4 Defect Energy:  29.288393  Gnorm:     0.017630  CPU:   22.408
  Cycle:      5 Defect Energy:  28.792456  Gnorm:     0.019366  CPU:   24.605
  Cycle:      6 Defect Energy:  28.286560  Gnorm:     0.017692  CPU:   27.238
  Cycle:      7 Defect Energy:  27.754985  Gnorm:     0.017305  CPU:   29.802
  Cycle:      8 Defect Energy:  27.422788  Gnorm:     0.012729  CPU:   31.952
  Cycle:      9 Defect Energy:  27.098480  Gnorm:     0.013039  CPU:   34.475
  Cycle:     10 Defect Energy:  26.924142  Gnorm:     0.010673  CPU:   36.554
  Cycle:     11 Defect Energy:  26.825614  Gnorm:     0.009215  CPU:   38.496
  ** Hessian calculated **
  Cycle:     12 Defect Energy:  26.136680  Gnorm:     0.006147  CPU:   42.521
  Cycle:     13 Defect Energy:  26.015411  Gnorm:     0.005365  CPU:   43.192
  Cycle:     14 Defect Energy:  25.921499  Gnorm:     0.004748  CPU:   43.846
  Cycle:     15 Defect Energy:  25.729462  Gnorm:     0.002866  CPU:   44.439
  Cycle:     16 Defect Energy:  25.663601  Gnorm:     0.001959  CPU:   44.965
  Cycle:     17 Defect Energy:  25.634263  Gnorm:     0.001356  CPU:   45.504
  Cycle:     18 Defect Energy:  25.620227  Gnorm:     0.000937  CPU:   46.053
  Cycle:     19 Defect Energy:  25.613224  Gnorm:     0.000636  CPU:   46.603
  Cycle:     20 Defect Energy:  25.609999  Gnorm:     0.000424  CPU:   47.304
  Cycle:     21 Defect Energy:  25.608545  Gnorm:     0.000288  CPU:   48.474
  ** Hessian calculated **
  Cycle:     22 Defect Energy:  25.607938  Gnorm:     0.000202  CPU:   54.301
  Cycle:     23 Defect Energy:  25.607643  Gnorm:     0.000141  CPU:   54.991
  Cycle:     24 Defect Energy:  25.607500  Gnorm:     0.000099  CPU:   55.683
  Cycle:     25 Defect Energy:  25.607413  Gnorm:     0.000069  CPU:   56.377
  Cycle:     26 Defect Energy:  25.607380  Gnorm:     0.000049  CPU:   57.066
  Cycle:     27 Defect Energy:  25.607365  Gnorm:     0.000034  CPU:   57.754


  **** Optimisation achieved ****


  Final defect energy  =       25.60735825
  Final defect Gnorm   =        0.00002374

  Components of defect energy : 

--------------------------------------------------------------------------------
  Region 1 - region 1                   =     74.70386936 eV
  Region 1 - region 2a (unrelaxed)      =    -47.07824783 eV
  Region 1 - 2a (relaxed - correction)  =     -0.74472953 eV
  Region 1 (Total)                      =     26.88089200 eV
  Region 2a                             =      0.37170497 eV
  Region 2b                             =     -1.64523872 eV
--------------------------------------------------------------------------------
  Total defect energy                   =     25.60735825 eV
--------------------------------------------------------------------------------

  Largest displacement in region 2 =   0.0432 Angstroms

  Final coordinates of region 1 :

--------------------------------------------------------------------------------
   No.  Atomic        x           y           z          Radius      Charge
        Label       (Angs)      (Angs)      (Angs)       (Angs)       (e) 
--------------------------------------------------------------------------------
     1  O     c     1.801600    1.801600    0.000000    0.000000    0.183000
     2  Na    c     1.853891    3.918971    0.000000    0.000000    1.000000
     3  Na    c     3.918971    1.853891    0.000000    0.000000    1.000000
     4  Cl    c     2.469614    2.469614   -2.865011    0.000000    1.485000
     5  Cl    c     2.469614    2.469614    2.865011    0.000000    1.485000
     6  Na    c     2.510812   -0.205607    0.000000    0.000000    1.000000
     7  Na    c    -0.205607    2.510812    0.000000    0.000000    1.000000
     8  O     c     4.648396   -0.162615    0.000000    0.000000    0.183000
     9  O     c    -0.162615    4.648396    0.000000    0.000000    0.183000
    10  Na    c     4.384007    4.384007   -2.597311    0.000000    1.000000
    11  Na    c     4.384007    4.384007    2.597311    0.000000    1.000000
    12  Na    c     4.563433    0.009833   -2.256989    0.000000    1.000000
    13  Na    c     4.563433    0.009833    2.256989    0.000000    1.000000
    14  Na    c     0.009833    4.563433   -2.256989    0.000000    1.000000
    15  Na    c     0.009833    4.563433    2.256989    0.000000    1.000000
    16  Na    c     0.676731    0.676731   -2.311572    0.000000    1.000000
    17  Na    c     0.676731    0.676731    2.311572    0.000000    1.000000
    18  Na    c     6.872976    4.305717    0.000000    0.000000    1.000000
    19  Na    c     4.305717    6.872976    0.000000    0.000000    1.000000
    20  Cl    c     2.502107    6.245614   -1.934190    0.000000    1.485000
    21  Cl    c     2.502107    6.245614    1.934190    0.000000    1.485000
    22  Cl    c     6.245614    2.502107   -1.934190    0.000000    1.485000
    23  Cl    c     6.245614    2.502107    1.934190    0.000000    1.485000
    24  Na    c     2.220958    4.457453    4.644089    0.000000    1.000000
    25  Na    c     2.220958    4.457453   -4.644089    0.000000    1.000000
    26  Na    c     4.457453    2.220958    4.644089    0.000000    1.000000
    27  Na    c     4.457453    2.220958   -4.644089    0.000000    1.000000
    28  Na    c     6.716085    0.279261    0.000000    0.000000    1.000000
    29  Na    c     0.279261    6.716085    0.000000    0.000000    1.000000
    30  Na    c     2.303403    0.080796    4.649789    0.000000    1.000000
    31  Na    c     2.303403    0.080796   -4.649789    0.000000    1.000000
    32  Na    c     0.080796    2.303403    4.649789    0.000000    1.000000
    33  Na    c     0.080796    2.303403   -4.649789    0.000000    1.000000
    34  Na    c    -2.282727    4.774992    0.000000    0.000000    1.000000
    35  Na    c     4.774992   -2.282727    0.000000    0.000000    1.000000
    36  Cl    c     1.944842   -1.947285   -1.965729    0.000000    1.485000
    37  Cl    c     1.944842   -1.947285    1.965729    0.000000    1.485000
    38  Cl    c    -1.947285    1.944842   -1.965729    0.000000    1.485000
    39  Cl    c    -1.947285    1.944842    1.965729    0.000000    1.485000
    40  Na    c    -2.443837   -0.044475    0.000000    0.000000    1.000000
    41  Na    c    -0.044475   -2.443837    0.000000    0.000000    1.000000
    42  O     c     4.498744    4.498744    4.665723    0.000000    0.183000
    43  O     c     4.498744    4.498744   -4.665723    0.000000    0.183000
    44  O     c     4.499824   -0.028926    4.471297    0.000000    0.183000
    45  O     c     4.499824   -0.028926   -4.471297    0.000000    0.183000
    46  O     c    -0.028926    4.499824    4.471297    0.000000    0.183000
    47  O     c    -0.028926    4.499824   -4.471297    0.000000    0.183000
    48  O     c     0.109573    0.109573    4.395071    0.000000    0.183000
    49  O     c     0.109573    0.109573   -4.395071    0.000000    0.183000
    50  Cl    c     6.328920    6.328920   -1.894533    0.000000    1.485000
    51  Cl    c     6.328920    6.328920    1.894533    0.000000    1.485000
    52  Na    c     2.201524    9.181150    0.000000    0.000000    1.000000
    53  Na    c     9.181150    2.201524    0.000000    0.000000    1.000000
    54  Na    c     6.662252    4.449876    4.561870    0.000000    1.000000
    55  Na    c     6.662252    4.449876   -4.561870    0.000000    1.000000
    56  Na    c     4.449876    6.662252    4.561870    0.000000    1.000000
    57  Na    c     4.449876    6.662252   -4.561870    0.000000    1.000000
    58  Na    c     6.667855   -0.077318    4.498733    0.000000    1.000000
    59  Na    c     6.667855   -0.077318   -4.498733    0.000000    1.000000
    60  Na    c    -0.077318    6.667855    4.498733    0.000000    1.000000
    61  Na    c    -0.077318    6.667855   -4.498733    0.000000    1.000000
    62  Cl    c     2.232945    2.232945    6.753691    0.000000    1.485000
    63  Cl    c     2.232945    2.232945   -6.753691    0.000000    1.485000
    64  Cl    c     6.683123   -2.231615   -2.279616    0.000000    1.485000
    65  Cl    c     6.683123   -2.231615    2.279616    0.000000    1.485000
    66  Cl    c    -2.231615    6.683123   -2.279616    0.000000    1.485000
    67  Cl    c    -2.231615    6.683123    2.279616    0.000000    1.485000
    68  Na    c    -2.217339    4.469471    4.463956    0.000000    1.000000
    69  Na    c    -2.217339    4.469471   -4.463956    0.000000    1.000000
    70  Na    c     4.469471   -2.217339    4.463956    0.000000    1.000000
    71  Na    c     4.469471   -2.217339   -4.463956    0.000000    1.000000
    72  Na    c     2.244060   -4.413127    0.000000    0.000000    1.000000
    73  Na    c    -4.413127    2.244060    0.000000    0.000000    1.000000
    74  Na    c    -2.107656    0.059974    4.138684    0.000000    1.000000
    75  Na    c    -2.107656    0.059974   -4.138684    0.000000    1.000000
    76  Na    c     0.059974   -2.107656    4.138684    0.000000    1.000000
    77  Na    c     0.059974   -2.107656   -4.138684    0.000000    1.000000
    78  Cl    c    -2.031008   -2.031008   -1.929518    0.000000    1.485000
    79  Cl    c    -2.031008   -2.031008    1.929518    0.000000    1.485000
    80  O     c     4.399250    8.961315    0.000000    0.000000    0.183000
    81  O     c     8.961315    4.399250    0.000000    0.000000    0.183000
    82  O     c     8.873558    0.026583    0.000000    0.000000    0.183000
    83  O     c     0.026583    8.873558    0.000000    0.000000    0.183000
    84  O     c     4.447241   -4.444178    0.000000    0.000000    0.183000
    85  O     c    -4.444178    4.447241    0.000000    0.000000    0.183000
    86  O     c     0.019775   -4.528075    0.000000    0.000000    0.183000
    87  O     c    -4.528075    0.019775    0.000000    0.000000    0.183000
    88  Na    c     4.409132    8.903756   -2.221356    0.000000    1.000000
    89  Na    c     4.409132    8.903756    2.221356    0.000000    1.000000
    90  Na    c     8.903756    4.409132   -2.221356    0.000000    1.000000
    91  Na    c     8.903756    4.409132    2.221356    0.000000    1.000000
    92  Na    c     4.455494    4.455494    6.763677    0.000000    1.000000
    93  Na    c     4.455494    4.455494   -6.763677    0.000000    1.000000
    94  Na    c     8.926356   -0.088500   -2.207165    0.000000    1.000000
    95  Na    c     8.926356   -0.088500    2.207165    0.000000    1.000000
    96  Na    c    -0.088500    8.926356   -2.207165    0.000000    1.000000
    97  Na    c    -0.088500    8.926356    2.207165    0.000000    1.000000
    98  Na    c     4.532119   -0.074751    6.673061    0.000000    1.000000
    99  Na    c     4.532119   -0.074751   -6.673061    0.000000    1.000000
   100  Na    c    -0.074751    4.532119    6.673061    0.000000    1.000000
   101  Na    c    -0.074751    4.532119   -6.673061    0.000000    1.000000
   102  Na    c     4.462561   -4.494917   -2.205928    0.000000    1.000000
   103  Na    c     4.462561   -4.494917    2.205928    0.000000    1.000000
   104  Na    c    -4.494917    4.462561   -2.205928    0.000000    1.000000
   105  Na    c    -4.494917    4.462561    2.205928    0.000000    1.000000
   106  Na    c    -0.102666   -0.102666    6.589125    0.000000    1.000000
   107  Na    c    -0.102666   -0.102666   -6.589125    0.000000    1.000000
   108  Na    c     0.004768   -4.565782   -2.201086    0.000000    1.000000
   109  Na    c     0.004768   -4.565782    2.201086    0.000000    1.000000
   110  Na    c    -4.565782    0.004768   -2.201086    0.000000    1.000000
   111  Na    c    -4.565782    0.004768    2.201086    0.000000    1.000000
   112  Na    c     6.617796    8.845161    0.000000    0.000000    1.000000
   113  Na    c     8.845161    6.617796    0.000000    0.000000    1.000000
   114  Na    c     2.204650    8.890532    4.486033    0.000000    1.000000
   115  Na    c     2.204650    8.890532   -4.486033    0.000000    1.000000
   116  Na    c     8.890532    2.204650    4.486033    0.000000    1.000000
   117  Na    c     8.890532    2.204650   -4.486033    0.000000    1.000000
   118  Cl    c     2.184177    6.669922    6.610795    0.000000    1.485000
   119  Cl    c     2.184177    6.669922   -6.610795    0.000000    1.485000
   120  Cl    c     6.669922    2.184177    6.610795    0.000000    1.485000
   121  Cl    c     6.669922    2.184177   -6.610795    0.000000    1.485000
   122  Na    c    -2.213311    8.673857    0.000000    0.000000    1.000000
   123  Na    c     8.673857   -2.213311    0.000000    0.000000    1.000000
   124  Na    c     6.648091   -4.638409    0.000000    0.000000    1.000000
   125  Na    c    -4.638409    6.648091    0.000000    0.000000    1.000000
   126  Cl    c     2.249825   -2.184071    6.583604    0.000000    1.485000
   127  Cl    c     2.249825   -2.184071   -6.583604    0.000000    1.485000
   128  Cl    c    -2.184071    2.249825    6.583604    0.000000    1.485000
   129  Cl    c    -2.184071    2.249825   -6.583604    0.000000    1.485000
   130  Na    c     2.203146   -4.427322    4.480147    0.000000    1.000000
   131  Na    c     2.203146   -4.427322   -4.480147    0.000000    1.000000
   132  Na    c    -4.427322    2.203146    4.480147    0.000000    1.000000
   133  Na    c    -4.427322    2.203146   -4.480147    0.000000    1.000000
   134  Na    c    -2.220661   -4.496969    0.000000    0.000000    1.000000
   135  Na    c    -4.496969   -2.220661    0.000000    0.000000    1.000000
   136  O     c     4.413824    8.832073    4.410045    0.000000    0.183000
   137  O     c     4.413824    8.832073   -4.410045    0.000000    0.183000
   138  O     c     8.832073    4.413824    4.410045    0.000000    0.183000
   139  O     c     8.832073    4.413824   -4.410045    0.000000    0.183000
   140  O     c     8.831135    0.014467    4.394729    0.000000    0.183000
   141  O     c     8.831135    0.014467   -4.394729    0.000000    0.183000
   142  O     c     0.014467    8.831135    4.394729    0.000000    0.183000
   143  O     c     0.014467    8.831135   -4.394729    0.000000    0.183000
   144  O     c     4.399693   -4.395085    4.391067    0.000000    0.183000
   145  O     c     4.399693   -4.395085   -4.391067    0.000000    0.183000
   146  O     c    -4.395085    4.399693    4.391067    0.000000    0.183000
   147  O     c    -4.395085    4.399693   -4.391067    0.000000    0.183000
   148  O     c     0.014922   -4.359676    4.369963    0.000000    0.183000
   149  O     c     0.014922   -4.359676   -4.369963    0.000000    0.183000
   150  O     c    -4.359676    0.014922    4.369963    0.000000    0.183000
   151  O     c    -4.359676    0.014922   -4.369963    0.000000    0.183000
   152  Na    c     6.622791    8.907053    4.474199    0.000000    1.000000
   153  Na    c     6.622791    8.907053   -4.474199    0.000000    1.000000
   154  Na    c     8.907053    6.622791    4.474199    0.000000    1.000000
   155  Na    c     8.907053    6.622791   -4.474199    0.000000    1.000000
   156  Na    c    11.103651    4.541211    0.000000    0.000000    1.000000
   157  Na    c     4.541211   11.103651    0.000000    0.000000    1.000000
   158  Cl    c     2.208969   11.017296   -2.230351    0.000000    1.485000
   159  Cl    c     2.208969   11.017296    2.230351    0.000000    1.485000
   160  Cl    c    11.017296    2.208969   -2.230351    0.000000    1.485000
   161  Cl    c    11.017296    2.208969    2.230351    0.000000    1.485000
   162  Cl    c     6.675018    6.675018    6.608971    0.000000    1.485000
   163  Cl    c     6.675018    6.675018   -6.608971    0.000000    1.485000
   164  Na    c    11.062496   -0.176797    0.000000    0.000000    1.000000
   165  Na    c    -0.176797   11.062496    0.000000    0.000000    1.000000
   166  Na    c     2.196689    4.388890    8.882073    0.000000    1.000000
   167  Na    c     2.196689    4.388890   -8.882073    0.000000    1.000000
   168  Na    c     4.388890    2.196689    8.882073    0.000000    1.000000
   169  Na    c     4.388890    2.196689   -8.882073    0.000000    1.000000
   170  Na    c    -2.222039    8.851111    4.427357    0.000000    1.000000
   171  Na    c    -2.222039    8.851111   -4.427357    0.000000    1.000000
   172  Na    c     8.851111   -2.222039    4.427357    0.000000    1.000000
   173  Na    c     8.851111   -2.222039   -4.427357    0.000000    1.000000
   174  Cl    c     6.632844   -2.202264    6.602940    0.000000    1.485000
   175  Cl    c     6.632844   -2.202264   -6.602940    0.000000    1.485000
   176  Cl    c    -2.202264    6.632844    6.602940    0.000000    1.485000
   177  Cl    c    -2.202264    6.632844   -6.602940    0.000000    1.485000
   178  Na    c     2.201436    0.011406    8.771615    0.000000    1.000000
   179  Na    c     2.201436    0.011406   -8.771615    0.000000    1.000000
   180  Na    c     0.011406    2.201436    8.771615    0.000000    1.000000
   181  Na    c     0.011406    2.201436   -8.771615    0.000000    1.000000
   182  Na    c     6.627304   -4.429507    4.403388    0.000000    1.000000
   183  Na    c     6.627304   -4.429507   -4.403388    0.000000    1.000000
   184  Na    c    -4.429507    6.627304    4.403388    0.000000    1.000000
   185  Na    c    -4.429507    6.627304   -4.403388    0.000000    1.000000
   186  Na    c    -6.650941    4.347149    0.000000    0.000000    1.000000
   187  Na    c     4.347149   -6.650941    0.000000    0.000000    1.000000
   188  Cl    c     2.226700   -6.584372   -2.207773    0.000000    1.485000
   189  Cl    c     2.226700   -6.584372    2.207773    0.000000    1.485000
   190  Cl    c    -6.584372    2.226700   -2.207773    0.000000    1.485000
   191  Cl    c    -6.584372    2.226700    2.207773    0.000000    1.485000
   192  Cl    c    -2.191617   -2.191617    6.562415    0.000000    1.485000
   193  Cl    c    -2.191617   -2.191617   -6.562415    0.000000    1.485000
   194  Na    c    -6.680489    0.037677    0.000000    0.000000    1.000000
   195  Na    c     0.037677   -6.680489    0.000000    0.000000    1.000000
   196  Na    c    -2.185597   -4.406733    4.450378    0.000000    1.000000
   197  Na    c    -2.185597   -4.406733   -4.450378    0.000000    1.000000
   198  Na    c    -4.406733   -2.185597    4.450378    0.000000    1.000000
   199  Na    c    -4.406733   -2.185597   -4.450378    0.000000    1.000000
   200  O     c     8.810136    8.810136    0.000000    0.000000    0.183000
   201  O     c     4.419206    4.419206    8.891975    0.000000    0.183000
   202  O     c     4.419206    4.419206   -8.891975    0.000000    0.183000
   203  O     c     4.422594   -0.009700    8.836389    0.000000    0.183000
   204  O     c     4.422594   -0.009700   -8.836389    0.000000    0.183000
   205  O     c    -0.009700    4.422594    8.836389    0.000000    0.183000
   206  O     c    -0.009700    4.422594   -8.836389    0.000000    0.183000
   207  O     c     8.817652   -4.417662    0.000000    0.000000    0.183000
   208  O     c    -4.417662    8.817652    0.000000    0.000000    0.183000
   209  O     c    -0.008458   -0.008458    8.801293    0.000000    0.183000
   210  O     c    -0.008458   -0.008458   -8.801293    0.000000    0.183000
   211  O     c    -4.421006   -4.421006    0.000000    0.000000    0.183000
   212  Na    c     8.882676    8.882676   -2.204175    0.000000    1.000000
   213  Na    c     8.882676    8.882676    2.204175    0.000000    1.000000
   214  Na    c     4.417922    8.846375    6.635584    0.000000    1.000000
   215  Na    c     4.417922    8.846375   -6.635584    0.000000    1.000000
   216  Na    c     8.846375    4.417922    6.635584    0.000000    1.000000
   217  Na    c     8.846375    4.417922   -6.635584    0.000000    1.000000
   218  Na    c     8.835284   -0.021038    6.625378    0.000000    1.000000
   219  Na    c     8.835284   -0.021038   -6.625378    0.000000    1.000000
   220  Na    c    -0.021038    8.835284    6.625378    0.000000    1.000000
   221  Na    c    -0.021038    8.835284   -6.625378    0.000000    1.000000
   222  Na    c     8.835207   -4.407057   -2.211505    0.000000    1.000000
   223  Na    c     8.835207   -4.407057    2.211505    0.000000    1.000000
   224  Na    c    -4.407057    8.835207   -2.211505    0.000000    1.000000
   225  Na    c    -4.407057    8.835207    2.211505    0.000000    1.000000
   226  Na    c     4.437034   -4.417261    6.614294    0.000000    1.000000
   227  Na    c     4.437034   -4.417261   -6.614294    0.000000    1.000000
   228  Na    c    -4.417261    4.437034    6.614294    0.000000    1.000000
   229  Na    c    -4.417261    4.437034   -6.614294    0.000000    1.000000
   230  Na    c    -0.019878   -4.274047    6.591619    0.000000    1.000000
   231  Na    c    -0.019878   -4.274047   -6.591619    0.000000    1.000000
   232  Na    c    -4.274047   -0.019878    6.591619    0.000000    1.000000
   233  Na    c    -4.274047   -0.019878   -6.591619    0.000000    1.000000
   234  Na    c    -4.442448   -4.442448   -2.204637    0.000000    1.000000
   235  Na    c    -4.442448   -4.442448    2.204637    0.000000    1.000000
   236  Cl    c     6.631884   10.983857   -2.206152    0.000000    1.485000
   237  Cl    c     6.631884   10.983857    2.206152    0.000000    1.485000
   238  Cl    c    10.983857    6.631884   -2.206152    0.000000    1.485000
   239  Cl    c    10.983857    6.631884    2.206152    0.000000    1.485000
   240  Na    c    11.039647    4.393684    4.420026    0.000000    1.000000
   241  Na    c    11.039647    4.393684   -4.420026    0.000000    1.000000
   242  Na    c     4.393684   11.039647    4.420026    0.000000    1.000000
   243  Na    c     4.393684   11.039647   -4.420026    0.000000    1.000000
   244  Na    c     6.622279    4.395238    8.902320    0.000000    1.000000
   245  Na    c     6.622279    4.395238   -8.902320    0.000000    1.000000
   246  Na    c     4.395238    6.622279    8.902320    0.000000    1.000000
   247  Na    c     4.395238    6.622279   -8.902320    0.000000    1.000000
   248  Na    c    11.035225   -0.007248    4.425870    0.000000    1.000000
   249  Na    c    11.035225   -0.007248   -4.425870    0.000000    1.000000
   250  Na    c    -0.007248   11.035225    4.425870    0.000000    1.000000
   251  Na    c    -0.007248   11.035225   -4.425870    0.000000    1.000000
   252  Cl    c    11.010417   -2.185851   -2.197472    0.000000    1.485000
   253  Cl    c    11.010417   -2.185851    2.197472    0.000000    1.485000
   254  Cl    c    -2.185851   11.010417   -2.197472    0.000000    1.485000
   255  Cl    c    -2.185851   11.010417    2.197472    0.000000    1.485000
   256  Na    c     6.623465   -0.003053    8.884854    0.000000    1.000000
   257  Na    c     6.623465   -0.003053   -8.884854    0.000000    1.000000
   258  Na    c    -0.003053    6.623465    8.884854    0.000000    1.000000
   259  Na    c    -0.003053    6.623465   -8.884854    0.000000    1.000000
   260  Na    c    -2.213742    4.383741    8.860682    0.000000    1.000000
   261  Na    c    -2.213742    4.383741   -8.860682    0.000000    1.000000
   262  Na    c     4.383741   -2.213742    8.860682    0.000000    1.000000
   263  Na    c     4.383741   -2.213742   -8.860682    0.000000    1.000000
   264  Cl    c     6.601959   -6.599305   -2.201520    0.000000    1.485000
   265  Cl    c     6.601959   -6.599305    2.201520    0.000000    1.485000
   266  Cl    c    -6.599305    6.601959   -2.201520    0.000000    1.485000
   267  Cl    c    -6.599305    6.601959    2.201520    0.000000    1.485000
   268  Na    c    -6.616378    4.391995    4.422536    0.000000    1.000000
   269  Na    c    -6.616378    4.391995   -4.422536    0.000000    1.000000
   270  Na    c     4.391995   -6.616378    4.422536    0.000000    1.000000
   271  Na    c     4.391995   -6.616378   -4.422536    0.000000    1.000000
   272  Na    c    -2.199282    0.008760    8.877706    0.000000    1.000000
   273  Na    c    -2.199282    0.008760   -8.877706    0.000000    1.000000
   274  Na    c     0.008760   -2.199282    8.877706    0.000000    1.000000
   275  Na    c     0.008760   -2.199282   -8.877706    0.000000    1.000000
   276  Na    c    -6.601909    0.003414    4.470741    0.000000    1.000000
   277  Na    c    -6.601909    0.003414   -4.470741    0.000000    1.000000
   278  Na    c     0.003414   -6.601909    4.470741    0.000000    1.000000
   279  Na    c     0.003414   -6.601909   -4.470741    0.000000    1.000000
   280  Cl    c    -2.202220   -6.587770   -2.211585    0.000000    1.485000
   281  Cl    c    -2.202220   -6.587770    2.211585    0.000000    1.485000
   282  Cl    c    -6.587770   -2.202220   -2.211585    0.000000    1.485000
   283  Cl    c    -6.587770   -2.202220    2.211585    0.000000    1.485000
   284  O     c     8.813271    8.813271    4.390903    0.000000    0.183000
   285  O     c     8.813271    8.813271   -4.390903    0.000000    0.183000
   286  O     c     8.830507   -4.419053    4.413968    0.000000    0.183000
   287  O     c     8.830507   -4.419053   -4.413968    0.000000    0.183000
   288  O     c    -4.419053    8.830507    4.413968    0.000000    0.183000
   289  O     c    -4.419053    8.830507   -4.413968    0.000000    0.183000
   290  O     c    -4.386228   -4.386228    4.394001    0.000000    0.183000
   291  O     c    -4.386228   -4.386228   -4.394001    0.000000    0.183000
   292  Na    c    11.030710    8.810294    0.000000    0.000000    1.000000
   293  Na    c     8.810294   11.030710    0.000000    0.000000    1.000000
   294  Na    c     2.196076   13.212937    0.000000    0.000000    1.000000
   295  Na    c    13.212937    2.196076    0.000000    0.000000    1.000000
   296  Cl    c     2.216289   11.002792    6.591075    0.000000    1.485000
   297  Cl    c     2.216289   11.002792   -6.591075    0.000000    1.485000
   298  Cl    c    11.002792    2.216289    6.591075    0.000000    1.485000
   299  Cl    c    11.002792    2.216289   -6.591075    0.000000    1.485000
   300  Na    c     2.199644    8.816921    8.827187    0.000000    1.000000
   301  Na    c     2.199644    8.816921   -8.827187    0.000000    1.000000
   302  Na    c     8.816921    2.199644    8.827187    0.000000    1.000000
   303  Na    c     8.816921    2.199644   -8.827187    0.000000    1.000000
   304  Na    c    11.021815   -4.362238    0.000000    0.000000    1.000000
   305  Na    c    -4.362238   11.021815    0.000000    0.000000    1.000000
   306  Cl    c     2.198870    2.198870   11.010585    0.000000    1.485000
   307  Cl    c     2.198870    2.198870  -11.010585    0.000000    1.485000
   308  Na    c    -6.624901    8.911165    0.000000    0.000000    1.000000
   309  Na    c     8.911165   -6.624901    0.000000    0.000000    1.000000
   310  Na    c     2.201011   -4.427079    8.804822    0.000000    1.000000
   311  Na    c     2.201011   -4.427079   -8.804822    0.000000    1.000000
   312  Na    c    -4.427079    2.201011    8.804822    0.000000    1.000000
   313  Na    c    -4.427079    2.201011   -8.804822    0.000000    1.000000
   314  Cl    c     2.205038   -6.581758    6.578592    0.000000    1.485000
   315  Cl    c     2.205038   -6.581758   -6.578592    0.000000    1.485000
   316  Cl    c    -6.581758    2.205038    6.578592    0.000000    1.485000
   317  Cl    c    -6.581758    2.205038   -6.578592    0.000000    1.485000
   318  Na    c     2.203530   -8.885473    0.000000    0.000000    1.000000
   319  Na    c    -8.885473    2.203530    0.000000    0.000000    1.000000
   320  Na    c    -6.627981   -4.433480    0.000000    0.000000    1.000000
   321  Na    c    -4.433480   -6.627981    0.000000    0.000000    1.000000
   322  O     c     4.417915   13.247550    0.000000    0.000000    0.183000
   323  O     c    13.247550    4.417915    0.000000    0.000000    0.183000
   324  O     c     4.408696    8.813707    8.815341    0.000000    0.183000
   325  O     c     4.408696    8.813707   -8.815341    0.000000    0.183000
   326  O     c     8.813707    4.408696    8.815341    0.000000    0.183000
   327  O     c     8.813707    4.408696   -8.815341    0.000000    0.183000
   328  O     c    13.229471   -0.012081    0.000000    0.000000    0.183000
   329  O     c    -0.012081   13.229471    0.000000    0.000000    0.183000
   330  O     c     8.816616   -0.002733    8.814494    0.000000    0.183000
   331  O     c     8.816616   -0.002733   -8.814494    0.000000    0.183000
   332  O     c    -0.002733    8.816616    8.814494    0.000000    0.183000
   333  O     c    -0.002733    8.816616   -8.814494    0.000000    0.183000
   334  O     c     4.406434   -4.406006    8.808571    0.000000    0.183000
   335  O     c     4.406434   -4.406006   -8.808571    0.000000    0.183000
   336  O     c    -4.406006    4.406434    8.808571    0.000000    0.183000
   337  O     c    -4.406006    4.406434   -8.808571    0.000000    0.183000
   338  O     c     4.399939   -8.823401    0.000000    0.000000    0.183000
   339  O     c    -8.823401    4.399939    0.000000    0.000000    0.183000
   340  O     c     0.001639   -4.390875    8.801613    0.000000    0.183000
   341  O     c     0.001639   -4.390875   -8.801613    0.000000    0.183000
   342  O     c    -4.390875    0.001639    8.801613    0.000000    0.183000
   343  O     c    -4.390875    0.001639   -8.801613    0.000000    0.183000
   344  O     c     0.003826   -8.837100    0.000000    0.000000    0.183000
   345  O     c    -8.837100    0.003826    0.000000    0.000000    0.183000
   346  Na    c     8.806582    8.806582    6.621332    0.000000    1.000000
   347  Na    c     8.806582    8.806582   -6.621332    0.000000    1.000000
   348  Na    c     4.388752   13.267442   -2.209766    0.000000    1.000000
   349  Na    c     4.388752   13.267442    2.209766    0.000000    1.000000
   350  Na    c    13.267442    4.388752   -2.209766    0.000000    1.000000
   351  Na    c    13.267442    4.388752    2.209766    0.000000    1.000000
   352  Na    c    13.247677   -0.000403   -2.208416    0.000000    1.000000
   353  Na    c    13.247677   -0.000403    2.208416    0.000000    1.000000
   354  Na    c    -0.000403   13.247677   -2.208416    0.000000    1.000000
   355  Na    c    -0.000403   13.247677    2.208416    0.000000    1.000000
   356  Na    c     4.407907    4.407907   11.055904    0.000000    1.000000
   357  Na    c     4.407907    4.407907  -11.055904    0.000000    1.000000
   358  Na    c     4.384427   -0.020247   11.031337    0.000000    1.000000
   359  Na    c     4.384427   -0.020247  -11.031337    0.000000    1.000000
   360  Na    c    -0.020247    4.384427   11.031337    0.000000    1.000000
   361  Na    c    -0.020247    4.384427  -11.031337    0.000000    1.000000
   362  Na    c     8.811452   -4.422463    6.617864    0.000000    1.000000
[...]
    121 y          0.000000      0.022193     0.022193    Cartesian    0.00
    121 z         11.014756     11.017895     0.003140    Cartesian    0.03
    122 x          4.405902      4.417829     0.011927    Cartesian    0.27
    122 y         -8.811805     -8.841125    -0.029321    Cartesian    0.33
    122 z         -2.202951     -2.208166    -0.005215    Cartesian    0.24
    123 x          0.000000     -0.011092    -0.011092    Cartesian    0.00
    123 y         -8.811805     -8.843392    -0.031587    Cartesian    0.36
    123 z         -2.202951     -2.212417    -0.009466    Cartesian    0.43
    124 x         -4.405902     -4.408215    -0.002312    Cartesian    0.05
    124 y         -4.405902     -4.408215    -0.002312    Cartesian    0.05
    124 z          6.608853      6.612175     0.003321    Cartesian    0.05
    125 x          6.608853      6.623972     0.015118    Cartesian    0.23
    125 y         13.217707     13.314440     0.096733    Cartesian    0.73
    125 z          0.000000      0.000000     0.000000    Cartesian    0.00
    126 x         11.014756     11.029890     0.015134    Cartesian    0.14
    126 y          8.811805      8.840265     0.028460    Cartesian    0.32
    126 z          4.405902      4.429909     0.024007    Cartesian    0.54
    127 x          6.608853      6.602628    -0.006225    Cartesian   -0.09
    127 y         11.014756     10.994182    -0.020574    Cartesian   -0.19
    127 z          6.608853      6.578952    -0.029901    Cartesian   -0.45
    128 x          2.202951      2.199781    -0.003170    Cartesian   -0.14
    128 y         13.217707     13.252810     0.035103    Cartesian    0.27
    128 z          4.405902      4.425644     0.019741    Cartesian    0.45
    129 x          6.608853      6.615238     0.006385    Cartesian    0.10
    129 y          8.811805      8.815762     0.003957    Cartesian    0.04
    129 z          8.811805      8.840044     0.028239    Cartesian    0.32
    130 x         -2.202951     -2.217857    -0.014906    Cartesian    0.68
    130 y         13.217707     13.310508     0.092801    Cartesian    0.70
    130 z          0.000000      0.000000     0.000000    Cartesian    0.00
    131 x          2.202951      2.203655     0.000704    Cartesian    0.03
    131 y          6.608853      6.616272     0.007418    Cartesian    0.11
    131 z         11.014756     10.988143    -0.026613    Cartesian   -0.24
    132 x         11.014756     10.992045    -0.022711    Cartesian   -0.21
    132 y         -2.202951     -2.174772     0.028179    Cartesian   -1.28
    132 z          6.608853      6.585912    -0.022941    Cartesian   -0.35
    133 x         -2.202951     -2.209692    -0.006741    Cartesian    0.31
    133 y          8.811805      8.827545     0.015740    Cartesian    0.18
    133 z          8.811805      8.837295     0.025490    Cartesian    0.29
    134 x         11.014756     11.028013     0.013257    Cartesian    0.12
    134 y         -4.405902     -4.445714    -0.039812    Cartesian    0.90
    134 z          4.405902      4.428397     0.022494    Cartesian    0.51
    135 x          6.608853      6.612511     0.003657    Cartesian    0.06
    135 y         -4.405902     -4.417661    -0.011758    Cartesian    0.27
    135 z          8.811805      8.841776     0.029971    Cartesian    0.34
    136 x         -6.608853     -6.620804    -0.011950    Cartesian    0.18
    136 y          8.811805      8.834386     0.022581    Cartesian    0.26
    136 z          4.405902      4.418313     0.012411    Cartesian    0.28
    137 x          2.202951      2.203204     0.000253    Cartesian    0.01
    137 y         -2.202951     -2.192443     0.010508    Cartesian   -0.48
    137 z         11.014756     10.983777    -0.030979    Cartesian   -0.28
    138 x          6.608853      6.589393    -0.019461    Cartesian   -0.29
    138 y         -6.608853     -6.575992     0.032861    Cartesian   -0.50
    138 z          6.608853      6.586343    -0.022511    Cartesian   -0.34
    139 x          6.608853      6.614067     0.005214    Cartesian    0.08
    139 y         -8.811805     -8.832646    -0.020841    Cartesian    0.24
    139 z          0.000000      0.000000     0.000000    Cartesian    0.00
    140 x          2.202951      2.203241     0.000290    Cartesian    0.01
    140 y         -8.811805     -8.844488    -0.032683    Cartesian    0.37
    140 z          4.405902      4.411933     0.006030    Cartesian    0.14
    141 x         -2.202951     -2.203388    -0.000437    Cartesian    0.02
    141 y         -4.405902     -4.418970    -0.013068    Cartesian    0.30
    141 z          8.811805      8.828793     0.016989    Cartesian    0.19
    142 x         -2.202951     -2.186739     0.016212    Cartesian   -0.74
    142 y         -6.608853     -6.571329     0.037524    Cartesian   -0.57
    142 z          6.608853      6.572943    -0.035911    Cartesian   -0.54
    143 x         -2.202951     -2.207987    -0.005036    Cartesian    0.23
    143 y         -8.811805     -8.853571    -0.041766    Cartesian    0.47
    143 z          0.000000      0.000000     0.000000    Cartesian    0.00
    144 x         -6.608853     -6.610477    -0.001623    Cartesian    0.02
    144 y         -4.405902     -4.406324    -0.000422    Cartesian    0.01
    144 z          4.405902      4.418840     0.012938    Cartesian    0.29
    145 x          1.801600      1.801600     0.000000    Cartesian    0.00
    145 y          1.801600      1.801600     0.000000    Cartesian    0.00
    145 z          0.000000      0.000000     0.000000    Cartesian    0.00
    146 x          2.202951      2.476934     0.273983    Cartesian   12.44
    146 y          2.202951      2.476934     0.273983    Cartesian   12.44
    146 z         -2.202951     -2.916641    -0.713690    Cartesian   32.40
    147 x          4.405902      4.648267     0.242365    Cartesian    5.50
    147 y          0.000000     -0.162527    -0.162527    Cartesian    0.00
    147 z          0.000000      0.000000     0.000000    Cartesian    0.00
    148 x          2.202951      2.530392     0.327440    Cartesian   14.86
    148 y          6.608853      6.222834    -0.386020    Cartesian   -5.84
    148 z         -2.202951     -1.911934     0.291017    Cartesian  -13.21
    149 x          2.202951      1.921965    -0.280987    Cartesian  -12.76
    149 y         -2.202951     -1.920206     0.282745    Cartesian  -12.83
    149 z         -2.202951     -1.937668     0.265284    Cartesian  -12.04
    150 x          4.405902      4.498809     0.092907    Cartesian    2.11
    150 y          4.405902      4.498809     0.092907    Cartesian    2.11
    150 z          4.405902      4.665639     0.259737    Cartesian    5.90
    151 x          4.405902      4.499877     0.093975    Cartesian    2.13
    151 y          0.000000     -0.028996    -0.028996    Cartesian    0.00
    151 z          4.405902      4.471375     0.065473    Cartesian    1.49
    152 x          0.000000      0.109643     0.109643    Cartesian    0.00
    152 y          0.000000      0.109643     0.109643    Cartesian    0.00
    152 z          4.405902      4.395117    -0.010785    Cartesian   -0.24
    153 x          6.608853      6.306511    -0.302343    Cartesian   -4.57
    153 y          6.608853      6.306511    -0.302343    Cartesian   -4.57
    153 z         -2.202951     -1.867573     0.335378    Cartesian  -15.22
    154 x          2.202951      2.232781     0.029830    Cartesian    1.35
    154 y          2.202951      2.232781     0.029830    Cartesian    1.35
    154 z          6.608853      6.754637     0.145784    Cartesian    2.21
    155 x          6.608853      6.685728     0.076875    Cartesian    1.16
    155 y         -2.202951     -2.233212    -0.030260    Cartesian    1.37
    155 z         -2.202951     -2.282585    -0.079634    Cartesian    3.61
    156 x         -2.202951     -2.019481     0.183470    Cartesian   -8.33
    156 y         -2.202951     -2.019481     0.183470    Cartesian   -8.33
    156 z         -2.202951     -1.902968     0.299984    Cartesian  -13.62
    157 x          4.405902      4.399246    -0.006657    Cartesian   -0.15
    157 y          8.811805      8.961233     0.149429    Cartesian    1.70
    157 z          0.000000      0.000000     0.000000    Cartesian    0.00
    158 x          8.811805      8.873571     0.061766    Cartesian    0.70
    158 y          0.000000      0.026612     0.026612    Cartesian    0.00
    158 z          0.000000      0.000000     0.000000    Cartesian    0.00
    159 x          4.405902      4.447283     0.041380    Cartesian    0.94
    159 y         -4.405902     -4.444202    -0.038299    Cartesian    0.87
    159 z          0.000000      0.000000     0.000000    Cartesian    0.00
    160 x          0.000000      0.019770     0.019770    Cartesian    0.00
    160 y         -4.405902     -4.527966    -0.122064    Cartesian    2.77
    160 z          0.000000      0.000000     0.000000    Cartesian    0.00
    161 x          2.202951      2.182989    -0.019962    Cartesian   -0.91
    161 y          6.608853      6.669953     0.061100    Cartesian    0.92
    161 z          6.608853      6.602021    -0.006833    Cartesian   -0.10
    162 x          2.202951      2.255112     0.052161    Cartesian    2.37
    162 y         -2.202951     -2.180713     0.022238    Cartesian   -1.01
    162 z          6.608853      6.579876    -0.028978    Cartesian   -0.44
    163 x          4.405902      4.413827     0.007925    Cartesian    0.18
    163 y          8.811805      8.832074     0.020269    Cartesian    0.23
    163 z          4.405902      4.410060     0.004158    Cartesian    0.09
    164 x          8.811805      8.831123     0.019318    Cartesian    0.22
    164 y          0.000000      0.014470     0.014470    Cartesian    0.00
    164 z          4.405902      4.394734    -0.011169    Cartesian   -0.25
    165 x          4.405902      4.399690    -0.006213    Cartesian   -0.14
    165 y         -4.405902     -4.395070     0.010832    Cartesian   -0.25
    165 z          4.405902      4.391064    -0.014838    Cartesian   -0.34
    166 x          0.000000      0.014932     0.014932    Cartesian    0.00
    166 y         -4.405902     -4.359744     0.046159    Cartesian   -1.05
    166 z          4.405902      4.369928    -0.035974    Cartesian   -0.82
    167 x          2.202951      2.211389     0.008438    Cartesian    0.38
    167 y         11.014756     11.008477    -0.006278    Cartesian   -0.06
    167 z         -2.202951     -2.227031    -0.024080    Cartesian    1.09
    168 x          6.608853      6.678339     0.069486    Cartesian    1.05
    168 y          6.608853      6.678339     0.069486    Cartesian    1.05
    168 z          6.608853      6.601449    -0.007405    Cartesian   -0.11
    169 x          6.608853      6.629230     0.020376    Cartesian    0.31
    169 y         -2.202951     -2.195032     0.007919    Cartesian   -0.36
    169 z          6.608853      6.594480    -0.014373    Cartesian   -0.22
    170 x          2.202951      2.227922     0.024971    Cartesian    1.13
    170 y         -6.608853     -6.577359     0.031495    Cartesian   -0.48
    170 z         -2.202951     -2.205323    -0.002372    Cartesian    0.11
    171 x         -2.202951     -2.191265     0.011687    Cartesian   -0.53
    171 y         -2.202951     -2.191265     0.011687    Cartesian   -0.53
    171 z          6.608853      6.561600    -0.047253    Cartesian   -0.71
    172 x          8.811805      8.810136    -0.001668    Cartesian   -0.02
    172 y          8.811805      8.810136    -0.001668    Cartesian   -0.02
    172 z          0.000000      0.000000     0.000000    Cartesian    0.00
    173 x          4.405902      4.419225     0.013323    Cartesian    0.30
    173 y          4.405902      4.419225     0.013323    Cartesian    0.30
    173 z          8.811805      8.891927     0.080122    Cartesian    0.91
    174 x          4.405902      4.422620     0.016718    Cartesian    0.38
    174 y          0.000000     -0.009714    -0.009714    Cartesian    0.00
    174 z          8.811805      8.836364     0.024560    Cartesian    0.28
    175 x          8.811805      8.817622     0.005817    Cartesian    0.07
    175 y         -4.405902     -4.417692    -0.011789    Cartesian    0.27
    175 z          0.000000      0.000000     0.000000    Cartesian    0.00
    176 x          0.000000     -0.008484    -0.008484    Cartesian    0.00
    176 y          0.000000     -0.008484    -0.008484    Cartesian    0.00
    176 z          8.811805      8.801311    -0.010494    Cartesian   -0.12
    177 x         -4.405902     -4.421024    -0.015121    Cartesian    0.34
    177 y         -4.405902     -4.421024    -0.015121    Cartesian    0.34
    177 z          0.000000      0.000000     0.000000    Cartesian    0.00
    178 x          6.608853      6.631159     0.022306    Cartesian    0.34
    178 y         11.014756     10.977181    -0.037574    Cartesian   -0.34
    178 z         -2.202951     -2.204133    -0.001182    Cartesian    0.05
    179 x         11.014756     11.005451    -0.009305    Cartesian   -0.08
    179 y         -2.202951     -2.177326     0.025625    Cartesian   -1.16
    179 z         -2.202951     -2.195002     0.007950    Cartesian   -0.36
    180 x          6.608853      6.597931    -0.010923    Cartesian   -0.17
    180 y         -6.608853     -6.590711     0.018143    Cartesian   -0.27
    180 z         -2.202951     -2.198186     0.004765    Cartesian   -0.22
    181 x         -2.202951     -2.200189     0.002763    Cartesian   -0.13
    181 y         -6.608853     -6.581724     0.027129    Cartesian   -0.41
    181 z         -2.202951     -2.210620    -0.007669    Cartesian    0.35
    182 x          8.811805      8.813278     0.001473    Cartesian    0.02
    182 y          8.811805      8.813278     0.001473    Cartesian    0.02
    182 z          4.405902      4.390899    -0.015003    Cartesian   -0.34
    183 x          8.811805      8.830516     0.018711    Cartesian    0.21
    183 y         -4.405902     -4.419053    -0.013150    Cartesian    0.30
    183 z          4.405902      4.413970     0.008068    Cartesian    0.18
    184 x         -4.405902     -4.386222     0.019680    Cartesian   -0.45
    184 y         -4.405902     -4.386222     0.019680    Cartesian   -0.45
    184 z          4.405902      4.393997    -0.011906    Cartesian   -0.27
    185 x          2.202951      2.218291     0.015339    Cartesian    0.70
    185 y         11.014756     10.997948    -0.016808    Cartesian   -0.15
    185 z          6.608853      6.585451    -0.023402    Cartesian   -0.35
    186 x          2.202951      2.199644    -0.003307    Cartesian   -0.15
    186 y          2.202951      2.199644    -0.003307    Cartesian   -0.15
    186 z         11.014756     11.008072    -0.006684    Cartesian   -0.06
    187 x          2.202951      2.206556     0.003604    Cartesian    0.16
    187 y         -6.608853     -6.578441     0.030413    Cartesian   -0.46
    187 z          6.608853      6.572668    -0.036185    Cartesian   -0.55
    188 x          4.405902      4.417946     0.012044    Cartesian    0.27
    188 y         13.217707     13.247530     0.029823    Cartesian    0.23
    188 z          0.000000      0.000000     0.000000    Cartesian    0.00
    189 x          4.405902      4.408697     0.002795    Cartesian    0.06
    189 y          8.811805      8.813705     0.001900    Cartesian    0.02
    189 z          8.811805      8.815339     0.003534    Cartesian    0.04
    190 x         13.217707     13.229467     0.011761    Cartesian    0.09
    190 y          0.000000     -0.012109    -0.012109    Cartesian    0.00
    190 z          0.000000      0.000000     0.000000    Cartesian    0.00
    191 x          8.811805      8.816616     0.004812    Cartesian    0.05
    191 y          0.000000     -0.002730    -0.002730    Cartesian    0.00
    191 z          8.811805      8.814499     0.002695    Cartesian    0.03
    192 x          4.405902      4.406434     0.000532    Cartesian    0.01
    192 y         -4.405902     -4.406003    -0.000100    Cartesian    0.00
    192 z          8.811805      8.808573    -0.003232    Cartesian   -0.04
    193 x          4.405902      4.399916    -0.005986    Cartesian   -0.14
    193 y         -8.811805     -8.823397    -0.011593    Cartesian    0.13
    193 z          0.000000      0.000000     0.000000    Cartesian    0.00
    194 x          0.000000      0.001643     0.001643    Cartesian    0.00
    194 y         -4.405902     -4.390839     0.015063    Cartesian   -0.34
    194 z          8.811805      8.801635    -0.010170    Cartesian   -0.12
    195 x          0.000000      0.003841     0.003841    Cartesian    0.00
    195 y         -8.811805     -8.837087    -0.025282    Cartesian    0.29
    195 z          0.000000      0.000000     0.000000    Cartesian    0.00
    196 x          6.608853      6.601039    -0.007814    Cartesian   -0.12
    196 y         11.014756     10.987999    -0.026757    Cartesian   -0.24
    196 z          6.608853      6.571953    -0.036901    Cartesian   -0.56
    197 x          2.202951      2.205042     0.002090    Cartesian    0.09
    197 y          6.608853      6.616945     0.008092    Cartesian    0.12
    197 z         11.014756     10.981544    -0.033212    Cartesian   -0.30
    198 x         11.014756     10.988199    -0.026557    Cartesian   -0.24
    198 y         -2.202951     -2.169967     0.032984    Cartesian   -1.50
    198 z          6.608853      6.582095    -0.026759    Cartesian   -0.40
    199 x          2.202951      2.203907     0.000956    Cartesian    0.04
    199 y         -2.202951     -2.191000     0.011951    Cartesian   -0.54
    199 z         11.014756     10.979235    -0.035521    Cartesian   -0.32
    200 x          6.608853      6.586670    -0.022184    Cartesian   -0.34
    200 y         -6.608853     -6.571396     0.037458    Cartesian   -0.57
    200 z          6.608853      6.583512    -0.025341    Cartesian   -0.38
    201 x         -2.202951     -2.185923     0.017028    Cartesian   -0.77
    201 y         -6.608853     -6.568043     0.040810    Cartesian   -0.62
    201 z          6.608853      6.566859    -0.041994    Cartesian   -0.64
--------------------------------------------------------------------------------


  Time to end of optimisation  =       58.5483 seconds


  Peak dynamic memory used =      90.31 MB 


  Timing analysis for GULP :

--------------------------------------------------------------------------------
  Task / Subroutine                                          Time (Seconds)
--------------------------------------------------------------------------------
  Calculation of reciprocal space energy and derivatives          0.0006
  Calculation of reciprocal space energy using symmetry           0.0011
  Calculation of real space energy and derivatives                0.0036
  Calculation of real space energy using symmetry                 0.0114
  Calculation for region 1 energy and derivatives (2-b)          31.2757
  Calculation for region 2a energy                               22.6230
  Calculation for region 2b energy                                0.0135
  Calculation and manipulation of Hessian matrix                  4.1489
  Calculation of matrix inversion                                 0.3112
  Symmetry generation of equivalent positions                     0.0042
--------------------------------------------------------------------------------
  Total CPU time                                                 58.5484
--------------------------------------------------------------------------------


  Dump file written as Na3OCl.grs


  Job Finished at 15:16.02 19th January    2021                               

