********************************************************************************
*                       GENERAL UTILITY LATTICE PROGRAM                        *
*                                 Julian Gale                                  *
*                       Curtin Institute for Computation                       *
*                    School of Molecular and Life Sciences                     *
*                    Curtin University, Western Australia                      *
********************************************************************************
* Version = 5.2.0 * Last modified =  10th September 2020                       *
********************************************************************************
*  optimise     - perform optimisation run                                     *
*  conp         - constant pressure calculation                                *
*  property     - calculate properties for final geometry                      *
*  defect       - perform defect calculation after bulk run                    *
*  compare      - compare initial and final structures                         *
********************************************************************************

  Job Started  at 15:15.05 19th January    2021                               

  Number of CPUs =     1


  Total number of configurations input =      1

********************************************************************************
*  Input for Configuration =   1                                               *
********************************************************************************

  Formula = OClNa3                                                      

  Number of irreducible atoms/shells =       5


  Total number atoms/shells =       7

  Dimensionality = 3               :  Bulk   


  Symmetry :

  Crystal family                   :  Cubic       
  Crystal class  (Groth - 1921)    :  Cubic Hexakisoctahedral              

  Space group (centrosymmetric)    :  P M 3 M         

  Patterson group                  :  P m -3 m 

  Cartesian lattice vectors (Angstroms) :

        4.504000    0.000000    0.000000
        0.000000    4.504000    0.000000
        0.000000    0.000000    4.504000

  Cell parameters (Angstroms/Degrees):

  a =       4.5040    alpha =  90.0000
  b =       4.5040    beta  =  90.0000
  c =       4.5040    gamma =  90.0000

  Initial cell volume =          91.368216 Angs**3

  Temperature of configuration =   0.00     K 

  Pressure of configuration =         0.000 GPa 

  Fractional coordinates of asymmetric unit :

--------------------------------------------------------------------------------
   No.  Atomic       x           y          z         Charge      Occupancy
        Label      (Frac)      (Frac)     (Frac)        (e)         (Frac)  
--------------------------------------------------------------------------------
      1 O     c    0.000000    0.000000    0.000000     0.18300    1.000000    
      2 Cl    c    0.500000    0.500000    0.500000     1.48500    1.000000    
      3 Na    c    0.500000    0.000000    0.000000     1.00000    1.000000    
      4 O     s    0.000000    0.000000    0.000000    -2.18300    1.000000    
      5 Cl    s    0.500000    0.500000    0.500000    -2.48500    1.000000    
--------------------------------------------------------------------------------


  Constraints : 

--------------------------------------------------------------------------------
  Constraint no.      Unconstrained     Constrained    Coefficient    Offset
                         Variable         Variable
--------------------------------------------------------------------------------
           1              Strain 1        Strain 2       1.00000      0.0000
           2              Strain 1        Strain 3       1.00000      0.0000
--------------------------------------------------------------------------------


********************************************************************************
*  General input information                                                   *
********************************************************************************

  Species output for all configurations : 

--------------------------------------------------------------------------------
  Species    Type    Atomic    Atomic    Charge       Radii (Angs)     Library
                     Number     Mass       (e)     Cova   Ionic  VDW   Symbol
--------------------------------------------------------------------------------
    Na       Core       11      22.99   1.000000   0.970  0.000  2.300          
    O        Core        8      16.00   0.183000   0.730  0.000  1.360          
    O        Shell       8       0.00  -2.183000   0.730  0.000  1.360          
    Cl       Core       17      35.45   1.485000   0.990  0.000  1.650          
    Cl       Shell      17       0.00  -2.485000   0.990  0.000  1.650          
    Mg       Core       12      24.31   0.415000   1.100  0.000  0.000          
    Mg       Shell      12       0.00   1.585000   1.100  0.000  0.000          
    Ca       Core       20      40.08  -1.135000   0.990  0.000  0.000          
    Ca       Shell      20       0.00   3.135000   0.990  0.000  0.000          
    Sr       Core       38      87.62  -1.251000   1.120  0.000  0.000          
    Sr       Shell      38       0.00   3.251000   1.120  0.000  0.000          
    Ba       Core       56     137.33  -7.203000   1.340  0.000  0.000          
    Ba       Shell      56       0.00   9.203000   1.340  0.000  0.000          
--------------------------------------------------------------------------------


  Lattice summation method               =    Ewald          (3-D)
                                         =    Parry          (2-D)
                                         =    Saunders et al (1-D)
  Accuracy factor for lattice sums       =   12.000


  Analytic derivatives to be used

  Time limit = Infinity

  Maximum range for interatomic potentials =    100000.000000 Angstroms

  General interatomic potentials :

--------------------------------------------------------------------------------
Atom  Types   Potential      Parameter       Value         Units   Cutoffs(Ang)
  1     2                                                            Min /  Max 
--------------------------------------------------------------------------------
O    c O    s Spring (c-s)  Spring k 2       593.71600    eV*Ang^-2 0.000  0.800
                            Spring k 4       0.0000000    eV*Ang^-4 
--------------------------------------------------------------------------------
Cl   c Cl   s Spring (c-s)  Spring k 2       29.380000    eV*Ang^-2 0.000  0.800
                            Spring k 4       0.0000000    eV*Ang^-4 
--------------------------------------------------------------------------------
Mg   c Mg   s Spring (c-s)  Spring k 2       361.60000    eV*Ang^-2 0.000  0.800
                            Spring k 4       0.0000000    eV*Ang^-4 
--------------------------------------------------------------------------------
Ca   c Ca   s Spring (c-s)  Spring k 2       110.20000    eV*Ang^-2 0.000  0.800
                            Spring k 4       0.0000000    eV*Ang^-4 
--------------------------------------------------------------------------------
Sr   c Sr   s Spring (c-s)  Spring k 2       71.700000    eV*Ang^-2 0.000  0.800
                            Spring k 4       0.0000000    eV*Ang^-4 
--------------------------------------------------------------------------------
Ba   c Ba   s Spring (c-s)  Spring k 2       495.20000    eV*Ang^-2 0.000  0.800
                            Spring k 4       0.0000000    eV*Ang^-4 
--------------------------------------------------------------------------------
Na   c Na   c Buckingham    Buckingham A     1788.1900    eV        0.000 12.000
                            Buckingham rho  0.15900000    Ang       
                            Buckingham C     0.0000000    eV*Ang^6  
--------------------------------------------------------------------------------
Na   c O    s Buckingham    Buckingham A     588.38000    eV        0.000 12.000
                            Buckingham rho  0.33800000    Ang       
                            Buckingham C     0.0000000    eV*Ang^6  
--------------------------------------------------------------------------------
Na   c Cl   s Buckingham    Buckingham A     1170.4100    eV        0.000 12.000
                            Buckingham rho  0.31500000    Ang       
                            Buckingham C     0.0000000    eV*Ang^6  
--------------------------------------------------------------------------------
O    s O    s Buckingham    Buckingham A     22764.300    eV        0.000 12.000
                            Buckingham rho  0.14900000    Ang       
                            Buckingham C     13.190000    eV*Ang^6  
--------------------------------------------------------------------------------
O    s Cl   s Buckingham    Buckingham A     8286.9100    eV        0.000 12.000
                            Buckingham rho  0.25900000    Ang       
                            Buckingham C     62.200000    eV*Ang^6  
--------------------------------------------------------------------------------
Cl   s Cl   s Buckingham    Buckingham A     1227.2000    eV        0.000 12.000
                            Buckingham rho  0.32100000    Ang       
                            Buckingham C     14.530000    eV*Ang^6  
--------------------------------------------------------------------------------
O    s Mg   s Buckingham    Buckingham A     1428.5000    eV        0.000 12.000
                            Buckingham rho  0.29450000    Ang       
                            Buckingham C     0.0000000    eV*Ang^6  
--------------------------------------------------------------------------------
Mg   s Cl   s Buckingham    Buckingham A     4914.5400    eV        0.000 12.000
                            Buckingham rho  0.25700000    Ang       
                            Buckingham C     0.0000000    eV*Ang^6  
--------------------------------------------------------------------------------
O    s Ca   s Buckingham    Buckingham A     1090.4000    eV        0.000 12.000
                            Buckingham rho  0.34370000    Ang       
                            Buckingham C     0.0000000    eV*Ang^6  
--------------------------------------------------------------------------------
Cl   s Ca   s Buckingham    Buckingham A     2302.0000    eV        0.000 12.000
                            Buckingham rho  0.34020000    Ang       
                            Buckingham C     0.0000000    eV*Ang^6  
--------------------------------------------------------------------------------
O    s Sr   s Buckingham    Buckingham A     959.10000    eV        0.000 12.000
                            Buckingham rho  0.37210000    Ang       
                            Buckingham C     0.0000000    eV*Ang^6  
--------------------------------------------------------------------------------
Cl   s Sr   s Buckingham    Buckingham A     2191.0900    eV        0.000 12.000
                            Buckingham rho  0.34570000    Ang       
                            Buckingham C     0.0000000    eV*Ang^6  
--------------------------------------------------------------------------------
O    s Ba   s Buckingham    Buckingham A     905.70000    eV        0.000 12.000
                            Buckingham rho  0.39760000    Ang       
                            Buckingham C     0.0000000    eV*Ang^6  
--------------------------------------------------------------------------------
Cl   s Ba   s Buckingham    Buckingham A     2704.5500    eV        0.000 12.000
                            Buckingham rho  0.35280000    Ang       
                            Buckingham C     0.0000000    eV*Ang^6  
--------------------------------------------------------------------------------

********************************************************************************
*  Output for configuration   1                                                *
********************************************************************************


  Components of energy : 

--------------------------------------------------------------------------------
  Interatomic potentials     =           4.94315381 eV    
  Monopole - monopole (real) =         -10.03624526 eV    
  Monopole - monopole (recip)=         -29.53581274 eV    
  Monopole - monopole (total)=         -39.57205800 eV    
--------------------------------------------------------------------------------
  Total lattice energy       =         -34.62890419 eV    
--------------------------------------------------------------------------------
  Total lattice energy       =           -3341.1599 kJ/(mole unit cells)
--------------------------------------------------------------------------------


  Number of variables =        1

  Maximum number of calculations  =          1000
  Maximum Hessian update interval =            10
  Maximum step size               =   1.000000000
  Maximum parameter tolerance     =   0.000010000
  Maximum function  tolerance     =   0.000010000
  Maximum gradient  tolerance     =   0.001000000
  Maximum gradient  component     =   0.010000000

  Symmetry constrained optimisation

  Symmetry used for second derivatives

  Cell parameters to be optimised using strains

  Newton-Raphson optimiser to be used

  BFGS hessian update to be used

  Lower half triangular hessian to be used

  Start of bulk optimisation :

  Cycle:      0 Energy:       -34.628904  Gnorm:      4.328237  CPU:    0.015
  ** Hessian calculated **
  Cycle:      1 Energy:       -34.677667  Gnorm:      0.044008  CPU:    0.018
  Cycle:      2 Energy:       -34.677671  Gnorm:      0.003653  CPU:    0.021


  **** Optimisation achieved ****


  Final energy =     -34.67767136 eV
  Final Gnorm  =       0.00000010

  Components of energy : 

--------------------------------------------------------------------------------
  Interatomic potentials     =           5.77546103 eV    
  Monopole - monopole (real) =         -10.25970290 eV    
  Monopole - monopole (recip)=         -30.19342950 eV    
  Monopole - monopole (total)=         -40.45313239 eV    
--------------------------------------------------------------------------------
  Total lattice energy       =         -34.67767136 eV    
--------------------------------------------------------------------------------
  Total lattice energy       =           -3345.8652 kJ/(mole unit cells)
--------------------------------------------------------------------------------

  Final asymmetric unit coordinates :

--------------------------------------------------------------------------------
   No.  Atomic        x           y           z         Radius
        Label       (Frac)      (Frac)      (Frac)       (Angs) 
--------------------------------------------------------------------------------
     1  O     c     0.000000    0.000000    0.000000    0.000000
     2  Cl    c     0.500000    0.500000    0.500000    0.000000
     3  Na    c     0.500000    0.000000    0.000000    0.000000
     4  O     s     0.000000    0.000000    0.000000    0.000000
     5  Cl    s     0.500000    0.500000    0.500000    0.000000
--------------------------------------------------------------------------------

  Final Cartesian lattice vectors (Angstroms) :

        4.405902    0.000000    0.000000
        0.000000    4.405902    0.000000
        0.000000    0.000000    4.405902


  Final cell parameters and derivatives :

--------------------------------------------------------------------------------
       a            4.405902 Angstrom     dE/de1(xx)     0.000000 eV/strain
       b            4.405902 Angstrom     dE/de2(yy)     0.000000 eV/strain
       c            4.405902 Angstrom     dE/de3(zz)     0.000000 eV/strain
       alpha       90.000000 Degrees      dE/de4(yz)     0.000000 eV/strain
       beta        90.000000 Degrees      dE/de5(xz)     0.000000 eV/strain
       gamma       90.000000 Degrees      dE/de6(xy)     0.000000 eV/strain
--------------------------------------------------------------------------------

  Primitive cell volume =            85.527266 Angs**3

  Density of cell =      2.338030 g/cm**3

  Non-primitive cell volume =            85.527266 Angs**3


  Final internal derivatives :

--------------------------------------------------------------------------------
   No.  Atomic          a             b             c           Radius
        Label          (eV)          (eV)          (eV)        (eV/Angs)
--------------------------------------------------------------------------------
      1 O     c       0.000000      0.000000      0.000000      0.000000
      2 Cl    c       0.000000      0.000000      0.000000      0.000000
      3 Na    c       0.000000      0.000000      0.000000      0.000000
      4 O     s       0.000000      0.000000      0.000000      0.000000
      5 Cl    s       0.000000      0.000000      0.000000      0.000000
--------------------------------------------------------------------------------
  Maximum abs         0.000000      0.000000      0.000000      0.000000
--------------------------------------------------------------------------------

  Comparison of initial and final structures : 

--------------------------------------------------------------------------------
  Parameter   Initial value   Final value   Difference    Units      Percent
--------------------------------------------------------------------------------
    Volume        91.368216     85.527266    -5.840950    Angs**3     -6.39
    a              4.504000      4.405902    -0.098098    Angstroms   -2.18
    b              4.504000      4.405902    -0.098098    Angstroms   -2.18
    c              4.504000      4.405902    -0.098098    Angstroms   -2.18
    alpha         90.000000     90.000000     0.000000    Degrees      0.00
    beta          90.000000     90.000000     0.000000    Degrees      0.00
    gamma         90.000000     90.000000     0.000000    Degrees      0.00
      1 x          0.000000      0.000000     0.000000    Fractional   0.00
      1 y          0.000000      0.000000     0.000000    Fractional   0.00
      1 z          0.000000      0.000000     0.000000    Fractional   0.00
      2 x          0.500000      0.500000     0.000000    Fractional   0.00
      2 y          0.500000      0.500000     0.000000    Fractional   0.00
      2 z          0.500000      0.500000     0.000000    Fractional   0.00
      3 x          0.500000      0.500000     0.000000    Fractional   0.00
      3 y          0.000000      0.000000     0.000000    Fractional   0.00
      3 z          0.000000      0.000000     0.000000    Fractional   0.00
      4 x          0.000000      0.000000     0.000000    Fractional   0.00
      4 y          0.000000      0.000000     0.000000    Fractional   0.00
      4 z          0.000000      0.000000     0.000000    Fractional   0.00
      5 x          0.500000      0.500000     0.000000    Fractional   0.00
      5 y          0.500000      0.500000     0.000000    Fractional   0.00
      5 z          0.500000      0.500000     0.000000    Fractional   0.00
--------------------------------------------------------------------------------


  Born effective charge tensors : 

-------------------------------------------------------------------------------
  Atom             x           y             z
-------------------------------------------------------------------------------
    1 O     x      -2.2939      0.0000      0.0000
            y       0.0000     -2.2939      0.0000
            z       0.0000      0.0000     -2.2939
-------------------------------------------------------------------------------
    2 Cl    x      -0.9918     -0.0000      0.0000
            y      -0.0000     -0.9918      0.0000
            z       0.0000      0.0000     -0.9918
-------------------------------------------------------------------------------
    3 Na    x       0.8372     -0.0000     -0.0000
            y      -0.0000      1.2243     -0.0000
            z       0.0000     -0.0000      1.2243
-------------------------------------------------------------------------------




  Elastic Constant Matrix: (Units=GPa)

-------------------------------------------------------------------------------
  Indices      1         2         3         4         5         6    
-------------------------------------------------------------------------------
       1     82.7680   24.3534   24.3534   -0.0000    0.0000   -0.0000
       2     24.3534   82.7680   24.3534   -0.0000   -0.0000   -0.0000
       3     24.3534   24.3534   82.7680    0.0000   -0.0000    0.0000
       4     -0.0000   -0.0000    0.0000   24.3534   -0.0000   -0.0000
       5      0.0000   -0.0000   -0.0000   -0.0000   24.3534   -0.0000
       6     -0.0000   -0.0000    0.0000   -0.0000   -0.0000   24.3534
-------------------------------------------------------------------------------


  Elastic Compliance Matrix: (Units=1/GPa)

-------------------------------------------------------------------------------
  Indices      1         2         3         4         5         6    
-------------------------------------------------------------------------------
       1    0.013948 -0.003171 -0.003171 -0.000000 -0.000000  0.000000
       2   -0.003171  0.013948 -0.003171  0.000000 -0.000000  0.000000
       3   -0.003171 -0.003171  0.013948 -0.000000  0.000000 -0.000000
       4   -0.000000  0.000000 -0.000000  0.041062  0.000000  0.000000
       5   -0.000000 -0.000000  0.000000  0.000000  0.041062  0.000000
       6    0.000000  0.000000 -0.000000  0.000000  0.000000  0.041062
-------------------------------------------------------------------------------

  Mechanical properties :

-------------------------------------------------------------------------------
  Convention :                    Reuss         Voigt         Hill
-------------------------------------------------------------------------------
  Bulk  Modulus (GPa)     =      43.82493      43.82493      43.82493
  Shear Modulus (GPa)     =      26.08758      26.29496      26.19127
-------------------------------------------------------------------------------
  Velocity S-wave (km/s)  =       3.34035       3.35360       3.34698
  Velocity P-wave (km/s)  =       5.79842       5.80861       5.80351
-------------------------------------------------------------------------------
  Compressibility (1/GPa) =    0.02281806
-------------------------------------------------------------------------------
  Stress axis :                     x             y             z
-------------------------------------------------------------------------------
  Youngs Moduli (GPa)     =      71.69479      71.69479      71.69479
-------------------------------------------------------------------------------
  Poissons Ratio (x)      =                     0.22734       0.22734
  Poissons Ratio (y)      =       0.22734                     0.22734
  Poissons Ratio (z)      =       0.22734       0.22734
-------------------------------------------------------------------------------


  Piezoelectric Strain Matrix: (Units=C/m**2)

-------------------------------------------------------------------------------
  Indices      1         2         3         4         5         6    
-------------------------------------------------------------------------------
       x    -0.00000  -0.00000  -0.00000  -0.00000   0.00000   0.00000
       y    -0.00000   0.00000  -0.00000   0.00000  -0.00000   0.00000
       z     0.00000   0.00000   0.00000  -0.00000   0.00000  -0.00000
-------------------------------------------------------------------------------


  Piezoelectric Stress Matrix: (Units=10**-11 C/N)

-------------------------------------------------------------------------------
  Indices      1         2         3         4         5         6    
-------------------------------------------------------------------------------
       x    -0.00000  -0.00000  -0.00000  -0.00000   0.00000   0.00000
       y    -0.00000   0.00000  -0.00000   0.00000  -0.00000   0.00000
       z     0.00000   0.00000  -0.00000  -0.00000   0.00000  -0.00000
-------------------------------------------------------------------------------


  Static dielectric constant tensor : 

-------------------------------------------------------------------------------
              x         y         z
-------------------------------------------------------------------------------
       x    11.08357  -0.00000  -0.00000
       y    -0.00000  11.08357  -0.00000
       z    -0.00000  -0.00000  11.08357
--------------------------------------------------------------------------------

  High frequency dielectric constant tensor : 

-------------------------------------------------------------------------------
              x         y         z
-------------------------------------------------------------------------------
       x     1.50771  -0.00000  -0.00000
       y    -0.00000   1.50771  -0.00000
       z    -0.00000  -0.00000   1.50771
-------------------------------------------------------------------------------

  Static refractive indices : 

-------------------------------------------------------------------------------
    1 =    3.32920      2 =    3.32920      3 =    3.32920
-------------------------------------------------------------------------------

  High frequency refractive indices : 

-------------------------------------------------------------------------------
    1 =    1.22789      2 =    1.22789      3 =    1.22789
-------------------------------------------------------------------------------


  Time to end of optimisation =       0.0305 seconds

********************************************************************************
*  Defect calculation for configuration   1 :                                  *
********************************************************************************

  Total number of defects =      3

  Total charge on defect  =   2.00

  Defect centre is at   2.2520   2.2520   0.0000  Angs

  Region 1 radius =  12.0000      Number of ions =    622

  Number of symmetry inequivalent region 1 ions  =    201

  Region 2 radius =  16.0000      Number of ions =    762

  Number of symmetry inequivalent region 2a ions =    224

  Region 2a mode = 4 : screened electrostatics due to region 1 
                       neglect correction to region 1 forces from 2a
                       region 2a displacements based on defects only

  Region 2a ions will only interact with defects in region 1

  Vacancies:

--------------------------------------------------------------------------------
    Specification type     Symbol/Number         x          y          z
--------------------------------------------------------------------------------
    Cartesian                                0.000000   0.000000   0.000000
    Cartesian                                4.504000   4.504000   0.000000
--------------------------------------------------------------------------------

  Interstitials:

--------------------------------------------------------------------------------
    Specification type     Symbol/Number         x          y          z
--------------------------------------------------------------------------------
    Atom/Cartesian          O                1.891680   1.891680   0.000000
--------------------------------------------------------------------------------


  Symmetry reduced region 1 (Relative to defect centre) :

--------------------------------------------------------------------------------
   No.   Atomic       x            y             z       Radius  Multiplicity   
         Label      (Angs)       (Angs)        (Angs)    (Angs)     
--------------------------------------------------------------------------------
     1  O     c     -0.3603      -0.3603       0.0000    0.0000     1    Defect
     2  Na    c     -0.0490 *     2.1539 *     0.0000    0.0000     2          
     3  Cl    c     -0.0490 *    -0.0490      -2.2030 *  0.0000     2          
     4  Na    c     -0.0490 *    -2.2520 *     0.0000    0.0000     2          
     5  O     c      2.1539 *    -2.2520 *     0.0000    0.0000     2          
     6  Na    c      2.1539 *     2.1539      -2.2030 *  0.0000     2          
     7  Na    c      2.1539 *    -2.2520 *    -2.2030 *  0.0000     4          
     8  Na    c     -2.2520 *    -2.2520      -2.2030 *  0.0000     2          
     9  Na    c      4.3569 *     2.1539 *     0.0000    0.0000     2          
    10  Cl    c     -0.0490 *     4.3569 *    -2.2030 *  0.0000     4          
    11  Na    c     -0.0490 *     2.1539 *     4.4059 *  0.0000     4          
    12  Na    c      4.3569 *    -2.2520 *     0.0000    0.0000     2          
    13  Na    c     -0.0490 *    -2.2520 *     4.4059 *  0.0000     4          
    14  Na    c     -4.4550 *     2.1539 *     0.0000    0.0000     2          
    15  Cl    c     -0.0490 *    -4.4550 *    -2.2030 *  0.0000     4          
    16  Na    c     -4.4550 *    -2.2520 *     0.0000    0.0000     2          
    17  O     c      2.1539 *     2.1539       4.4059 *  0.0000     2          
    18  O     c      2.1539 *    -2.2520 *     4.4059 *  0.0000     4          
    19  O     c     -2.2520 *    -2.2520       4.4059 *  0.0000     2          
    20  Cl    c      4.3569 *     4.3569      -2.2030 *  0.0000     2          
    21  Na    c     -0.0490 *     6.5598 *     0.0000    0.0000     2          
    22  Na    c      4.3569 *     2.1539 *     4.4059 *  0.0000     4          
    23  Na    c      4.3569 *    -2.2520 *     4.4059 *  0.0000     4          
    24  Cl    c     -0.0490 *    -0.0490       6.6089 *  0.0000     2          
    25  Cl    c      4.3569 *    -4.4550 *    -2.2030 *  0.0000     4          
    26  Na    c     -4.4550 *     2.1539 *     4.4059 *  0.0000     4          
    27  Na    c     -0.0490 *    -6.6579 *     0.0000    0.0000     2          
    28  Na    c     -4.4550 *    -2.2520 *     4.4059 *  0.0000     4          
    29  Cl    c     -4.4550 *    -4.4550      -2.2030 *  0.0000     2          
    30  O     c      2.1539 *     6.5598 *     0.0000    0.0000     2          
    31  O     c      6.5598 *    -2.2520 *     0.0000    0.0000     2          
    32  O     c      2.1539 *    -6.6579 *     0.0000    0.0000     2          
    33  O     c     -2.2520 *    -6.6579 *     0.0000    0.0000     2          
    34  Na    c      2.1539 *     6.5598 *    -2.2030 *  0.0000     4          
    35  Na    c      2.1539 *     2.1539       6.6089 *  0.0000     2          
    36  Na    c      6.5598 *    -2.2520 *    -2.2030 *  0.0000     4          
    37  Na    c      2.1539 *    -2.2520 *     6.6089 *  0.0000     4          
    38  Na    c      2.1539 *    -6.6579 *    -2.2030 *  0.0000     4          
    39  Na    c     -2.2520 *    -2.2520       6.6089 *  0.0000     2          
    40  Na    c     -2.2520 *    -6.6579 *    -2.2030 *  0.0000     4          
    41  Na    c      4.3569 *     6.5598 *     0.0000    0.0000     2          
    42  Na    c     -0.0490 *     6.5598 *     4.4059 *  0.0000     4          
    43  Cl    c     -0.0490 *     4.3569 *     6.6089 *  0.0000     4          
    44  Na    c     -4.4550 *     6.5598 *     0.0000    0.0000     2          
    45  Na    c      4.3569 *    -6.6579 *     0.0000    0.0000     2          
    46  Cl    c     -0.0490 *    -4.4550 *     6.6089 *  0.0000     4          
    47  Na    c     -0.0490 *    -6.6579 *     4.4059 *  0.0000     4          
    48  Na    c     -4.4550 *    -6.6579 *     0.0000    0.0000     2          
    49  O     c      2.1539 *     6.5598 *     4.4059 *  0.0000     4          
    50  O     c      6.5598 *    -2.2520 *     4.4059 *  0.0000     4          
    51  O     c      2.1539 *    -6.6579 *     4.4059 *  0.0000     4          
    52  O     c     -2.2520 *    -6.6579 *     4.4059 *  0.0000     4          
    53  Na    c      4.3569 *     6.5598 *     4.4059 *  0.0000     4          
    54  Na    c      8.7628 *     2.1539 *     0.0000    0.0000     2          
    55  Cl    c     -0.0490 *     8.7628 *    -2.2030 *  0.0000     4          
    56  Cl    c      4.3569 *     4.3569       6.6089 *  0.0000     2          
    57  Na    c      8.7628 *    -2.2520 *     0.0000    0.0000     2          
    58  Na    c     -0.0490 *     2.1539 *     8.8118 *  0.0000     4          
    59  Na    c     -4.4550 *     6.5598 *     4.4059 *  0.0000     4          
    60  Cl    c      4.3569 *    -4.4550 *     6.6089 *  0.0000     4          
    61  Na    c     -0.0490 *    -2.2520 *     8.8118 *  0.0000     4          
    62  Na    c      4.3569 *    -6.6579 *     4.4059 *  0.0000     4          
    63  Na    c     -8.8609 *     2.1539 *     0.0000    0.0000     2          
    64  Cl    c     -0.0490 *    -8.8609 *    -2.2030 *  0.0000     4          
    65  Cl    c     -4.4550 *    -4.4550       6.6089 *  0.0000     2          
    66  Na    c     -8.8609 *    -2.2520 *     0.0000    0.0000     2          
    67  Na    c     -4.4550 *    -6.6579 *     4.4059 *  0.0000     4          
    68  O     c      6.5598 *     6.5598       0.0000    0.0000     1          
    69  O     c      2.1539 *     2.1539       8.8118 *  0.0000     2          
    70  O     c      2.1539 *    -2.2520 *     8.8118 *  0.0000     4          
    71  O     c      6.5598 *    -6.6579 *     0.0000    0.0000     2          
    72  O     c     -2.2520 *    -2.2520       8.8118 *  0.0000     2          
    73  O     c     -6.6579 *    -6.6579       0.0000    0.0000     1          
    74  Na    c      6.5598 *     6.5598      -2.2030 *  0.0000     2          
    75  Na    c      2.1539 *     6.5598 *     6.6089 *  0.0000     4          
    76  Na    c      6.5598 *    -2.2520 *     6.6089 *  0.0000     4          
    77  Na    c      6.5598 *    -6.6579 *    -2.2030 *  0.0000     4          
    78  Na    c      2.1539 *    -6.6579 *     6.6089 *  0.0000     4          
    79  Na    c     -2.2520 *    -6.6579 *     6.6089 *  0.0000     4          
    80  Na    c     -6.6579 *    -6.6579      -2.2030 *  0.0000     2          
    81  Cl    c      4.3569 *     8.7628 *    -2.2030 *  0.0000     4          
    82  Na    c      8.7628 *     2.1539 *     4.4059 *  0.0000     4          
    83  Na    c      4.3569 *     2.1539 *     8.8118 *  0.0000     4          
    84  Na    c      8.7628 *    -2.2520 *     4.4059 *  0.0000     4          
    85  Cl    c      8.7628 *    -4.4550 *    -2.2030 *  0.0000     4          
    86  Na    c      4.3569 *    -2.2520 *     8.8118 *  0.0000     4          
    87  Na    c     -4.4550 *     2.1539 *     8.8118 *  0.0000     4          
    88  Cl    c      4.3569 *    -8.8609 *    -2.2030 *  0.0000     4          
    89  Na    c     -8.8609 *     2.1539 *     4.4059 *  0.0000     4          
    90  Na    c     -4.4550 *    -2.2520 *     8.8118 *  0.0000     4          
    91  Na    c     -8.8609 *    -2.2520 *     4.4059 *  0.0000     4          
    92  Cl    c     -4.4550 *    -8.8609 *    -2.2030 *  0.0000     4          
    93  O     c      6.5598 *     6.5598       4.4059 *  0.0000     2          
    94  O     c      6.5598 *    -6.6579 *     4.4059 *  0.0000     4          
    95  O     c     -6.6579 *    -6.6579       4.4059 *  0.0000     2          
    96  Na    c      8.7628 *     6.5598 *     0.0000    0.0000     2          
    97  Na    c     -0.0490 *    10.9657 *     0.0000    0.0000     2          
    98  Cl    c     -0.0490 *     8.7628 *     6.6089 *  0.0000     4          
    99  Na    c     -0.0490 *     6.5598 *     8.8118 *  0.0000     4          
   100  Na    c      8.7628 *    -6.6579 *     0.0000    0.0000     2          
   101  Cl    c     -0.0490 *    -0.0490      11.0148 *  0.0000     2          
   102  Na    c     -8.8609 *     6.5598 *     0.0000    0.0000     2          
   103  Na    c     -0.0490 *    -6.6579 *     8.8118 *  0.0000     4          
   104  Cl    c     -0.0490 *    -8.8609 *     6.6089 *  0.0000     4          
   105  Na    c     -0.0490 *   -11.0638 *     0.0000    0.0000     2          
   106  Na    c     -8.8609 *    -6.6579 *     0.0000    0.0000     2          
   107  O     c      2.1539 *    10.9657 *     0.0000    0.0000     2          
   108  O     c      2.1539 *     6.5598 *     8.8118 *  0.0000     4          
   109  O     c     10.9657 *    -2.2520 *     0.0000    0.0000     2          
   110  O     c      6.5598 *    -2.2520 *     8.8118 *  0.0000     4          
   111  O     c      2.1539 *    -6.6579 *     8.8118 *  0.0000     4          
   112  O     c      2.1539 *   -11.0638 *     0.0000    0.0000     2          
   113  O     c     -2.2520 *    -6.6579 *     8.8118 *  0.0000     4          
   114  O     c     -2.2520 *   -11.0638 *     0.0000    0.0000     2          
   115  Na    c      6.5598 *     6.5598       6.6089 *  0.0000     2          
   116  Na    c      2.1539 *    10.9657 *    -2.2030 *  0.0000     4          
   117  Na    c     10.9657 *    -2.2520 *    -2.2030 *  0.0000     4          
   118  Na    c      2.1539 *     2.1539      11.0148 *  0.0000     2          
   119  Na    c      2.1539 *    -2.2520 *    11.0148 *  0.0000     4          
   120  Na    c      6.5598 *    -6.6579 *     6.6089 *  0.0000     4          
   121  Na    c     -2.2520 *    -2.2520      11.0148 *  0.0000     2          
   122  Na    c      2.1539 *   -11.0638 *    -2.2030 *  0.0000     4          
   123  Na    c     -2.2520 *   -11.0638 *    -2.2030 *  0.0000     4          
   124  Na    c     -6.6579 *    -6.6579       6.6089 *  0.0000     2          
   125  Na    c      4.3569 *    10.9657 *     0.0000    0.0000     2          
   126  Na    c      8.7628 *     6.5598 *     4.4059 *  0.0000     4          
   127  Cl    c      4.3569 *     8.7628 *     6.6089 *  0.0000     4          
   128  Na    c     -0.0490 *    10.9657 *     4.4059 *  0.0000     4          
   129  Na    c      4.3569 *     6.5598 *     8.8118 *  0.0000     4          
   130  Na    c     -4.4550 *    10.9657 *     0.0000    0.0000     2          
   131  Cl    c     -0.0490 *     4.3569 *    11.0148 *  0.0000     4          
   132  Cl    c      8.7628 *    -4.4550 *     6.6089 *  0.0000     4          
   133  Na    c     -4.4550 *     6.5598 *     8.8118 *  0.0000     4          
   134  Na    c      8.7628 *    -6.6579 *     4.4059 *  0.0000     4          
   135  Na    c      4.3569 *    -6.6579 *     8.8118 *  0.0000     4          
   136  Na    c     -8.8609 *     6.5598 *     4.4059 *  0.0000     4          
   137  Cl    c     -0.0490 *    -4.4550 *    11.0148 *  0.0000     4          
   138  Cl    c      4.3569 *    -8.8609 *     6.6089 *  0.0000     4          
   139  Na    c      4.3569 *   -11.0638 *     0.0000    0.0000     2          
   140  Na    c     -0.0490 *   -11.0638 *     4.4059 *  0.0000     4          
   141  Na    c     -4.4550 *    -6.6579 *     8.8118 *  0.0000     4          
   142  Cl    c     -4.4550 *    -8.8609 *     6.6089 *  0.0000     4          
   143  Na    c     -4.4550 *   -11.0638 *     0.0000    0.0000     2          
   144  Na    c     -8.8609 *    -6.6579 *     4.4059 *  0.0000     4          
   145  O     s     -0.3603      -0.3603       0.0000    0.0000     1    Defect
   146  Cl    s     -0.0490 *    -0.0490      -2.2030 *  0.0000     2          
   147  O     s      2.1539 *    -2.2520 *     0.0000    0.0000     2          
   148  Cl    s     -0.0490 *     4.3569 *    -2.2030 *  0.0000     4          
   149  Cl    s     -0.0490 *    -4.4550 *    -2.2030 *  0.0000     4          
   150  O     s      2.1539 *     2.1539       4.4059 *  0.0000     2          
   151  O     s      2.1539 *    -2.2520 *     4.4059 *  0.0000     4          
   152  O     s     -2.2520 *    -2.2520       4.4059 *  0.0000     2          
   153  Cl    s      4.3569 *     4.3569      -2.2030 *  0.0000     2          
   154  Cl    s     -0.0490 *    -0.0490       6.6089 *  0.0000     2          
   155  Cl    s      4.3569 *    -4.4550 *    -2.2030 *  0.0000     4          
   156  Cl    s     -4.4550 *    -4.4550      -2.2030 *  0.0000     2          
   157  O     s      2.1539 *     6.5598 *     0.0000    0.0000     2          
   158  O     s      6.5598 *    -2.2520 *     0.0000    0.0000     2          
   159  O     s      2.1539 *    -6.6579 *     0.0000    0.0000     2          
   160  O     s     -2.2520 *    -6.6579 *     0.0000    0.0000     2          
   161  Cl    s     -0.0490 *     4.3569 *     6.6089 *  0.0000     4          
   162  Cl    s     -0.0490 *    -4.4550 *     6.6089 *  0.0000     4          
   163  O     s      2.1539 *     6.5598 *     4.4059 *  0.0000     4          
   164  O     s      6.5598 *    -2.2520 *     4.4059 *  0.0000     4          
   165  O     s      2.1539 *    -6.6579 *     4.4059 *  0.0000     4          
   166  O     s     -2.2520 *    -6.6579 *     4.4059 *  0.0000     4          
   167  Cl    s     -0.0490 *     8.7628 *    -2.2030 *  0.0000     4          
   168  Cl    s      4.3569 *     4.3569       6.6089 *  0.0000     2          
   169  Cl    s      4.3569 *    -4.4550 *     6.6089 *  0.0000     4          
   170  Cl    s     -0.0490 *    -8.8609 *    -2.2030 *  0.0000     4          
   171  Cl    s     -4.4550 *    -4.4550       6.6089 *  0.0000     2          
   172  O     s      6.5598 *     6.5598       0.0000    0.0000     1          
   173  O     s      2.1539 *     2.1539       8.8118 *  0.0000     2          
   174  O     s      2.1539 *    -2.2520 *     8.8118 *  0.0000     4          
   175  O     s      6.5598 *    -6.6579 *     0.0000    0.0000     2          
   176  O     s     -2.2520 *    -2.2520       8.8118 *  0.0000     2          
   177  O     s     -6.6579 *    -6.6579       0.0000    0.0000     1          
   178  Cl    s      4.3569 *     8.7628 *    -2.2030 *  0.0000     4          
   179  Cl    s      8.7628 *    -4.4550 *    -2.2030 *  0.0000     4          
   180  Cl    s      4.3569 *    -8.8609 *    -2.2030 *  0.0000     4          
   181  Cl    s     -4.4550 *    -8.8609 *    -2.2030 *  0.0000     4          
   182  O     s      6.5598 *     6.5598       4.4059 *  0.0000     2          
   183  O     s      6.5598 *    -6.6579 *     4.4059 *  0.0000     4          
   184  O     s     -6.6579 *    -6.6579       4.4059 *  0.0000     2          
   185  Cl    s     -0.0490 *     8.7628 *     6.6089 *  0.0000     4          
   186  Cl    s     -0.0490 *    -0.0490      11.0148 *  0.0000     2          
   187  Cl    s     -0.0490 *    -8.8609 *     6.6089 *  0.0000     4          
   188  O     s      2.1539 *    10.9657 *     0.0000    0.0000     2          
   189  O     s      2.1539 *     6.5598 *     8.8118 *  0.0000     4          
   190  O     s     10.9657 *    -2.2520 *     0.0000    0.0000     2          
   191  O     s      6.5598 *    -2.2520 *     8.8118 *  0.0000     4          
   192  O     s      2.1539 *    -6.6579 *     8.8118 *  0.0000     4          
   193  O     s      2.1539 *   -11.0638 *     0.0000    0.0000     2          
   194  O     s     -2.2520 *    -6.6579 *     8.8118 *  0.0000     4          
   195  O     s     -2.2520 *   -11.0638 *     0.0000    0.0000     2          
   196  Cl    s      4.3569 *     8.7628 *     6.6089 *  0.0000     4          
   197  Cl    s     -0.0490 *     4.3569 *    11.0148 *  0.0000     4          
   198  Cl    s      8.7628 *    -4.4550 *     6.6089 *  0.0000     4          
   199  Cl    s     -0.0490 *    -4.4550 *    11.0148 *  0.0000     4          
   200  Cl    s      4.3569 *    -8.8609 *     6.6089 *  0.0000     4          
   201  Cl    s     -4.4550 *    -8.8609 *     6.6089 *  0.0000     4          
--------------------------------------------------------------------------------


  Constraints on symmetry reduced coordinates :

--------------------------------------------------------------------------------
  Constraint no.      Unconstrained     Constrained    Coefficient    
                         Variable         Variable
--------------------------------------------------------------------------------
           1                 3 x             3 y         1.00000
           2                 6 x             6 y         1.00000
           3                 8 x             8 y         1.00000
           4                17 x            17 y         1.00000
           5                19 x            19 y         1.00000
           6                20 x            20 y         1.00000
           7                24 x            24 y         1.00000
           8                29 x            29 y         1.00000
           9                35 x            35 y         1.00000
          10                39 x            39 y         1.00000
          11                56 x            56 y         1.00000
          12                65 x            65 y         1.00000
          13                68 x            68 y         1.00000
          14                69 x            69 y         1.00000
          15                72 x            72 y         1.00000
          16                73 x            73 y         1.00000
          17                74 x            74 y         1.00000
          18                80 x            80 y         1.00000
          19                93 x            93 y         1.00000
          20                95 x            95 y         1.00000
          21               101 x           101 y         1.00000
          22               115 x           115 y         1.00000
          23               118 x           118 y         1.00000
          24               121 x           121 y         1.00000
          25               124 x           124 y         1.00000
          26               146 x           146 y         1.00000
          27               150 x           150 y         1.00000
          28               152 x           152 y         1.00000
          29               153 x           153 y         1.00000
          30               154 x           154 y         1.00000
          31               156 x           156 y         1.00000
          32               168 x           168 y         1.00000
          33               171 x           171 y         1.00000
          34               172 x           172 y         1.00000
          35               173 x           173 y         1.00000
          36               176 x           176 y         1.00000
          37               177 x           177 y         1.00000
          38               182 x           182 y         1.00000
          39               184 x           184 y         1.00000
          40               186 x           186 y         1.00000
--------------------------------------------------------------------------------


  Components of defect energy : 

--------------------------------------------------------------------------------
  Region 1 - region 1                   =    101.57408943 eV
  Region 1 - region 2a (unrelaxed)      =    -55.08430909 eV
  Region 1 - 2a (relaxed - correction)  =     -1.00686744 eV
  Region 1 (Total)                      =     45.48291289 eV
  Region 2a                             =      0.50383286 eV
  Region 2b                             =     -1.64529337 eV
--------------------------------------------------------------------------------
  Total defect energy                   =     44.34145238 eV
--------------------------------------------------------------------------------

  Largest displacement in region 2 =   0.0427 Angstroms


  Number of variables =      507

  Maximum number of calculations  =        1000
  Maximum Hessian update interval =          10
  Maximum step size               =   1.0000000
  Maximum parameter tolerance     =   0.0000100
  Maximum function  tolerance     =   0.0000100
  Maximum gradient  tolerance     =   0.0010000

  Symmetry adapted optimisation

  Symmetry to be used for second derivatives

  Newton-Raphson optimiser to be used

  BFGS hessian update to be used

  Lower half triangular hessian to be used

  Start of defect optimisation :

  Cycle:      0 Defect Energy:  44.341452  Gnorm:     0.097525  CPU:    2.166
  ** Hessian calculated **
  Cycle:      1 Defect Energy:  39.601574  Gnorm:     0.083503  CPU:   11.896
  Cycle:      2 Defect Energy:  34.210846  Gnorm:     0.060037  CPU:   17.324
  Cycle:      3 Defect Energy:  33.018687  Gnorm:     0.048616  CPU:   19.743
  ** Hessian calculated **
  Cycle:      4 Defect Energy:  29.476316  Gnorm:     0.021471  CPU:   23.739
  Cycle:      5 Defect Energy:  28.780410  Gnorm:     0.014826  CPU:   25.909
  Cycle:      6 Defect Energy:  28.370045  Gnorm:     0.016328  CPU:   28.633
  Cycle:      7 Defect Energy:  27.975041  Gnorm:     0.015535  CPU:   31.191
  Cycle:      8 Defect Energy:  27.525879  Gnorm:     0.015260  CPU:   33.810
  Cycle:      9 Defect Energy:  27.157732  Gnorm:     0.009665  CPU:   35.737
  Cycle:     10 Defect Energy:  26.906185  Gnorm:     0.009634  CPU:   38.235
  Cycle:     11 Defect Energy:  26.763228  Gnorm:     0.008254  CPU:   39.195
  Cycle:     12 Defect Energy:  26.668747  Gnorm:     0.008086  CPU:   41.272
  Cycle:     13 Defect Energy:  26.599879  Gnorm:     0.006884  CPU:   43.227
  ** Hessian calculated **
  Cycle:     14 Defect Energy:  26.499550  Gnorm:     0.006449  CPU:   47.135
  Cycle:     15 Defect Energy:  26.361187  Gnorm:     0.005792  CPU:   50.035
  Cycle:     16 Defect Energy:  26.181041  Gnorm:     0.004795  CPU:   50.808
  Cycle:     17 Defect Energy:  25.981546  Gnorm:     0.003347  CPU:   51.491
  Cycle:     18 Defect Energy:  25.884952  Gnorm:     0.002337  CPU:   52.151
  Cycle:     19 Defect Energy:  25.837976  Gnorm:     0.001635  CPU:   52.777
  Cycle:     20 Defect Energy:  25.814910  Gnorm:     0.001144  CPU:   53.466
  Cycle:     21 Defect Energy:  25.803605  Gnorm:     0.000801  CPU:   54.152
  Cycle:     22 Defect Energy:  25.798098  Gnorm:     0.000561  CPU:   54.836
  Cycle:     23 Defect Energy:  25.795407  Gnorm:     0.000393  CPU:   55.605
  ** Hessian calculated **
  Cycle:     24 Defect Energy:  25.794104  Gnorm:     0.000275  CPU:   58.061
  Cycle:     25 Defect Energy:  25.793478  Gnorm:     0.000192  CPU:   58.719
  Cycle:     26 Defect Energy:  25.793180  Gnorm:     0.000135  CPU:   59.373
  Cycle:     27 Defect Energy:  25.793041  Gnorm:     0.000094  CPU:   60.019
  Cycle:     28 Defect Energy:  25.792977  Gnorm:     0.000066  CPU:   60.731
  Cycle:     29 Defect Energy:  25.792949  Gnorm:     0.000046  CPU:   61.310
  Cycle:     30 Defect Energy:  25.792938  Gnorm:     0.000032  CPU:   61.942


  **** Optimisation achieved ****


  Final defect energy  =       25.79293393
  Final defect Gnorm   =        0.00002262

  Components of defect energy : 

--------------------------------------------------------------------------------
  Region 1 - region 1                   =     74.90724362 eV
  Region 1 - region 2a (unrelaxed)      =    -47.09591309 eV
  Region 1 - 2a (relaxed - correction)  =     -0.74505748 eV
  Region 1 (Total)                      =     27.06627305 eV
  Region 2a                             =      0.37186308 eV
  Region 2b                             =     -1.64520219 eV
--------------------------------------------------------------------------------
  Total defect energy                   =     25.79293393 eV
--------------------------------------------------------------------------------

  Largest displacement in region 2 =   0.0427 Angstroms

  Final coordinates of region 1 :

--------------------------------------------------------------------------------
   No.  Atomic        x           y           z          Radius      Charge
        Label       (Angs)      (Angs)      (Angs)       (Angs)       (e) 
--------------------------------------------------------------------------------
     1  O     c     1.891680    1.891680    0.000000    0.000000    0.183000
     2  Na    c     1.874157    3.993294    0.000000    0.000000    1.000000
     3  Na    c     3.993294    1.874157    0.000000    0.000000    1.000000
     4  Cl    c     2.411077    2.411077   -2.931139    0.000000    1.485000
     5  Cl    c     2.411077    2.411077    2.931139    0.000000    1.485000
     6  Na    c     2.503341   -0.129318    0.000000    0.000000    1.000000
     7  Na    c    -0.129318    2.503341    0.000000    0.000000    1.000000
     8  O     c     4.644334   -0.172203    0.000000    0.000000    0.183000
     9  O     c    -0.172203    4.644334    0.000000    0.000000    0.183000
    10  Na    c     4.331685    4.331685   -2.593983    0.000000    1.000000
    11  Na    c     4.331685    4.331685    2.593983    0.000000    1.000000
    12  Na    c     4.521183    0.012060   -2.260302    0.000000    1.000000
    13  Na    c     4.521183    0.012060    2.260302    0.000000    1.000000
    14  Na    c     0.012060    4.521183   -2.260302    0.000000    1.000000
    15  Na    c     0.012060    4.521183    2.260302    0.000000    1.000000
    16  Na    c     0.612778    0.612778   -2.386483    0.000000    1.000000
    17  Na    c     0.612778    0.612778    2.386483    0.000000    1.000000
    18  Na    c     6.867884    4.313819    0.000000    0.000000    1.000000
    19  Na    c     4.313819    6.867884    0.000000    0.000000    1.000000
    20  Cl    c     2.499777    6.227435   -1.927911    0.000000    1.485000
    21  Cl    c     2.499777    6.227435    1.927911    0.000000    1.485000
    22  Cl    c     6.227435    2.499777   -1.927911    0.000000    1.485000
    23  Cl    c     6.227435    2.499777    1.927911    0.000000    1.485000
    24  Na    c     2.209003    4.443345    4.669275    0.000000    1.000000
    25  Na    c     2.209003    4.443345   -4.669275    0.000000    1.000000
    26  Na    c     4.443345    2.209003    4.669275    0.000000    1.000000
    27  Na    c     4.443345    2.209003   -4.669275    0.000000    1.000000
    28  Na    c     6.713394    0.233098    0.000000    0.000000    1.000000
    29  Na    c     0.233098    6.713394    0.000000    0.000000    1.000000
    30  Na    c     2.294597    0.077439    4.681908    0.000000    1.000000
    31  Na    c     2.294597    0.077439   -4.681908    0.000000    1.000000
    32  Na    c     0.077439    2.294597    4.681908    0.000000    1.000000
    33  Na    c     0.077439    2.294597   -4.681908    0.000000    1.000000
    34  Na    c    -2.284310    4.734021    0.000000    0.000000    1.000000
    35  Na    c     4.734021   -2.284310    0.000000    0.000000    1.000000
    36  Cl    c     1.916868   -1.908397   -1.958177    0.000000    1.485000
    37  Cl    c     1.916868   -1.908397    1.958177    0.000000    1.485000
    38  Cl    c    -1.908397    1.916868   -1.958177    0.000000    1.485000
    39  Cl    c    -1.908397    1.916868    1.958177    0.000000    1.485000
    40  Na    c    -2.441902   -0.038229    0.000000    0.000000    1.000000
    41  Na    c    -0.038229   -2.441902    0.000000    0.000000    1.000000
    42  O     c     4.486287    4.486287    4.657265    0.000000    0.183000
    43  O     c     4.486287    4.486287   -4.657265    0.000000    0.183000
    44  O     c     4.496108   -0.039024    4.479943    0.000000    0.183000
    45  O     c     4.496108   -0.039024   -4.479943    0.000000    0.183000
    46  O     c    -0.039024    4.496108    4.479943    0.000000    0.183000
    47  O     c    -0.039024    4.496108   -4.479943    0.000000    0.183000
    48  O     c     0.084779    0.084779    4.445739    0.000000    0.183000
    49  O     c     0.084779    0.084779   -4.445739    0.000000    0.183000
    50  Cl    c     6.319777    6.319777   -1.902719    0.000000    1.485000
    51  Cl    c     6.319777    6.319777    1.902719    0.000000    1.485000
    52  Na    c     2.198417    9.163295    0.000000    0.000000    1.000000
    53  Na    c     9.163295    2.198417    0.000000    0.000000    1.000000
    54  Na    c     6.651855    4.443380    4.522342    0.000000    1.000000
    55  Na    c     6.651855    4.443380   -4.522342    0.000000    1.000000
    56  Na    c     4.443380    6.651855    4.522342    0.000000    1.000000
    57  Na    c     4.443380    6.651855   -4.522342    0.000000    1.000000
    58  Na    c     6.663526   -0.079711    4.481465    0.000000    1.000000
    59  Na    c     6.663526   -0.079711   -4.481465    0.000000    1.000000
    60  Na    c    -0.079711    6.663526    4.481465    0.000000    1.000000
    61  Na    c    -0.079711    6.663526   -4.481465    0.000000    1.000000
    62  Cl    c     2.229662    2.229662    6.777480    0.000000    1.485000
    63  Cl    c     2.229662    2.229662   -6.777480    0.000000    1.485000
    64  Cl    c     6.681733   -2.239794   -2.277003    0.000000    1.485000
    65  Cl    c     6.681733   -2.239794    2.277003    0.000000    1.485000
    66  Cl    c    -2.239794    6.681733   -2.277003    0.000000    1.485000
    67  Cl    c    -2.239794    6.681733    2.277003    0.000000    1.485000
    68  Na    c    -2.222202    4.468621    4.461500    0.000000    1.000000
    69  Na    c    -2.222202    4.468621   -4.461500    0.000000    1.000000
    70  Na    c     4.468621   -2.222202    4.461500    0.000000    1.000000
    71  Na    c     4.468621   -2.222202   -4.461500    0.000000    1.000000
    72  Na    c     2.238585   -4.434178    0.000000    0.000000    1.000000
    73  Na    c    -4.434178    2.238585    0.000000    0.000000    1.000000
    74  Na    c    -2.123668    0.050228    4.176597    0.000000    1.000000
    75  Na    c    -2.123668    0.050228   -4.176597    0.000000    1.000000
    76  Na    c     0.050228   -2.123668    4.176597    0.000000    1.000000
    77  Na    c     0.050228   -2.123668   -4.176597    0.000000    1.000000
    78  Cl    c    -2.030036   -2.030036   -1.933533    0.000000    1.485000
    79  Cl    c    -2.030036   -2.030036    1.933533    0.000000    1.485000
    80  O     c     4.397955    8.958145    0.000000    0.000000    0.183000
    81  O     c     8.958145    4.397955    0.000000    0.000000    0.183000
    82  O     c     8.874133    0.021925    0.000000    0.000000    0.183000
    83  O     c     0.021925    8.874133    0.000000    0.000000    0.183000
    84  O     c     4.439408   -4.447448    0.000000    0.000000    0.183000
    85  O     c    -4.447448    4.439408    0.000000    0.000000    0.183000
    86  O     c     0.018122   -4.528026    0.000000    0.000000    0.183000
    87  O     c    -4.528026    0.018122    0.000000    0.000000    0.183000
    88  Na    c     4.410014    8.911680   -2.219472    0.000000    1.000000
    89  Na    c     4.410014    8.911680    2.219472    0.000000    1.000000
    90  Na    c     8.911680    4.410014   -2.219472    0.000000    1.000000
    91  Na    c     8.911680    4.410014    2.219472    0.000000    1.000000
    92  Na    c     4.477749    4.477749    6.758600    0.000000    1.000000
    93  Na    c     4.477749    4.477749   -6.758600    0.000000    1.000000
    94  Na    c     8.931350   -0.089682   -2.206798    0.000000    1.000000
    95  Na    c     8.931350   -0.089682    2.206798    0.000000    1.000000
    96  Na    c    -0.089682    8.931350   -2.206798    0.000000    1.000000
    97  Na    c    -0.089682    8.931350    2.206798    0.000000    1.000000
    98  Na    c     4.545558   -0.093832    6.677843    0.000000    1.000000
    99  Na    c     4.545558   -0.093832   -6.677843    0.000000    1.000000
   100  Na    c    -0.093832    4.545558    6.677843    0.000000    1.000000
   101  Na    c    -0.093832    4.545558   -6.677843    0.000000    1.000000
   102  Na    c     4.468477   -4.505506   -2.206335    0.000000    1.000000
   103  Na    c     4.468477   -4.505506    2.206335    0.000000    1.000000
   104  Na    c    -4.505506    4.468477   -2.206335    0.000000    1.000000
   105  Na    c    -4.505506    4.468477    2.206335    0.000000    1.000000
   106  Na    c    -0.117513   -0.117513    6.617142    0.000000    1.000000
   107  Na    c    -0.117513   -0.117513   -6.617142    0.000000    1.000000
   108  Na    c    -0.001756   -4.559187   -2.203037    0.000000    1.000000
   109  Na    c    -0.001756   -4.559187    2.203037    0.000000    1.000000
   110  Na    c    -4.559187   -0.001756   -2.203037    0.000000    1.000000
   111  Na    c    -4.559187   -0.001756    2.203037    0.000000    1.000000
   112  Na    c     6.617168    8.847494    0.000000    0.000000    1.000000
   113  Na    c     8.847494    6.617168    0.000000    0.000000    1.000000
   114  Na    c     2.203298    8.889673    4.490522    0.000000    1.000000
   115  Na    c     2.203298    8.889673   -4.490522    0.000000    1.000000
   116  Na    c     8.889673    2.203298    4.490522    0.000000    1.000000
   117  Na    c     8.889673    2.203298   -4.490522    0.000000    1.000000
   118  Cl    c     2.182733    6.668470    6.611408    0.000000    1.485000
   119  Cl    c     2.182733    6.668470   -6.611408    0.000000    1.485000
   120  Cl    c     6.668470    2.182733    6.611408    0.000000    1.485000
   121  Cl    c     6.668470    2.182733   -6.611408    0.000000    1.485000
   122  Na    c    -2.217191    8.688467    0.000000    0.000000    1.000000
   123  Na    c     8.688467   -2.217191    0.000000    0.000000    1.000000
   124  Na    c     6.645962   -4.615506    0.000000    0.000000    1.000000
   125  Na    c    -4.615506    6.645962    0.000000    0.000000    1.000000
   126  Cl    c     2.250120   -2.197559    6.593619    0.000000    1.485000
   127  Cl    c     2.250120   -2.197559   -6.593619    0.000000    1.485000
   128  Cl    c    -2.197559    2.250120    6.593619    0.000000    1.485000
   129  Cl    c    -2.197559    2.250120   -6.593619    0.000000    1.485000
   130  Na    c     2.202703   -4.439354    4.485116    0.000000    1.000000
   131  Na    c     2.202703   -4.439354   -4.485116    0.000000    1.000000
   132  Na    c    -4.439354    2.202703    4.485116    0.000000    1.000000
   133  Na    c    -4.439354    2.202703   -4.485116    0.000000    1.000000
   134  Na    c    -2.221006   -4.491830    0.000000    0.000000    1.000000
   135  Na    c    -4.491830   -2.221006    0.000000    0.000000    1.000000
   136  O     c     4.411423    8.827274    4.406153    0.000000    0.183000
   137  O     c     4.411423    8.827274   -4.406153    0.000000    0.183000
   138  O     c     8.827274    4.411423    4.406153    0.000000    0.183000
   139  O     c     8.827274    4.411423   -4.406153    0.000000    0.183000
   140  O     c     8.828783    0.013384    4.393000    0.000000    0.183000
   141  O     c     8.828783    0.013384   -4.393000    0.000000    0.183000
   142  O     c     0.013384    8.828783    4.393000    0.000000    0.183000
   143  O     c     0.013384    8.828783   -4.393000    0.000000    0.183000
   144  O     c     4.398282   -4.398268    4.390472    0.000000    0.183000
   145  O     c     4.398282   -4.398268   -4.390472    0.000000    0.183000
   146  O     c    -4.398268    4.398282    4.390472    0.000000    0.183000
   147  O     c    -4.398268    4.398282   -4.390472    0.000000    0.183000
   148  O     c     0.013139   -4.366439    4.374778    0.000000    0.183000
   149  O     c     0.013139   -4.366439   -4.374778    0.000000    0.183000
   150  O     c    -4.366439    0.013139    4.374778    0.000000    0.183000
   151  O     c    -4.366439    0.013139   -4.374778    0.000000    0.183000
   152  Na    c     6.620551    8.901292    4.475065    0.000000    1.000000
   153  Na    c     6.620551    8.901292   -4.475065    0.000000    1.000000
   154  Na    c     8.901292    6.620551    4.475065    0.000000    1.000000
   155  Na    c     8.901292    6.620551   -4.475065    0.000000    1.000000
   156  Na    c    11.102641    4.531091    0.000000    0.000000    1.000000
   157  Na    c     4.531091   11.102641    0.000000    0.000000    1.000000
   158  Cl    c     2.208199   11.014256   -2.227675    0.000000    1.485000
   159  Cl    c     2.208199   11.014256    2.227675    0.000000    1.485000
   160  Cl    c    11.014256    2.208199   -2.227675    0.000000    1.485000
   161  Cl    c    11.014256    2.208199    2.227675    0.000000    1.485000
   162  Cl    c     6.670655    6.670655    6.602637    0.000000    1.485000
   163  Cl    c     6.670655    6.670655   -6.602637    0.000000    1.485000
   164  Na    c    11.063828   -0.168185    0.000000    0.000000    1.000000
   165  Na    c    -0.168185   11.063828    0.000000    0.000000    1.000000
   166  Na    c     2.197385    4.386555    8.866961    0.000000    1.000000
   167  Na    c     2.197385    4.386555   -8.866961    0.000000    1.000000
   168  Na    c     4.386555    2.197385    8.866961    0.000000    1.000000
   169  Na    c     4.386555    2.197385   -8.866961    0.000000    1.000000
   170  Na    c    -2.223079    8.849439    4.425690    0.000000    1.000000
   171  Na    c    -2.223079    8.849439   -4.425690    0.000000    1.000000
   172  Na    c     8.849439   -2.223079    4.425690    0.000000    1.000000
   173  Na    c     8.849439   -2.223079   -4.425690    0.000000    1.000000
   174  Cl    c     6.634920   -2.207666    6.602810    0.000000    1.485000
   175  Cl    c     6.634920   -2.207666   -6.602810    0.000000    1.485000
   176  Cl    c    -2.207666    6.634920    6.602810    0.000000    1.485000
   177  Cl    c    -2.207666    6.634920   -6.602810    0.000000    1.485000
   178  Na    c     2.202016    0.012917    8.775913    0.000000    1.000000
   179  Na    c     2.202016    0.012917   -8.775913    0.000000    1.000000
   180  Na    c     0.012917    2.202016    8.775913    0.000000    1.000000
   181  Na    c     0.012917    2.202016   -8.775913    0.000000    1.000000
   182  Na    c     6.627734   -4.429107    4.404708    0.000000    1.000000
   183  Na    c     6.627734   -4.429107   -4.404708    0.000000    1.000000
   184  Na    c    -4.429107    6.627734    4.404708    0.000000    1.000000
   185  Na    c    -4.429107    6.627734   -4.404708    0.000000    1.000000
   186  Na    c    -6.653287    4.357529    0.000000    0.000000    1.000000
   187  Na    c     4.357529   -6.653287    0.000000    0.000000    1.000000
   188  Cl    c     2.224511   -6.583408   -2.207966    0.000000    1.485000
   189  Cl    c     2.224511   -6.583408    2.207966    0.000000    1.485000
   190  Cl    c    -6.583408    2.224511   -2.207966    0.000000    1.485000
   191  Cl    c    -6.583408    2.224511    2.207966    0.000000    1.485000
   192  Cl    c    -2.203030   -2.203030    6.569910    0.000000    1.485000
   193  Cl    c    -2.203030   -2.203030   -6.569910    0.000000    1.485000
   194  Na    c    -6.680647    0.027956    0.000000    0.000000    1.000000
   195  Na    c     0.027956   -6.680647    0.000000    0.000000    1.000000
   196  Na    c    -2.189221   -4.415029    4.453783    0.000000    1.000000
   197  Na    c    -2.189221   -4.415029   -4.453783    0.000000    1.000000
   198  Na    c    -4.415029   -2.189221    4.453783    0.000000    1.000000
   199  Na    c    -4.415029   -2.189221   -4.453783    0.000000    1.000000
   200  O     c     8.809157    8.809157    0.000000    0.000000    0.183000
   201  O     c     4.420835    4.420835    8.889257    0.000000    0.183000
   202  O     c     4.420835    4.420835   -8.889257    0.000000    0.183000
   203  O     c     4.423979   -0.011868    8.838556    0.000000    0.183000
   204  O     c     4.423979   -0.011868   -8.838556    0.000000    0.183000
   205  O     c    -0.011868    4.423979    8.838556    0.000000    0.183000
   206  O     c    -0.011868    4.423979   -8.838556    0.000000    0.183000
   207  O     c     8.818569   -4.418952    0.000000    0.000000    0.183000
   208  O     c    -4.418952    8.818569    0.000000    0.000000    0.183000
   209  O     c    -0.011033   -0.011033    8.814850    0.000000    0.183000
   210  O     c    -0.011033   -0.011033   -8.814850    0.000000    0.183000
   211  O     c    -4.420508   -4.420508    0.000000    0.000000    0.183000
   212  Na    c     8.881614    8.881614   -2.204661    0.000000    1.000000
   213  Na    c     8.881614    8.881614    2.204661    0.000000    1.000000
   214  Na    c     4.418850    8.826174    6.633026    0.000000    1.000000
   215  Na    c     4.418850    8.826174   -6.633026    0.000000    1.000000
   216  Na    c     8.826174    4.418850    6.633026    0.000000    1.000000
   217  Na    c     8.826174    4.418850   -6.633026    0.000000    1.000000
   218  Na    c     8.826470   -0.024032    6.624339    0.000000    1.000000
   219  Na    c     8.826470   -0.024032   -6.624339    0.000000    1.000000
   220  Na    c    -0.024032    8.826470    6.624339    0.000000    1.000000
   221  Na    c    -0.024032    8.826470   -6.624339    0.000000    1.000000
   222  Na    c     8.834101   -4.409283   -2.211780    0.000000    1.000000
   223  Na    c     8.834101   -4.409283    2.211780    0.000000    1.000000
   224  Na    c    -4.409283    8.834101   -2.211780    0.000000    1.000000
   225  Na    c    -4.409283    8.834101    2.211780    0.000000    1.000000
   226  Na    c     4.437182   -4.414125    6.615678    0.000000    1.000000
   227  Na    c     4.437182   -4.414125   -6.615678    0.000000    1.000000
   228  Na    c    -4.414125    4.437182    6.615678    0.000000    1.000000
   229  Na    c    -4.414125    4.437182   -6.615678    0.000000    1.000000
   230  Na    c    -0.020756   -4.284754    6.597324    0.000000    1.000000
   231  Na    c    -0.020756   -4.284754   -6.597324    0.000000    1.000000
   232  Na    c    -4.284754   -0.020756    6.597324    0.000000    1.000000
   233  Na    c    -4.284754   -0.020756   -6.597324    0.000000    1.000000
   234  Na    c    -4.443160   -4.443160   -2.204806    0.000000    1.000000
   235  Na    c    -4.443160   -4.443160    2.204806    0.000000    1.000000
   236  Cl    c     6.630527   10.982583   -2.205173    0.000000    1.485000
   237  Cl    c     6.630527   10.982583    2.205173    0.000000    1.485000
   238  Cl    c    10.982583    6.630527   -2.205173    0.000000    1.485000
   239  Cl    c    10.982583    6.630527    2.205173    0.000000    1.485000
   240  Na    c    11.037260    4.393502    4.426705    0.000000    1.000000
   241  Na    c    11.037260    4.393502   -4.426705    0.000000    1.000000
   242  Na    c     4.393502   11.037260    4.426705    0.000000    1.000000
   243  Na    c     4.393502   11.037260   -4.426705    0.000000    1.000000
   244  Na    c     6.621941    4.392522    8.911521    0.000000    1.000000
   245  Na    c     6.621941    4.392522   -8.911521    0.000000    1.000000
   246  Na    c     4.392522    6.621941    8.911521    0.000000    1.000000
   247  Na    c     4.392522    6.621941   -8.911521    0.000000    1.000000
   248  Na    c    11.034217   -0.007819    4.429351    0.000000    1.000000
   249  Na    c    11.034217   -0.007819   -4.429351    0.000000    1.000000
   250  Na    c    -0.007819   11.034217    4.429351    0.000000    1.000000
   251  Na    c    -0.007819   11.034217   -4.429351    0.000000    1.000000
   252  Cl    c    11.010669   -2.185990   -2.197271    0.000000    1.485000
   253  Cl    c    11.010669   -2.185990    2.197271    0.000000    1.485000
   254  Cl    c    -2.185990   11.010669   -2.197271    0.000000    1.485000
   255  Cl    c    -2.185990   11.010669    2.197271    0.000000    1.485000
   256  Na    c     6.624009    0.000356    8.892105    0.000000    1.000000
   257  Na    c     6.624009    0.000356   -8.892105    0.000000    1.000000
   258  Na    c     0.000356    6.624009    8.892105    0.000000    1.000000
   259  Na    c     0.000356    6.624009   -8.892105    0.000000    1.000000
   260  Na    c    -2.215237    4.383019    8.869229    0.000000    1.000000
   261  Na    c    -2.215237    4.383019   -8.869229    0.000000    1.000000
   262  Na    c     4.383019   -2.215237    8.869229    0.000000    1.000000
   263  Na    c     4.383019   -2.215237   -8.869229    0.000000    1.000000
   264  Cl    c     6.599656   -6.599409   -2.199724    0.000000    1.485000
   265  Cl    c     6.599656   -6.599409    2.199724    0.000000    1.485000
   266  Cl    c    -6.599409    6.599656   -2.199724    0.000000    1.485000
   267  Cl    c    -6.599409    6.599656    2.199724    0.000000    1.485000
   268  Na    c    -6.618012    4.395473    4.425917    0.000000    1.000000
   269  Na    c    -6.618012    4.395473   -4.425917    0.000000    1.000000
   270  Na    c     4.395473   -6.618012    4.425917    0.000000    1.000000
   271  Na    c     4.395473   -6.618012   -4.425917    0.000000    1.000000
   272  Na    c    -2.202430    0.010812    8.891357    0.000000    1.000000
   273  Na    c    -2.202430    0.010812   -8.891357    0.000000    1.000000
   274  Na    c     0.010812   -2.202430    8.891357    0.000000    1.000000
   275  Na    c     0.010812   -2.202430   -8.891357    0.000000    1.000000
   276  Na    c    -6.604956    0.001987    4.467888    0.000000    1.000000
   277  Na    c    -6.604956    0.001987   -4.467888    0.000000    1.000000
   278  Na    c     0.001987   -6.604956    4.467888    0.000000    1.000000
   279  Na    c     0.001987   -6.604956   -4.467888    0.000000    1.000000
   280  Cl    c    -2.203072   -6.587382   -2.211594    0.000000    1.485000
   281  Cl    c    -2.203072   -6.587382    2.211594    0.000000    1.485000
   282  Cl    c    -6.587382   -2.203072   -2.211594    0.000000    1.485000
   283  Cl    c    -6.587382   -2.203072    2.211594    0.000000    1.485000
   284  O     c     8.811839    8.811839    4.390964    0.000000    0.183000
   285  O     c     8.811839    8.811839   -4.390964    0.000000    0.183000
   286  O     c     8.830701   -4.420240    4.414234    0.000000    0.183000
   287  O     c     8.830701   -4.420240   -4.414234    0.000000    0.183000
   288  O     c    -4.420240    8.830701    4.414234    0.000000    0.183000
   289  O     c    -4.420240    8.830701   -4.414234    0.000000    0.183000
   290  O     c    -4.388733   -4.388733    4.394296    0.000000    0.183000
   291  O     c    -4.388733   -4.388733   -4.394296    0.000000    0.183000
   292  Na    c    11.030439    8.810443    0.000000    0.000000    1.000000
   293  Na    c     8.810443   11.030439    0.000000    0.000000    1.000000
   294  Na    c     2.196057   13.216111    0.000000    0.000000    1.000000
   295  Na    c    13.216111    2.196057    0.000000    0.000000    1.000000
   296  Cl    c     2.215645   11.002104    6.589552    0.000000    1.485000
   297  Cl    c     2.215645   11.002104   -6.589552    0.000000    1.485000
   298  Cl    c    11.002104    2.215645    6.589552    0.000000    1.485000
   299  Cl    c    11.002104    2.215645   -6.589552    0.000000    1.485000
   300  Na    c     2.199752    8.819729    8.823509    0.000000    1.000000
   301  Na    c     2.199752    8.819729   -8.823509    0.000000    1.000000
   302  Na    c     8.819729    2.199752    8.823509    0.000000    1.000000
   303  Na    c     8.819729    2.199752   -8.823509    0.000000    1.000000
   304  Na    c    11.022379   -4.369537    0.000000    0.000000    1.000000
   305  Na    c    -4.369537   11.022379    0.000000    0.000000    1.000000
   306  Cl    c     2.200120    2.200120   11.014293    0.000000    1.485000
   307  Cl    c     2.200120    2.200120  -11.014293    0.000000    1.485000
   308  Na    c    -6.624819    8.903164    0.000000    0.000000    1.000000
   309  Na    c     8.903164   -6.624819    0.000000    0.000000    1.000000
   310  Na    c     2.201795   -4.426918    8.804481    0.000000    1.000000
   311  Na    c     2.201795   -4.426918   -8.804481    0.000000    1.000000
   312  Na    c    -4.426918    2.201795    8.804481    0.000000    1.000000
   313  Na    c    -4.426918    2.201795   -8.804481    0.000000    1.000000
   314  Cl    c     2.204404   -6.583975    6.579580    0.000000    1.485000
   315  Cl    c     2.204404   -6.583975   -6.579580    0.000000    1.485000
   316  Cl    c    -6.583975    2.204404    6.579580    0.000000    1.485000
   317  Cl    c    -6.583975    2.204404   -6.579580    0.000000    1.485000
   318  Na    c     2.203248   -8.881600    0.000000    0.000000    1.000000
   319  Na    c    -8.881600    2.203248    0.000000    0.000000    1.000000
   320  Na    c    -6.627674   -4.432265    0.000000    0.000000    1.000000
   321  Na    c    -4.432265   -6.627674    0.000000    0.000000    1.000000
   322  O     c     4.417089   13.247079    0.000000    0.000000    0.183000
   323  O     c    13.247079    4.417089    0.000000    0.000000    0.183000
   324  O     c     4.408662    8.812423    8.815211    0.000000    0.183000
   325  O     c     4.408662    8.812423   -8.815211    0.000000    0.183000
   326  O     c     8.812423    4.408662    8.815211    0.000000    0.183000
   327  O     c     8.812423    4.408662   -8.815211    0.000000    0.183000
   328  O     c    13.230118   -0.011449    0.000000    0.000000    0.183000
   329  O     c    -0.011449   13.230118    0.000000    0.000000    0.183000
   330  O     c     8.816205   -0.002782    8.814527    0.000000    0.183000
   331  O     c     8.816205   -0.002782   -8.814527    0.000000    0.183000
   332  O     c    -0.002782    8.816205    8.814527    0.000000    0.183000
   333  O     c    -0.002782    8.816205   -8.814527    0.000000    0.183000
   334  O     c     4.407223   -4.406867    8.809797    0.000000    0.183000
   335  O     c     4.407223   -4.406867   -8.809797    0.000000    0.183000
   336  O     c    -4.406867    4.407223    8.809797    0.000000    0.183000
   337  O     c    -4.406867    4.407223   -8.809797    0.000000    0.183000
   338  O     c     4.400263   -8.824333    0.000000    0.000000    0.183000
   339  O     c    -8.824333    4.400263    0.000000    0.000000    0.183000
   340  O     c     0.001260   -4.392696    8.804218    0.000000    0.183000
   341  O     c     0.001260   -4.392696   -8.804218    0.000000    0.183000
   342  O     c    -4.392696    0.001260    8.804218    0.000000    0.183000
   343  O     c    -4.392696    0.001260   -8.804218    0.000000    0.183000
   344  O     c     0.002703   -8.837203    0.000000    0.000000    0.183000
   345  O     c    -8.837203    0.002703    0.000000    0.000000    0.183000
   346  Na    c     8.807109    8.807109    6.620948    0.000000    1.000000
   347  Na    c     8.807109    8.807109   -6.620948    0.000000    1.000000
   348  Na    c     4.389696   13.266105   -2.210108    0.000000    1.000000
   349  Na    c     4.389696   13.266105    2.210108    0.000000    1.000000
   350  Na    c    13.266105    4.389696   -2.210108    0.000000    1.000000
   351  Na    c    13.266105    4.389696    2.210108    0.000000    1.000000
   352  Na    c    13.247803   -0.001411   -2.208641    0.000000    1.000000
   353  Na    c    13.247803   -0.001411    2.208641    0.000000    1.000000
   354  Na    c    -0.001411   13.247803   -2.208641    0.000000    1.000000
   355  Na    c    -0.001411   13.247803    2.208641    0.000000    1.000000
   356  Na    c     4.401588    4.401588   11.054542    0.000000    1.000000
   357  Na    c     4.401588    4.401588  -11.054542    0.000000    1.000000
   358  Na    c     4.384787   -0.014444   11.032093    0.000000    1.000000
   359  Na    c     4.384787   -0.014444  -11.032093    0.000000    1.000000
[...]
    121 y          0.000000      0.023597     0.023597    Cartesian    0.00
    121 z         11.014756     11.023061     0.008305    Cartesian    0.08
    122 x          4.405902      4.417073     0.011171    Cartesian    0.25
    122 y         -8.811805     -8.841919    -0.030115    Cartesian    0.34
    122 z         -2.202951     -2.208342    -0.005390    Cartesian    0.24
    123 x          0.000000     -0.009967    -0.009967    Cartesian    0.00
    123 y         -8.811805     -8.844199    -0.032395    Cartesian    0.37
    123 z         -2.202951     -2.212214    -0.009263    Cartesian    0.42
    124 x         -4.405902     -4.407960    -0.002058    Cartesian    0.05
    124 y         -4.405902     -4.407960    -0.002058    Cartesian    0.05
    124 z          6.608853      6.613282     0.004429    Cartesian    0.07
    125 x          6.608853      6.623264     0.014410    Cartesian    0.22
    125 y         13.217707     13.311906     0.094199    Cartesian    0.71
    125 z          0.000000      0.000000     0.000000    Cartesian    0.00
    126 x         11.014756     11.029067     0.014312    Cartesian    0.13
    126 y          8.811805      8.838354     0.026549    Cartesian    0.30
    126 z          4.405902      4.430047     0.024145    Cartesian    0.55
    127 x          6.608853      6.602601    -0.006253    Cartesian   -0.09
    127 y         11.014756     10.992535    -0.022221    Cartesian   -0.20
    127 z          6.608853      6.577482    -0.031371    Cartesian   -0.47
    128 x          2.202951      2.199795    -0.003156    Cartesian   -0.14
    128 y         13.217707     13.252598     0.034891    Cartesian    0.26
    128 z          4.405902      4.424876     0.018974    Cartesian    0.43
    129 x          6.608853      6.614821     0.005968    Cartesian    0.09
    129 y          8.811805      8.816285     0.004480    Cartesian    0.05
    129 z          8.811805      8.839277     0.027473    Cartesian    0.31
    130 x         -2.202951     -2.217759    -0.014808    Cartesian    0.67
    130 y         13.217707     13.307549     0.089842    Cartesian    0.68
    130 z          0.000000      0.000000     0.000000    Cartesian    0.00
    131 x          2.202951      2.203328     0.000377    Cartesian    0.02
    131 y          6.608853      6.616203     0.007350    Cartesian    0.11
    131 z         11.014756     10.988862    -0.025893    Cartesian   -0.24
    132 x         11.014756     10.991749    -0.023006    Cartesian   -0.21
    132 y         -2.202951     -2.175026     0.027925    Cartesian   -1.27
    132 z          6.608853      6.585266    -0.023587    Cartesian   -0.36
    133 x         -2.202951     -2.209680    -0.006728    Cartesian    0.31
    133 y          8.811805      8.827165     0.015360    Cartesian    0.17
    133 z          8.811805      8.837159     0.025355    Cartesian    0.29
    134 x         11.014756     11.028090     0.013334    Cartesian    0.12
    134 y         -4.405902     -4.445102    -0.039200    Cartesian    0.89
    134 z          4.405902      4.428169     0.022266    Cartesian    0.51
    135 x          6.608853      6.612916     0.004062    Cartesian    0.06
    135 y         -4.405902     -4.417624    -0.011721    Cartesian    0.27
    135 z          8.811805      8.841609     0.029805    Cartesian    0.34
    136 x         -6.608853     -6.621075    -0.012221    Cartesian    0.18
    136 y          8.811805      8.835710     0.023905    Cartesian    0.27
    136 z          4.405902      4.419747     0.013845    Cartesian    0.31
    137 x          2.202951      2.203642     0.000691    Cartesian    0.03
    137 y         -2.202951     -2.194572     0.008379    Cartesian   -0.38
    137 z         11.014756     10.985919    -0.028837    Cartesian   -0.26
    138 x          6.608853      6.588695    -0.020159    Cartesian   -0.31
    138 y         -6.608853     -6.577272     0.031581    Cartesian   -0.48
    138 z          6.608853      6.585295    -0.023558    Cartesian   -0.36
    139 x          6.608853      6.614388     0.005534    Cartesian    0.08
    139 y         -8.811805     -8.835611    -0.023807    Cartesian    0.27
    139 z          0.000000      0.000000     0.000000    Cartesian    0.00
    140 x          2.202951      2.203355     0.000404    Cartesian    0.02
    140 y         -8.811805     -8.844421    -0.032616    Cartesian    0.37
    140 z          4.405902      4.412931     0.007028    Cartesian    0.16
    141 x         -2.202951     -2.204231    -0.001280    Cartesian    0.06
    141 y         -4.405902     -4.417875    -0.011973    Cartesian    0.27
    141 z          8.811805      8.829279     0.017475    Cartesian    0.20
    142 x         -2.202951     -2.187328     0.015623    Cartesian   -0.71
    142 y         -6.608853     -6.573158     0.035696    Cartesian   -0.54
    142 z          6.608853      6.573428    -0.035425    Cartesian   -0.54
    143 x         -2.202951     -2.208672    -0.005720    Cartesian    0.26
    143 y         -8.811805     -8.856257    -0.044453    Cartesian    0.50
    143 z          0.000000      0.000000     0.000000    Cartesian    0.00
    144 x         -6.608853     -6.611756    -0.002903    Cartesian    0.04
    144 y         -4.405902     -4.409408    -0.003506    Cartesian    0.08
    144 z          4.405902      4.419349     0.013446    Cartesian    0.31
    145 x          1.891680      1.891680     0.000000    Cartesian    0.00
    145 y          1.891680      1.891680     0.000000    Cartesian    0.00
    145 z          0.000000      0.000000     0.000000    Cartesian    0.00
    146 x          2.202951      2.415273     0.212322    Cartesian    9.64
    146 y          2.202951      2.415273     0.212322    Cartesian    9.64
    146 z         -2.202951     -2.990328    -0.787376    Cartesian   35.74
    147 x          4.405902      4.644222     0.238319    Cartesian    5.41
    147 y          0.000000     -0.172113    -0.172113    Cartesian    0.00
    147 z          0.000000      0.000000     0.000000    Cartesian    0.00
    148 x          2.202951      2.528934     0.325983    Cartesian   14.80
    148 y          6.608853      6.201381    -0.407472    Cartesian   -6.17
    148 z         -2.202951     -1.905492     0.297459    Cartesian  -13.50
    149 x          2.202951      1.891804    -0.311148    Cartesian  -14.12
    149 y         -2.202951     -1.878856     0.324096    Cartesian  -14.71
    149 z         -2.202951     -1.931738     0.271213    Cartesian  -12.31
    150 x          4.405902      4.486346     0.080444    Cartesian    1.83
    150 y          4.405902      4.486346     0.080444    Cartesian    1.83
    150 z          4.405902      4.657177     0.251274    Cartesian    5.70
    151 x          4.405902      4.496167     0.090265    Cartesian    2.05
    151 y          0.000000     -0.039098    -0.039098    Cartesian    0.00
    151 z          4.405902      4.480028     0.074126    Cartesian    1.68
    152 x          0.000000      0.084837     0.084837    Cartesian    0.00
    152 y          0.000000      0.084837     0.084837    Cartesian    0.00
    152 z          4.405902      4.445751     0.039849    Cartesian    0.90
    153 x          6.608853      6.299234    -0.309619    Cartesian   -4.68
    153 y          6.608853      6.299234    -0.309619    Cartesian   -4.68
    153 z         -2.202951     -1.875453     0.327498    Cartesian  -14.87
    154 x          2.202951      2.229250     0.026298    Cartesian    1.19
    154 y          2.202951      2.229250     0.026298    Cartesian    1.19
    154 z          6.608853      6.779854     0.171000    Cartesian    2.59
    155 x          6.608853      6.685411     0.076558    Cartesian    1.16
    155 y         -2.202951     -2.242549    -0.039597    Cartesian    1.80
    155 z         -2.202951     -2.281012    -0.078061    Cartesian    3.54
    156 x         -2.202951     -2.019140     0.183811    Cartesian   -8.34
    156 y         -2.202951     -2.019140     0.183811    Cartesian   -8.34
    156 z         -2.202951     -1.906797     0.296155    Cartesian  -13.44
    157 x          4.405902      4.397952    -0.007950    Cartesian   -0.18
    157 y          8.811805      8.958064     0.146260    Cartesian    1.66
    157 z          0.000000      0.000000     0.000000    Cartesian    0.00
    158 x          8.811805      8.874145     0.062340    Cartesian    0.71
    158 y          0.000000      0.021949     0.021949    Cartesian    0.00
    158 z          0.000000      0.000000     0.000000    Cartesian    0.00
    159 x          4.405902      4.439445     0.033543    Cartesian    0.76
    159 y         -4.405902     -4.447470    -0.041567    Cartesian    0.94
    159 z          0.000000      0.000000     0.000000    Cartesian    0.00
    160 x          0.000000      0.018120     0.018120    Cartesian    0.00
    160 y         -4.405902     -4.527919    -0.122017    Cartesian    2.77
    160 z          0.000000      0.000000     0.000000    Cartesian    0.00
    161 x          2.202951      2.181287    -0.021664    Cartesian   -0.98
    161 y          6.608853      6.668492     0.059639    Cartesian    0.90
    161 z          6.608853      6.603286    -0.005567    Cartesian   -0.08
    162 x          2.202951      2.255355     0.052404    Cartesian    2.38
    162 y         -2.202951     -2.194837     0.008114    Cartesian   -0.37
    162 z          6.608853      6.589994    -0.018860    Cartesian   -0.29
    163 x          4.405902      4.411426     0.005523    Cartesian    0.13
    163 y          8.811805      8.827276     0.015472    Cartesian    0.18
    163 z          4.405902      4.406162     0.000260    Cartesian    0.01
    164 x          8.811805      8.828771     0.016967    Cartesian    0.19
    164 y          0.000000      0.013386     0.013386    Cartesian    0.00
    164 z          4.405902      4.393001    -0.012901    Cartesian   -0.29
    165 x          4.405902      4.398279    -0.007623    Cartesian   -0.17
    165 y         -4.405902     -4.398254     0.007649    Cartesian   -0.17
    165 z          4.405902      4.390468    -0.015434    Cartesian   -0.35
    166 x          0.000000      0.013147     0.013147    Cartesian    0.00
    166 y         -4.405902     -4.366497     0.039405    Cartesian   -0.89
    166 z          4.405902      4.374747    -0.031156    Cartesian   -0.71
    167 x          2.202951      2.210610     0.007659    Cartesian    0.35
    167 y         11.014756     11.005342    -0.009414    Cartesian   -0.09
    167 z         -2.202951     -2.224232    -0.021281    Cartesian    0.97
    168 x          6.608853      6.673850     0.064996    Cartesian    0.98
    168 y          6.608853      6.673850     0.064996    Cartesian    0.98
    168 z          6.608853      6.595563    -0.013290    Cartesian   -0.20
    169 x          6.608853      6.631093     0.022239    Cartesian    0.34
    169 y         -2.202951     -2.200717     0.002234    Cartesian   -0.10
    169 z          6.608853      6.594547    -0.014306    Cartesian   -0.22
    170 x          2.202951      2.225717     0.022766    Cartesian    1.03
    170 y         -6.608853     -6.576183     0.032671    Cartesian   -0.49
    170 z         -2.202951     -2.205486    -0.002535    Cartesian    0.12
    171 x         -2.202951     -2.202938     0.000013    Cartesian   -0.00
    171 y         -2.202951     -2.202938     0.000013    Cartesian   -0.00
    171 z          6.608853      6.568713    -0.040140    Cartesian   -0.61
    172 x          8.811805      8.809156    -0.002649    Cartesian   -0.03
    172 y          8.811805      8.809156    -0.002649    Cartesian   -0.03
    172 z          0.000000      0.000000     0.000000    Cartesian    0.00
    173 x          4.405902      4.420859     0.014957    Cartesian    0.34
    173 y          4.405902      4.420859     0.014957    Cartesian    0.34
    173 z          8.811805      8.889212     0.077408    Cartesian    0.88
    174 x          4.405902      4.424009     0.018106    Cartesian    0.41
    174 y          0.000000     -0.011885    -0.011885    Cartesian    0.00
    174 z          8.811805      8.838531     0.026726    Cartesian    0.30
    175 x          8.811805      8.818539     0.006735    Cartesian    0.08
    175 y         -4.405902     -4.418977    -0.013074    Cartesian    0.30
    175 z          0.000000      0.000000     0.000000    Cartesian    0.00
    176 x          0.000000     -0.011062    -0.011062    Cartesian    0.00
    176 y          0.000000     -0.011062    -0.011062    Cartesian    0.00
    176 z          8.811805      8.814859     0.003054    Cartesian    0.03
    177 x         -4.405902     -4.420524    -0.014622    Cartesian    0.33
    177 y         -4.405902     -4.420524    -0.014622    Cartesian    0.33
    177 z          0.000000      0.000000     0.000000    Cartesian    0.00
    178 x          6.608853      6.629702     0.020848    Cartesian    0.32
    178 y         11.014756     10.975704    -0.039051    Cartesian   -0.35
    178 z         -2.202951     -2.202986    -0.000035    Cartesian    0.00
    179 x         11.014756     11.005503    -0.009252    Cartesian   -0.08
    179 y         -2.202951     -2.177380     0.025572    Cartesian   -1.16
    179 z         -2.202951     -2.194885     0.008066    Cartesian   -0.37
    180 x          6.608853      6.594954    -0.013900    Cartesian   -0.21
    180 y         -6.608853     -6.590822     0.018031    Cartesian   -0.27
    180 z         -2.202951     -2.196593     0.006358    Cartesian   -0.29
    181 x         -2.202951     -2.200967     0.001984    Cartesian   -0.09
    181 y         -6.608853     -6.581241     0.027613    Cartesian   -0.42
    181 z         -2.202951     -2.210715    -0.007764    Cartesian    0.35
    182 x          8.811805      8.811846     0.000041    Cartesian    0.00
    182 y          8.811805      8.811846     0.000041    Cartesian    0.00
    182 z          4.405902      4.390961    -0.014941    Cartesian   -0.34
    183 x          8.811805      8.830709     0.018905    Cartesian    0.21
    183 y         -4.405902     -4.420240    -0.014338    Cartesian    0.33
    183 z          4.405902      4.414236     0.008334    Cartesian    0.19
    184 x         -4.405902     -4.388728     0.017175    Cartesian   -0.39
    184 y         -4.405902     -4.388728     0.017175    Cartesian   -0.39
    184 z          4.405902      4.394293    -0.011610    Cartesian   -0.26
    185 x          2.202951      2.217447     0.014496    Cartesian    0.66
    185 y         11.014756     10.997462    -0.017293    Cartesian   -0.16
    185 z          6.608853      6.583605    -0.025248    Cartesian   -0.38
    186 x          2.202951      2.200819    -0.002132    Cartesian   -0.10
    186 y          2.202951      2.200819    -0.002132    Cartesian   -0.10
    186 z         11.014756     11.012441    -0.002315    Cartesian   -0.02
    187 x          2.202951      2.205747     0.002796    Cartesian    0.13
    187 y         -6.608853     -6.580467     0.028386    Cartesian   -0.43
    187 z          6.608853      6.573474    -0.035379    Cartesian   -0.54
    188 x          4.405902      4.417118     0.011216    Cartesian    0.25
    188 y         13.217707     13.247058     0.029351    Cartesian    0.22
    188 z          0.000000      0.000000     0.000000    Cartesian    0.00
    189 x          4.405902      4.408663     0.002760    Cartesian    0.06
    189 y          8.811805      8.812416     0.000611    Cartesian    0.01
    189 z          8.811805      8.815213     0.003408    Cartesian    0.04
    190 x         13.217707     13.230113     0.012407    Cartesian    0.09
    190 y          0.000000     -0.011475    -0.011475    Cartesian    0.00
    190 z          0.000000      0.000000     0.000000    Cartesian    0.00
    191 x          8.811805      8.816203     0.004398    Cartesian    0.05
    191 y          0.000000     -0.002779    -0.002779    Cartesian    0.00
    191 z          8.811805      8.814535     0.002730    Cartesian    0.03
    192 x          4.405902      4.407223     0.001321    Cartesian    0.03
    192 y         -4.405902     -4.406863    -0.000960    Cartesian    0.02
    192 z          8.811805      8.809800    -0.002004    Cartesian   -0.02
    193 x          4.405902      4.400243    -0.005660    Cartesian   -0.13
    193 y         -8.811805     -8.824328    -0.012523    Cartesian    0.14
    193 z          0.000000      0.000000     0.000000    Cartesian    0.00
    194 x          0.000000      0.001263     0.001263    Cartesian    0.00
    194 y         -4.405902     -4.392662     0.013241    Cartesian   -0.30
    194 z          8.811805      8.804240    -0.007565    Cartesian   -0.09
    195 x          0.000000      0.002716     0.002716    Cartesian    0.00
    195 y         -8.811805     -8.837190    -0.025385    Cartesian    0.29
    195 z          0.000000      0.000000     0.000000    Cartesian    0.00
    196 x          6.608853      6.601307    -0.007546    Cartesian   -0.11
    196 y         11.014756     10.986571    -0.028185    Cartesian   -0.26
    196 z          6.608853      6.570313    -0.038540    Cartesian   -0.58
    197 x          2.202951      2.204626     0.001674    Cartesian    0.08
    197 y          6.608853      6.616992     0.008139    Cartesian    0.12
    197 z         11.014756     10.982310    -0.032446    Cartesian   -0.29
    198 x         11.014756     10.988011    -0.026745    Cartesian   -0.24
    198 y         -2.202951     -2.170340     0.032612    Cartesian   -1.48
    198 z          6.608853      6.581357    -0.027496    Cartesian   -0.42
    199 x          2.202951      2.204129     0.001178    Cartesian    0.05
    199 y         -2.202951     -2.193420     0.009531    Cartesian   -0.43
    199 z         11.014756     10.981116    -0.033640    Cartesian   -0.31
    200 x          6.608853      6.585813    -0.023040    Cartesian   -0.35
    200 y         -6.608853     -6.572881     0.035972    Cartesian   -0.54
    200 z          6.608853      6.582222    -0.026631    Cartesian   -0.40
    201 x         -2.202951     -2.186397     0.016554    Cartesian   -0.75
    201 y         -6.608853     -6.569683     0.039170    Cartesian   -0.59
    201 z          6.608853      6.567209    -0.041645    Cartesian   -0.63
--------------------------------------------------------------------------------


  Time to end of optimisation  =       62.5897 seconds


  Peak dynamic memory used =      90.31 MB 


  Timing analysis for GULP :

--------------------------------------------------------------------------------
  Task / Subroutine                                          Time (Seconds)
--------------------------------------------------------------------------------
  Calculation of reciprocal space energy and derivatives          0.0006
  Calculation of reciprocal space energy using symmetry           0.0011
  Calculation of real space energy and derivatives                0.0038
  Calculation of real space energy using symmetry                 0.0113
  Calculation for region 1 energy and derivatives (2-b)          33.7703
  Calculation for region 2a energy                               25.0288
  Calculation for region 2b energy                                0.0147
  Calculation and manipulation of Hessian matrix                  3.2825
  Calculation of matrix inversion                                 0.3201
  Symmetry generation of equivalent positions                     0.0044
--------------------------------------------------------------------------------
  Total CPU time                                                 62.5898
--------------------------------------------------------------------------------


  Dump file written as Na3OCl.grs


  Job Finished at 15:16.09 19th January    2021                               

