********************************************************************************
*                       GENERAL UTILITY LATTICE PROGRAM                        *
*                                 Julian Gale                                  *
*                       Curtin Institute for Computation                       *
*                    School of Molecular and Life Sciences                     *
*                    Curtin University, Western Australia                      *
********************************************************************************
* Version = 5.2.0 * Last modified =  10th September 2020                       *
********************************************************************************
*  optimise     - perform optimisation run                                     *
*  conp         - constant pressure calculation                                *
*  property     - calculate properties for final geometry                      *
*  defect       - perform defect calculation after bulk run                    *
*  compare      - compare initial and final structures                         *
********************************************************************************

  Job Started  at 15:15.28 19th January    2021                               

  Number of CPUs =     1


  Total number of configurations input =      1

********************************************************************************
*  Input for Configuration =   1                                               *
********************************************************************************

  Formula = OClNa3                                                      

  Number of irreducible atoms/shells =       5


  Total number atoms/shells =       7

  Dimensionality = 3               :  Bulk   


  Symmetry :

  Crystal family                   :  Cubic       
  Crystal class  (Groth - 1921)    :  Cubic Hexakisoctahedral              

  Space group (centrosymmetric)    :  P M 3 M         

  Patterson group                  :  P m -3 m 

  Cartesian lattice vectors (Angstroms) :

        4.504000    0.000000    0.000000
        0.000000    4.504000    0.000000
        0.000000    0.000000    4.504000

  Cell parameters (Angstroms/Degrees):

  a =       4.5040    alpha =  90.0000
  b =       4.5040    beta  =  90.0000
  c =       4.5040    gamma =  90.0000

  Initial cell volume =          91.368216 Angs**3

  Temperature of configuration =   0.00     K 

  Pressure of configuration =         0.000 GPa 

  Fractional coordinates of asymmetric unit :

--------------------------------------------------------------------------------
   No.  Atomic       x           y          z         Charge      Occupancy
        Label      (Frac)      (Frac)     (Frac)        (e)         (Frac)  
--------------------------------------------------------------------------------
      1 O     c    0.000000    0.000000    0.000000     0.18300    1.000000    
      2 Cl    c    0.500000    0.500000    0.500000     1.48500    1.000000    
      3 Na    c    0.500000    0.000000    0.000000     1.00000    1.000000    
      4 O     s    0.000000    0.000000    0.000000    -2.18300    1.000000    
      5 Cl    s    0.500000    0.500000    0.500000    -2.48500    1.000000    
--------------------------------------------------------------------------------


  Constraints : 

--------------------------------------------------------------------------------
  Constraint no.      Unconstrained     Constrained    Coefficient    Offset
                         Variable         Variable
--------------------------------------------------------------------------------
           1              Strain 1        Strain 2       1.00000      0.0000
           2              Strain 1        Strain 3       1.00000      0.0000
--------------------------------------------------------------------------------


********************************************************************************
*  General input information                                                   *
********************************************************************************

  Species output for all configurations : 

--------------------------------------------------------------------------------
  Species    Type    Atomic    Atomic    Charge       Radii (Angs)     Library
                     Number     Mass       (e)     Cova   Ionic  VDW   Symbol
--------------------------------------------------------------------------------
    Na       Core       11      22.99   1.000000   0.970  0.000  2.300          
    O        Core        8      16.00   0.183000   0.730  0.000  1.360          
    O        Shell       8       0.00  -2.183000   0.730  0.000  1.360          
    Cl       Core       17      35.45   1.485000   0.990  0.000  1.650          
    Cl       Shell      17       0.00  -2.485000   0.990  0.000  1.650          
    Mg       Core       12      24.31   0.415000   1.100  0.000  0.000          
    Mg       Shell      12       0.00   1.585000   1.100  0.000  0.000          
    Ca       Core       20      40.08  -1.135000   0.990  0.000  0.000          
    Ca       Shell      20       0.00   3.135000   0.990  0.000  0.000          
    Sr       Core       38      87.62  -1.251000   1.120  0.000  0.000          
    Sr       Shell      38       0.00   3.251000   1.120  0.000  0.000          
    Ba       Core       56     137.33  -7.203000   1.340  0.000  0.000          
    Ba       Shell      56       0.00   9.203000   1.340  0.000  0.000          
--------------------------------------------------------------------------------


  Lattice summation method               =    Ewald          (3-D)
                                         =    Parry          (2-D)
                                         =    Saunders et al (1-D)
  Accuracy factor for lattice sums       =   12.000


  Analytic derivatives to be used

  Time limit = Infinity

  Maximum range for interatomic potentials =    100000.000000 Angstroms

  General interatomic potentials :

--------------------------------------------------------------------------------
Atom  Types   Potential      Parameter       Value         Units   Cutoffs(Ang)
  1     2                                                            Min /  Max 
--------------------------------------------------------------------------------
O    c O    s Spring (c-s)  Spring k 2       593.71600    eV*Ang^-2 0.000  0.800
                            Spring k 4       0.0000000    eV*Ang^-4 
--------------------------------------------------------------------------------
Cl   c Cl   s Spring (c-s)  Spring k 2       29.380000    eV*Ang^-2 0.000  0.800
                            Spring k 4       0.0000000    eV*Ang^-4 
--------------------------------------------------------------------------------
Mg   c Mg   s Spring (c-s)  Spring k 2       361.60000    eV*Ang^-2 0.000  0.800
                            Spring k 4       0.0000000    eV*Ang^-4 
--------------------------------------------------------------------------------
Ca   c Ca   s Spring (c-s)  Spring k 2       110.20000    eV*Ang^-2 0.000  0.800
                            Spring k 4       0.0000000    eV*Ang^-4 
--------------------------------------------------------------------------------
Sr   c Sr   s Spring (c-s)  Spring k 2       71.700000    eV*Ang^-2 0.000  0.800
                            Spring k 4       0.0000000    eV*Ang^-4 
--------------------------------------------------------------------------------
Ba   c Ba   s Spring (c-s)  Spring k 2       495.20000    eV*Ang^-2 0.000  0.800
                            Spring k 4       0.0000000    eV*Ang^-4 
--------------------------------------------------------------------------------
Na   c Na   c Buckingham    Buckingham A     1788.1900    eV        0.000 12.000
                            Buckingham rho  0.15900000    Ang       
                            Buckingham C     0.0000000    eV*Ang^6  
--------------------------------------------------------------------------------
Na   c O    s Buckingham    Buckingham A     588.38000    eV        0.000 12.000
                            Buckingham rho  0.33800000    Ang       
                            Buckingham C     0.0000000    eV*Ang^6  
--------------------------------------------------------------------------------
Na   c Cl   s Buckingham    Buckingham A     1170.4100    eV        0.000 12.000
                            Buckingham rho  0.31500000    Ang       
                            Buckingham C     0.0000000    eV*Ang^6  
--------------------------------------------------------------------------------
O    s O    s Buckingham    Buckingham A     22764.300    eV        0.000 12.000
                            Buckingham rho  0.14900000    Ang       
                            Buckingham C     13.190000    eV*Ang^6  
--------------------------------------------------------------------------------
O    s Cl   s Buckingham    Buckingham A     8286.9100    eV        0.000 12.000
                            Buckingham rho  0.25900000    Ang       
                            Buckingham C     62.200000    eV*Ang^6  
--------------------------------------------------------------------------------
Cl   s Cl   s Buckingham    Buckingham A     1227.2000    eV        0.000 12.000
                            Buckingham rho  0.32100000    Ang       
                            Buckingham C     14.530000    eV*Ang^6  
--------------------------------------------------------------------------------
O    s Mg   s Buckingham    Buckingham A     1428.5000    eV        0.000 12.000
                            Buckingham rho  0.29450000    Ang       
                            Buckingham C     0.0000000    eV*Ang^6  
--------------------------------------------------------------------------------
Mg   s Cl   s Buckingham    Buckingham A     4914.5400    eV        0.000 12.000
                            Buckingham rho  0.25700000    Ang       
                            Buckingham C     0.0000000    eV*Ang^6  
--------------------------------------------------------------------------------
O    s Ca   s Buckingham    Buckingham A     1090.4000    eV        0.000 12.000
                            Buckingham rho  0.34370000    Ang       
                            Buckingham C     0.0000000    eV*Ang^6  
--------------------------------------------------------------------------------
Cl   s Ca   s Buckingham    Buckingham A     2302.0000    eV        0.000 12.000
                            Buckingham rho  0.34020000    Ang       
                            Buckingham C     0.0000000    eV*Ang^6  
--------------------------------------------------------------------------------
O    s Sr   s Buckingham    Buckingham A     959.10000    eV        0.000 12.000
                            Buckingham rho  0.37210000    Ang       
                            Buckingham C     0.0000000    eV*Ang^6  
--------------------------------------------------------------------------------
Cl   s Sr   s Buckingham    Buckingham A     2191.0900    eV        0.000 12.000
                            Buckingham rho  0.34570000    Ang       
                            Buckingham C     0.0000000    eV*Ang^6  
--------------------------------------------------------------------------------
O    s Ba   s Buckingham    Buckingham A     905.70000    eV        0.000 12.000
                            Buckingham rho  0.39760000    Ang       
                            Buckingham C     0.0000000    eV*Ang^6  
--------------------------------------------------------------------------------
Cl   s Ba   s Buckingham    Buckingham A     2704.5500    eV        0.000 12.000
                            Buckingham rho  0.35280000    Ang       
                            Buckingham C     0.0000000    eV*Ang^6  
--------------------------------------------------------------------------------

********************************************************************************
*  Output for configuration   1                                                *
********************************************************************************


  Components of energy : 

--------------------------------------------------------------------------------
  Interatomic potentials     =           4.94315381 eV    
  Monopole - monopole (real) =         -10.03624526 eV    
  Monopole - monopole (recip)=         -29.53581274 eV    
  Monopole - monopole (total)=         -39.57205800 eV    
--------------------------------------------------------------------------------
  Total lattice energy       =         -34.62890419 eV    
--------------------------------------------------------------------------------
  Total lattice energy       =           -3341.1599 kJ/(mole unit cells)
--------------------------------------------------------------------------------


  Number of variables =        1

  Maximum number of calculations  =          1000
  Maximum Hessian update interval =            10
  Maximum step size               =   1.000000000
  Maximum parameter tolerance     =   0.000010000
  Maximum function  tolerance     =   0.000010000
  Maximum gradient  tolerance     =   0.001000000
  Maximum gradient  component     =   0.010000000

  Symmetry constrained optimisation

  Symmetry used for second derivatives

  Cell parameters to be optimised using strains

  Newton-Raphson optimiser to be used

  BFGS hessian update to be used

  Lower half triangular hessian to be used

  Start of bulk optimisation :

  Cycle:      0 Energy:       -34.628904  Gnorm:      4.328237  CPU:    0.016
  ** Hessian calculated **
  Cycle:      1 Energy:       -34.677667  Gnorm:      0.044008  CPU:    0.021
  Cycle:      2 Energy:       -34.677671  Gnorm:      0.003653  CPU:    0.024


  **** Optimisation achieved ****


  Final energy =     -34.67767136 eV
  Final Gnorm  =       0.00000010

  Components of energy : 

--------------------------------------------------------------------------------
  Interatomic potentials     =           5.77546103 eV    
  Monopole - monopole (real) =         -10.25970290 eV    
  Monopole - monopole (recip)=         -30.19342950 eV    
  Monopole - monopole (total)=         -40.45313239 eV    
--------------------------------------------------------------------------------
  Total lattice energy       =         -34.67767136 eV    
--------------------------------------------------------------------------------
  Total lattice energy       =           -3345.8652 kJ/(mole unit cells)
--------------------------------------------------------------------------------

  Final asymmetric unit coordinates :

--------------------------------------------------------------------------------
   No.  Atomic        x           y           z         Radius
        Label       (Frac)      (Frac)      (Frac)       (Angs) 
--------------------------------------------------------------------------------
     1  O     c     0.000000    0.000000    0.000000    0.000000
     2  Cl    c     0.500000    0.500000    0.500000    0.000000
     3  Na    c     0.500000    0.000000    0.000000    0.000000
     4  O     s     0.000000    0.000000    0.000000    0.000000
     5  Cl    s     0.500000    0.500000    0.500000    0.000000
--------------------------------------------------------------------------------

  Final Cartesian lattice vectors (Angstroms) :

        4.405902    0.000000    0.000000
        0.000000    4.405902    0.000000
        0.000000    0.000000    4.405902


  Final cell parameters and derivatives :

--------------------------------------------------------------------------------
       a            4.405902 Angstrom     dE/de1(xx)     0.000000 eV/strain
       b            4.405902 Angstrom     dE/de2(yy)     0.000000 eV/strain
       c            4.405902 Angstrom     dE/de3(zz)     0.000000 eV/strain
       alpha       90.000000 Degrees      dE/de4(yz)     0.000000 eV/strain
       beta        90.000000 Degrees      dE/de5(xz)     0.000000 eV/strain
       gamma       90.000000 Degrees      dE/de6(xy)     0.000000 eV/strain
--------------------------------------------------------------------------------

  Primitive cell volume =            85.527266 Angs**3

  Density of cell =      2.338030 g/cm**3

  Non-primitive cell volume =            85.527266 Angs**3


  Final internal derivatives :

--------------------------------------------------------------------------------
   No.  Atomic          a             b             c           Radius
        Label          (eV)          (eV)          (eV)        (eV/Angs)
--------------------------------------------------------------------------------
      1 O     c       0.000000      0.000000      0.000000      0.000000
      2 Cl    c       0.000000      0.000000      0.000000      0.000000
      3 Na    c       0.000000      0.000000      0.000000      0.000000
      4 O     s       0.000000      0.000000      0.000000      0.000000
      5 Cl    s       0.000000      0.000000      0.000000      0.000000
--------------------------------------------------------------------------------
  Maximum abs         0.000000      0.000000      0.000000      0.000000
--------------------------------------------------------------------------------

  Comparison of initial and final structures : 

--------------------------------------------------------------------------------
  Parameter   Initial value   Final value   Difference    Units      Percent
--------------------------------------------------------------------------------
    Volume        91.368216     85.527266    -5.840950    Angs**3     -6.39
    a              4.504000      4.405902    -0.098098    Angstroms   -2.18
    b              4.504000      4.405902    -0.098098    Angstroms   -2.18
    c              4.504000      4.405902    -0.098098    Angstroms   -2.18
    alpha         90.000000     90.000000     0.000000    Degrees      0.00
    beta          90.000000     90.000000     0.000000    Degrees      0.00
    gamma         90.000000     90.000000     0.000000    Degrees      0.00
      1 x          0.000000      0.000000     0.000000    Fractional   0.00
      1 y          0.000000      0.000000     0.000000    Fractional   0.00
      1 z          0.000000      0.000000     0.000000    Fractional   0.00
      2 x          0.500000      0.500000     0.000000    Fractional   0.00
      2 y          0.500000      0.500000     0.000000    Fractional   0.00
      2 z          0.500000      0.500000     0.000000    Fractional   0.00
      3 x          0.500000      0.500000     0.000000    Fractional   0.00
      3 y          0.000000      0.000000     0.000000    Fractional   0.00
      3 z          0.000000      0.000000     0.000000    Fractional   0.00
      4 x          0.000000      0.000000     0.000000    Fractional   0.00
      4 y          0.000000      0.000000     0.000000    Fractional   0.00
      4 z          0.000000      0.000000     0.000000    Fractional   0.00
      5 x          0.500000      0.500000     0.000000    Fractional   0.00
      5 y          0.500000      0.500000     0.000000    Fractional   0.00
      5 z          0.500000      0.500000     0.000000    Fractional   0.00
--------------------------------------------------------------------------------


  Born effective charge tensors : 

-------------------------------------------------------------------------------
  Atom             x           y             z
-------------------------------------------------------------------------------
    1 O     x      -2.2939      0.0000      0.0000
            y       0.0000     -2.2939      0.0000
            z       0.0000      0.0000     -2.2939
-------------------------------------------------------------------------------
    2 Cl    x      -0.9918     -0.0000      0.0000
            y      -0.0000     -0.9918      0.0000
            z       0.0000      0.0000     -0.9918
-------------------------------------------------------------------------------
    3 Na    x       0.8372     -0.0000     -0.0000
            y      -0.0000      1.2243     -0.0000
            z       0.0000     -0.0000      1.2243
-------------------------------------------------------------------------------




  Elastic Constant Matrix: (Units=GPa)

-------------------------------------------------------------------------------
  Indices      1         2         3         4         5         6    
-------------------------------------------------------------------------------
       1     82.7680   24.3534   24.3534   -0.0000    0.0000   -0.0000
       2     24.3534   82.7680   24.3534   -0.0000   -0.0000   -0.0000
       3     24.3534   24.3534   82.7680    0.0000   -0.0000    0.0000
       4     -0.0000   -0.0000    0.0000   24.3534   -0.0000   -0.0000
       5      0.0000   -0.0000   -0.0000   -0.0000   24.3534   -0.0000
       6     -0.0000   -0.0000    0.0000   -0.0000   -0.0000   24.3534
-------------------------------------------------------------------------------


  Elastic Compliance Matrix: (Units=1/GPa)

-------------------------------------------------------------------------------
  Indices      1         2         3         4         5         6    
-------------------------------------------------------------------------------
       1    0.013948 -0.003171 -0.003171 -0.000000 -0.000000  0.000000
       2   -0.003171  0.013948 -0.003171  0.000000 -0.000000  0.000000
       3   -0.003171 -0.003171  0.013948 -0.000000  0.000000 -0.000000
       4   -0.000000  0.000000 -0.000000  0.041062  0.000000  0.000000
       5   -0.000000 -0.000000  0.000000  0.000000  0.041062  0.000000
       6    0.000000  0.000000 -0.000000  0.000000  0.000000  0.041062
-------------------------------------------------------------------------------

  Mechanical properties :

-------------------------------------------------------------------------------
  Convention :                    Reuss         Voigt         Hill
-------------------------------------------------------------------------------
  Bulk  Modulus (GPa)     =      43.82493      43.82493      43.82493
  Shear Modulus (GPa)     =      26.08758      26.29496      26.19127
-------------------------------------------------------------------------------
  Velocity S-wave (km/s)  =       3.34035       3.35360       3.34698
  Velocity P-wave (km/s)  =       5.79842       5.80861       5.80351
-------------------------------------------------------------------------------
  Compressibility (1/GPa) =    0.02281806
-------------------------------------------------------------------------------
  Stress axis :                     x             y             z
-------------------------------------------------------------------------------
  Youngs Moduli (GPa)     =      71.69479      71.69479      71.69479
-------------------------------------------------------------------------------
  Poissons Ratio (x)      =                     0.22734       0.22734
  Poissons Ratio (y)      =       0.22734                     0.22734
  Poissons Ratio (z)      =       0.22734       0.22734
-------------------------------------------------------------------------------


  Piezoelectric Strain Matrix: (Units=C/m**2)

-------------------------------------------------------------------------------
  Indices      1         2         3         4         5         6    
-------------------------------------------------------------------------------
       x    -0.00000  -0.00000  -0.00000  -0.00000   0.00000   0.00000
       y    -0.00000   0.00000  -0.00000   0.00000  -0.00000   0.00000
       z     0.00000   0.00000   0.00000  -0.00000   0.00000  -0.00000
-------------------------------------------------------------------------------


  Piezoelectric Stress Matrix: (Units=10**-11 C/N)

-------------------------------------------------------------------------------
  Indices      1         2         3         4         5         6    
-------------------------------------------------------------------------------
       x    -0.00000  -0.00000  -0.00000  -0.00000   0.00000   0.00000
       y    -0.00000   0.00000  -0.00000   0.00000  -0.00000   0.00000
       z     0.00000   0.00000  -0.00000  -0.00000   0.00000  -0.00000
-------------------------------------------------------------------------------


  Static dielectric constant tensor : 

-------------------------------------------------------------------------------
              x         y         z
-------------------------------------------------------------------------------
       x    11.08357  -0.00000  -0.00000
       y    -0.00000  11.08357  -0.00000
       z    -0.00000  -0.00000  11.08357
--------------------------------------------------------------------------------

  High frequency dielectric constant tensor : 

-------------------------------------------------------------------------------
              x         y         z
-------------------------------------------------------------------------------
       x     1.50771  -0.00000  -0.00000
       y    -0.00000   1.50771  -0.00000
       z    -0.00000  -0.00000   1.50771
-------------------------------------------------------------------------------

  Static refractive indices : 

-------------------------------------------------------------------------------
    1 =    3.32920      2 =    3.32920      3 =    3.32920
-------------------------------------------------------------------------------

  High frequency refractive indices : 

-------------------------------------------------------------------------------
    1 =    1.22789      2 =    1.22789      3 =    1.22789
-------------------------------------------------------------------------------


  Time to end of optimisation =       0.0343 seconds

********************************************************************************
*  Defect calculation for configuration   1 :                                  *
********************************************************************************

  Total number of defects =      3

  Total charge on defect  =   2.00

  Defect centre is at   2.2520   2.2520   0.0000  Angs

  Region 1 radius =  12.0000      Number of ions =    622

  Number of symmetry inequivalent region 1 ions  =    201

  Region 2 radius =  16.0000      Number of ions =    762

  Number of symmetry inequivalent region 2a ions =    224

  Region 2a mode = 4 : screened electrostatics due to region 1 
                       neglect correction to region 1 forces from 2a
                       region 2a displacements based on defects only

  Region 2a ions will only interact with defects in region 1

  Vacancies:

--------------------------------------------------------------------------------
    Specification type     Symbol/Number         x          y          z
--------------------------------------------------------------------------------
    Cartesian                                0.000000   0.000000   0.000000
    Cartesian                                4.504000   4.504000   0.000000
--------------------------------------------------------------------------------

  Interstitials:

--------------------------------------------------------------------------------
    Specification type     Symbol/Number         x          y          z
--------------------------------------------------------------------------------
    Atom/Cartesian          O                1.981760   1.981760   0.000000
--------------------------------------------------------------------------------


  Symmetry reduced region 1 (Relative to defect centre) :

--------------------------------------------------------------------------------
   No.   Atomic       x            y             z       Radius  Multiplicity   
         Label      (Angs)       (Angs)        (Angs)    (Angs)     
--------------------------------------------------------------------------------
     1  O     c     -0.2702      -0.2702       0.0000    0.0000     1    Defect
     2  Na    c     -0.0490 *     2.1539 *     0.0000    0.0000     2          
     3  Cl    c     -0.0490 *    -0.0490      -2.2030 *  0.0000     2          
     4  Na    c     -0.0490 *    -2.2520 *     0.0000    0.0000     2          
     5  O     c      2.1539 *    -2.2520 *     0.0000    0.0000     2          
     6  Na    c      2.1539 *     2.1539      -2.2030 *  0.0000     2          
     7  Na    c      2.1539 *    -2.2520 *    -2.2030 *  0.0000     4          
     8  Na    c     -2.2520 *    -2.2520      -2.2030 *  0.0000     2          
     9  Na    c      4.3569 *     2.1539 *     0.0000    0.0000     2          
    10  Cl    c     -0.0490 *     4.3569 *    -2.2030 *  0.0000     4          
    11  Na    c     -0.0490 *     2.1539 *     4.4059 *  0.0000     4          
    12  Na    c      4.3569 *    -2.2520 *     0.0000    0.0000     2          
    13  Na    c     -0.0490 *    -2.2520 *     4.4059 *  0.0000     4          
    14  Na    c     -4.4550 *     2.1539 *     0.0000    0.0000     2          
    15  Cl    c     -0.0490 *    -4.4550 *    -2.2030 *  0.0000     4          
    16  Na    c     -4.4550 *    -2.2520 *     0.0000    0.0000     2          
    17  O     c      2.1539 *     2.1539       4.4059 *  0.0000     2          
    18  O     c      2.1539 *    -2.2520 *     4.4059 *  0.0000     4          
    19  O     c     -2.2520 *    -2.2520       4.4059 *  0.0000     2          
    20  Cl    c      4.3569 *     4.3569      -2.2030 *  0.0000     2          
    21  Na    c     -0.0490 *     6.5598 *     0.0000    0.0000     2          
    22  Na    c      4.3569 *     2.1539 *     4.4059 *  0.0000     4          
    23  Na    c      4.3569 *    -2.2520 *     4.4059 *  0.0000     4          
    24  Cl    c     -0.0490 *    -0.0490       6.6089 *  0.0000     2          
    25  Cl    c      4.3569 *    -4.4550 *    -2.2030 *  0.0000     4          
    26  Na    c     -4.4550 *     2.1539 *     4.4059 *  0.0000     4          
    27  Na    c     -0.0490 *    -6.6579 *     0.0000    0.0000     2          
    28  Na    c     -4.4550 *    -2.2520 *     4.4059 *  0.0000     4          
    29  Cl    c     -4.4550 *    -4.4550      -2.2030 *  0.0000     2          
    30  O     c      2.1539 *     6.5598 *     0.0000    0.0000     2          
    31  O     c      6.5598 *    -2.2520 *     0.0000    0.0000     2          
    32  O     c      2.1539 *    -6.6579 *     0.0000    0.0000     2          
    33  O     c     -2.2520 *    -6.6579 *     0.0000    0.0000     2          
    34  Na    c      2.1539 *     6.5598 *    -2.2030 *  0.0000     4          
    35  Na    c      2.1539 *     2.1539       6.6089 *  0.0000     2          
    36  Na    c      6.5598 *    -2.2520 *    -2.2030 *  0.0000     4          
    37  Na    c      2.1539 *    -2.2520 *     6.6089 *  0.0000     4          
    38  Na    c      2.1539 *    -6.6579 *    -2.2030 *  0.0000     4          
    39  Na    c     -2.2520 *    -2.2520       6.6089 *  0.0000     2          
    40  Na    c     -2.2520 *    -6.6579 *    -2.2030 *  0.0000     4          
    41  Na    c      4.3569 *     6.5598 *     0.0000    0.0000     2          
    42  Na    c     -0.0490 *     6.5598 *     4.4059 *  0.0000     4          
    43  Cl    c     -0.0490 *     4.3569 *     6.6089 *  0.0000     4          
    44  Na    c     -4.4550 *     6.5598 *     0.0000    0.0000     2          
    45  Na    c      4.3569 *    -6.6579 *     0.0000    0.0000     2          
    46  Cl    c     -0.0490 *    -4.4550 *     6.6089 *  0.0000     4          
    47  Na    c     -0.0490 *    -6.6579 *     4.4059 *  0.0000     4          
    48  Na    c     -4.4550 *    -6.6579 *     0.0000    0.0000     2          
    49  O     c      2.1539 *     6.5598 *     4.4059 *  0.0000     4          
    50  O     c      6.5598 *    -2.2520 *     4.4059 *  0.0000     4          
    51  O     c      2.1539 *    -6.6579 *     4.4059 *  0.0000     4          
    52  O     c     -2.2520 *    -6.6579 *     4.4059 *  0.0000     4          
    53  Na    c      4.3569 *     6.5598 *     4.4059 *  0.0000     4          
    54  Na    c      8.7628 *     2.1539 *     0.0000    0.0000     2          
    55  Cl    c     -0.0490 *     8.7628 *    -2.2030 *  0.0000     4          
    56  Cl    c      4.3569 *     4.3569       6.6089 *  0.0000     2          
    57  Na    c      8.7628 *    -2.2520 *     0.0000    0.0000     2          
    58  Na    c     -0.0490 *     2.1539 *     8.8118 *  0.0000     4          
    59  Na    c     -4.4550 *     6.5598 *     4.4059 *  0.0000     4          
    60  Cl    c      4.3569 *    -4.4550 *     6.6089 *  0.0000     4          
    61  Na    c     -0.0490 *    -2.2520 *     8.8118 *  0.0000     4          
    62  Na    c      4.3569 *    -6.6579 *     4.4059 *  0.0000     4          
    63  Na    c     -8.8609 *     2.1539 *     0.0000    0.0000     2          
    64  Cl    c     -0.0490 *    -8.8609 *    -2.2030 *  0.0000     4          
    65  Cl    c     -4.4550 *    -4.4550       6.6089 *  0.0000     2          
    66  Na    c     -8.8609 *    -2.2520 *     0.0000    0.0000     2          
    67  Na    c     -4.4550 *    -6.6579 *     4.4059 *  0.0000     4          
    68  O     c      6.5598 *     6.5598       0.0000    0.0000     1          
    69  O     c      2.1539 *     2.1539       8.8118 *  0.0000     2          
    70  O     c      2.1539 *    -2.2520 *     8.8118 *  0.0000     4          
    71  O     c      6.5598 *    -6.6579 *     0.0000    0.0000     2          
    72  O     c     -2.2520 *    -2.2520       8.8118 *  0.0000     2          
    73  O     c     -6.6579 *    -6.6579       0.0000    0.0000     1          
    74  Na    c      6.5598 *     6.5598      -2.2030 *  0.0000     2          
    75  Na    c      2.1539 *     6.5598 *     6.6089 *  0.0000     4          
    76  Na    c      6.5598 *    -2.2520 *     6.6089 *  0.0000     4          
    77  Na    c      6.5598 *    -6.6579 *    -2.2030 *  0.0000     4          
    78  Na    c      2.1539 *    -6.6579 *     6.6089 *  0.0000     4          
    79  Na    c     -2.2520 *    -6.6579 *     6.6089 *  0.0000     4          
    80  Na    c     -6.6579 *    -6.6579      -2.2030 *  0.0000     2          
    81  Cl    c      4.3569 *     8.7628 *    -2.2030 *  0.0000     4          
    82  Na    c      8.7628 *     2.1539 *     4.4059 *  0.0000     4          
    83  Na    c      4.3569 *     2.1539 *     8.8118 *  0.0000     4          
    84  Na    c      8.7628 *    -2.2520 *     4.4059 *  0.0000     4          
    85  Cl    c      8.7628 *    -4.4550 *    -2.2030 *  0.0000     4          
    86  Na    c      4.3569 *    -2.2520 *     8.8118 *  0.0000     4          
    87  Na    c     -4.4550 *     2.1539 *     8.8118 *  0.0000     4          
    88  Cl    c      4.3569 *    -8.8609 *    -2.2030 *  0.0000     4          
    89  Na    c     -8.8609 *     2.1539 *     4.4059 *  0.0000     4          
    90  Na    c     -4.4550 *    -2.2520 *     8.8118 *  0.0000     4          
    91  Na    c     -8.8609 *    -2.2520 *     4.4059 *  0.0000     4          
    92  Cl    c     -4.4550 *    -8.8609 *    -2.2030 *  0.0000     4          
    93  O     c      6.5598 *     6.5598       4.4059 *  0.0000     2          
    94  O     c      6.5598 *    -6.6579 *     4.4059 *  0.0000     4          
    95  O     c     -6.6579 *    -6.6579       4.4059 *  0.0000     2          
    96  Na    c      8.7628 *     6.5598 *     0.0000    0.0000     2          
    97  Na    c     -0.0490 *    10.9657 *     0.0000    0.0000     2          
    98  Cl    c     -0.0490 *     8.7628 *     6.6089 *  0.0000     4          
    99  Na    c     -0.0490 *     6.5598 *     8.8118 *  0.0000     4          
   100  Na    c      8.7628 *    -6.6579 *     0.0000    0.0000     2          
   101  Cl    c     -0.0490 *    -0.0490      11.0148 *  0.0000     2          
   102  Na    c     -8.8609 *     6.5598 *     0.0000    0.0000     2          
   103  Na    c     -0.0490 *    -6.6579 *     8.8118 *  0.0000     4          
   104  Cl    c     -0.0490 *    -8.8609 *     6.6089 *  0.0000     4          
   105  Na    c     -0.0490 *   -11.0638 *     0.0000    0.0000     2          
   106  Na    c     -8.8609 *    -6.6579 *     0.0000    0.0000     2          
   107  O     c      2.1539 *    10.9657 *     0.0000    0.0000     2          
   108  O     c      2.1539 *     6.5598 *     8.8118 *  0.0000     4          
   109  O     c     10.9657 *    -2.2520 *     0.0000    0.0000     2          
   110  O     c      6.5598 *    -2.2520 *     8.8118 *  0.0000     4          
   111  O     c      2.1539 *    -6.6579 *     8.8118 *  0.0000     4          
   112  O     c      2.1539 *   -11.0638 *     0.0000    0.0000     2          
   113  O     c     -2.2520 *    -6.6579 *     8.8118 *  0.0000     4          
   114  O     c     -2.2520 *   -11.0638 *     0.0000    0.0000     2          
   115  Na    c      6.5598 *     6.5598       6.6089 *  0.0000     2          
   116  Na    c      2.1539 *    10.9657 *    -2.2030 *  0.0000     4          
   117  Na    c     10.9657 *    -2.2520 *    -2.2030 *  0.0000     4          
   118  Na    c      2.1539 *     2.1539      11.0148 *  0.0000     2          
   119  Na    c      2.1539 *    -2.2520 *    11.0148 *  0.0000     4          
   120  Na    c      6.5598 *    -6.6579 *     6.6089 *  0.0000     4          
   121  Na    c     -2.2520 *    -2.2520      11.0148 *  0.0000     2          
   122  Na    c      2.1539 *   -11.0638 *    -2.2030 *  0.0000     4          
   123  Na    c     -2.2520 *   -11.0638 *    -2.2030 *  0.0000     4          
   124  Na    c     -6.6579 *    -6.6579       6.6089 *  0.0000     2          
   125  Na    c      4.3569 *    10.9657 *     0.0000    0.0000     2          
   126  Na    c      8.7628 *     6.5598 *     4.4059 *  0.0000     4          
   127  Cl    c      4.3569 *     8.7628 *     6.6089 *  0.0000     4          
   128  Na    c     -0.0490 *    10.9657 *     4.4059 *  0.0000     4          
   129  Na    c      4.3569 *     6.5598 *     8.8118 *  0.0000     4          
   130  Na    c     -4.4550 *    10.9657 *     0.0000    0.0000     2          
   131  Cl    c     -0.0490 *     4.3569 *    11.0148 *  0.0000     4          
   132  Cl    c      8.7628 *    -4.4550 *     6.6089 *  0.0000     4          
   133  Na    c     -4.4550 *     6.5598 *     8.8118 *  0.0000     4          
   134  Na    c      8.7628 *    -6.6579 *     4.4059 *  0.0000     4          
   135  Na    c      4.3569 *    -6.6579 *     8.8118 *  0.0000     4          
   136  Na    c     -8.8609 *     6.5598 *     4.4059 *  0.0000     4          
   137  Cl    c     -0.0490 *    -4.4550 *    11.0148 *  0.0000     4          
   138  Cl    c      4.3569 *    -8.8609 *     6.6089 *  0.0000     4          
   139  Na    c      4.3569 *   -11.0638 *     0.0000    0.0000     2          
   140  Na    c     -0.0490 *   -11.0638 *     4.4059 *  0.0000     4          
   141  Na    c     -4.4550 *    -6.6579 *     8.8118 *  0.0000     4          
   142  Cl    c     -4.4550 *    -8.8609 *     6.6089 *  0.0000     4          
   143  Na    c     -4.4550 *   -11.0638 *     0.0000    0.0000     2          
   144  Na    c     -8.8609 *    -6.6579 *     4.4059 *  0.0000     4          
   145  O     s     -0.2702      -0.2702       0.0000    0.0000     1    Defect
   146  Cl    s     -0.0490 *    -0.0490      -2.2030 *  0.0000     2          
   147  O     s      2.1539 *    -2.2520 *     0.0000    0.0000     2          
   148  Cl    s     -0.0490 *     4.3569 *    -2.2030 *  0.0000     4          
   149  Cl    s     -0.0490 *    -4.4550 *    -2.2030 *  0.0000     4          
   150  O     s      2.1539 *     2.1539       4.4059 *  0.0000     2          
   151  O     s      2.1539 *    -2.2520 *     4.4059 *  0.0000     4          
   152  O     s     -2.2520 *    -2.2520       4.4059 *  0.0000     2          
   153  Cl    s      4.3569 *     4.3569      -2.2030 *  0.0000     2          
   154  Cl    s     -0.0490 *    -0.0490       6.6089 *  0.0000     2          
   155  Cl    s      4.3569 *    -4.4550 *    -2.2030 *  0.0000     4          
   156  Cl    s     -4.4550 *    -4.4550      -2.2030 *  0.0000     2          
   157  O     s      2.1539 *     6.5598 *     0.0000    0.0000     2          
   158  O     s      6.5598 *    -2.2520 *     0.0000    0.0000     2          
   159  O     s      2.1539 *    -6.6579 *     0.0000    0.0000     2          
   160  O     s     -2.2520 *    -6.6579 *     0.0000    0.0000     2          
   161  Cl    s     -0.0490 *     4.3569 *     6.6089 *  0.0000     4          
   162  Cl    s     -0.0490 *    -4.4550 *     6.6089 *  0.0000     4          
   163  O     s      2.1539 *     6.5598 *     4.4059 *  0.0000     4          
   164  O     s      6.5598 *    -2.2520 *     4.4059 *  0.0000     4          
   165  O     s      2.1539 *    -6.6579 *     4.4059 *  0.0000     4          
   166  O     s     -2.2520 *    -6.6579 *     4.4059 *  0.0000     4          
   167  Cl    s     -0.0490 *     8.7628 *    -2.2030 *  0.0000     4          
   168  Cl    s      4.3569 *     4.3569       6.6089 *  0.0000     2          
   169  Cl    s      4.3569 *    -4.4550 *     6.6089 *  0.0000     4          
   170  Cl    s     -0.0490 *    -8.8609 *    -2.2030 *  0.0000     4          
   171  Cl    s     -4.4550 *    -4.4550       6.6089 *  0.0000     2          
   172  O     s      6.5598 *     6.5598       0.0000    0.0000     1          
   173  O     s      2.1539 *     2.1539       8.8118 *  0.0000     2          
   174  O     s      2.1539 *    -2.2520 *     8.8118 *  0.0000     4          
   175  O     s      6.5598 *    -6.6579 *     0.0000    0.0000     2          
   176  O     s     -2.2520 *    -2.2520       8.8118 *  0.0000     2          
   177  O     s     -6.6579 *    -6.6579       0.0000    0.0000     1          
   178  Cl    s      4.3569 *     8.7628 *    -2.2030 *  0.0000     4          
   179  Cl    s      8.7628 *    -4.4550 *    -2.2030 *  0.0000     4          
   180  Cl    s      4.3569 *    -8.8609 *    -2.2030 *  0.0000     4          
   181  Cl    s     -4.4550 *    -8.8609 *    -2.2030 *  0.0000     4          
   182  O     s      6.5598 *     6.5598       4.4059 *  0.0000     2          
   183  O     s      6.5598 *    -6.6579 *     4.4059 *  0.0000     4          
   184  O     s     -6.6579 *    -6.6579       4.4059 *  0.0000     2          
   185  Cl    s     -0.0490 *     8.7628 *     6.6089 *  0.0000     4          
   186  Cl    s     -0.0490 *    -0.0490      11.0148 *  0.0000     2          
   187  Cl    s     -0.0490 *    -8.8609 *     6.6089 *  0.0000     4          
   188  O     s      2.1539 *    10.9657 *     0.0000    0.0000     2          
   189  O     s      2.1539 *     6.5598 *     8.8118 *  0.0000     4          
   190  O     s     10.9657 *    -2.2520 *     0.0000    0.0000     2          
   191  O     s      6.5598 *    -2.2520 *     8.8118 *  0.0000     4          
   192  O     s      2.1539 *    -6.6579 *     8.8118 *  0.0000     4          
   193  O     s      2.1539 *   -11.0638 *     0.0000    0.0000     2          
   194  O     s     -2.2520 *    -6.6579 *     8.8118 *  0.0000     4          
   195  O     s     -2.2520 *   -11.0638 *     0.0000    0.0000     2          
   196  Cl    s      4.3569 *     8.7628 *     6.6089 *  0.0000     4          
   197  Cl    s     -0.0490 *     4.3569 *    11.0148 *  0.0000     4          
   198  Cl    s      8.7628 *    -4.4550 *     6.6089 *  0.0000     4          
   199  Cl    s     -0.0490 *    -4.4550 *    11.0148 *  0.0000     4          
   200  Cl    s      4.3569 *    -8.8609 *     6.6089 *  0.0000     4          
   201  Cl    s     -4.4550 *    -8.8609 *     6.6089 *  0.0000     4          
--------------------------------------------------------------------------------


  Constraints on symmetry reduced coordinates :

--------------------------------------------------------------------------------
  Constraint no.      Unconstrained     Constrained    Coefficient    
                         Variable         Variable
--------------------------------------------------------------------------------
           1                 3 x             3 y         1.00000
           2                 6 x             6 y         1.00000
           3                 8 x             8 y         1.00000
           4                17 x            17 y         1.00000
           5                19 x            19 y         1.00000
           6                20 x            20 y         1.00000
           7                24 x            24 y         1.00000
           8                29 x            29 y         1.00000
           9                35 x            35 y         1.00000
          10                39 x            39 y         1.00000
          11                56 x            56 y         1.00000
          12                65 x            65 y         1.00000
          13                68 x            68 y         1.00000
          14                69 x            69 y         1.00000
          15                72 x            72 y         1.00000
          16                73 x            73 y         1.00000
          17                74 x            74 y         1.00000
          18                80 x            80 y         1.00000
          19                93 x            93 y         1.00000
          20                95 x            95 y         1.00000
          21               101 x           101 y         1.00000
          22               115 x           115 y         1.00000
          23               118 x           118 y         1.00000
          24               121 x           121 y         1.00000
          25               124 x           124 y         1.00000
          26               146 x           146 y         1.00000
          27               150 x           150 y         1.00000
          28               152 x           152 y         1.00000
          29               153 x           153 y         1.00000
          30               154 x           154 y         1.00000
          31               156 x           156 y         1.00000
          32               168 x           168 y         1.00000
          33               171 x           171 y         1.00000
          34               172 x           172 y         1.00000
          35               173 x           173 y         1.00000
          36               176 x           176 y         1.00000
          37               177 x           177 y         1.00000
          38               182 x           182 y         1.00000
          39               184 x           184 y         1.00000
          40               186 x           186 y         1.00000
--------------------------------------------------------------------------------


  Components of defect energy : 

--------------------------------------------------------------------------------
  Region 1 - region 1                   =    101.83434996 eV
  Region 1 - region 2a (unrelaxed)      =    -55.09408206 eV
  Region 1 - 2a (relaxed - correction)  =     -1.00565731 eV
  Region 1 (Total)                      =     45.73461060 eV
  Region 2a                             =      0.50322651 eV
  Region 2b                             =     -1.64514794 eV
--------------------------------------------------------------------------------
  Total defect energy                   =     44.59268917 eV
--------------------------------------------------------------------------------

  Largest displacement in region 2 =   0.0422 Angstroms


  Number of variables =      507

  Maximum number of calculations  =        1000
  Maximum Hessian update interval =          10
  Maximum step size               =   1.0000000
  Maximum parameter tolerance     =   0.0000100
  Maximum function  tolerance     =   0.0000100
  Maximum gradient  tolerance     =   0.0010000

  Symmetry adapted optimisation

  Symmetry to be used for second derivatives

  Newton-Raphson optimiser to be used

  BFGS hessian update to be used

  Lower half triangular hessian to be used

  Start of defect optimisation :

  Cycle:      0 Defect Energy:  44.592689  Gnorm:     0.098365  CPU:    2.294
  ** Hessian calculated **
  Cycle:      1 Defect Energy:  36.687485  Gnorm:     0.073520  CPU:    7.872
  Cycle:      2 Defect Energy:  33.426723  Gnorm:     0.052100  CPU:   10.965
  ** Hessian calculated **
  Cycle:      3 Defect Energy:  30.448874  Gnorm:     0.037558  CPU:   15.449
  Cycle:      4 Defect Energy:  28.566235  Gnorm:     0.021977  CPU:   17.048
  Cycle:      5 Defect Energy:  28.366546  Gnorm:     0.020361  CPU:   19.223
  ** Hessian calculated **
  Cycle:      6 Defect Energy:  27.370086  Gnorm:     0.010638  CPU:   22.836
  ** Hessian calculated **
  Cycle:      7 Defect Energy:  26.723384  Gnorm:     0.008039  CPU:   31.495
  Cycle:      8 Defect Energy:  26.365078  Gnorm:     0.005128  CPU:   34.557
  Cycle:      9 Defect Energy:  26.200896  Gnorm:     0.003194  CPU:   35.231
  Cycle:     10 Defect Energy:  26.139485  Gnorm:     0.002405  CPU:   35.883
  Cycle:     11 Defect Energy:  26.101704  Gnorm:     0.001772  CPU:   36.520
  Cycle:     12 Defect Energy:  26.075515  Gnorm:     0.001419  CPU:   37.120
  Cycle:     13 Defect Energy:  26.051691  Gnorm:     0.001157  CPU:   37.770
  Cycle:     14 Defect Energy:  26.028487  Gnorm:     0.000968  CPU:   38.480
  Cycle:     15 Defect Energy:  26.004430  Gnorm:     0.000845  CPU:   39.121
  Cycle:     16 Defect Energy:  25.979354  Gnorm:     0.000722  CPU:   39.756
  ** Hessian calculated **
  Cycle:     17 Defect Energy:  25.954117  Gnorm:     0.000557  CPU:   41.730
  Cycle:     18 Defect Energy:  25.943263  Gnorm:     0.000458  CPU:   42.211
  Cycle:     19 Defect Energy:  25.939642  Gnorm:     0.000335  CPU:   42.834
  Cycle:     20 Defect Energy:  25.938272  Gnorm:     0.000236  CPU:   43.636
  Cycle:     21 Defect Energy:  25.937687  Gnorm:     0.000166  CPU:   44.275
  Cycle:     22 Defect Energy:  25.937433  Gnorm:     0.000117  CPU:   44.870
  Cycle:     23 Defect Energy:  25.937408  Gnorm:     0.000082  CPU:   45.428
  Cycle:     24 Defect Energy:  25.937365  Gnorm:     0.000057  CPU:   46.034
  Cycle:     25 Defect Energy:  25.937351  Gnorm:     0.000040  CPU:   46.650


  **** Optimisation achieved ****


  Final defect energy  =       25.93734805
  Final defect Gnorm   =        0.00002818

  Components of defect energy : 

--------------------------------------------------------------------------------
  Region 1 - region 1                   =     75.06699674 eV
  Region 1 - region 2a (unrelaxed)      =    -47.11124420 eV
  Region 1 - 2a (relaxed - correction)  =     -0.74516747 eV
  Region 1 (Total)                      =     27.21058507 eV
  Region 2a                             =      0.37191289 eV
  Region 2b                             =     -1.64514991 eV
--------------------------------------------------------------------------------
  Total defect energy                   =     25.93734805 eV
--------------------------------------------------------------------------------

  Largest displacement in region 2 =   0.0422 Angstroms

  Final coordinates of region 1 :

--------------------------------------------------------------------------------
   No.  Atomic        x           y           z          Radius      Charge
        Label       (Angs)      (Angs)      (Angs)       (Angs)       (e) 
--------------------------------------------------------------------------------
     1  O     c     1.981760    1.981760    0.000000    0.000000    0.183000
     2  Na    c     1.891035    4.068753    0.000000    0.000000    1.000000
     3  Na    c     4.068753    1.891035    0.000000    0.000000    1.000000
     4  Cl    c     2.353223    2.353223   -2.979992    0.000000    1.485000
     5  Cl    c     2.353223    2.353223    2.979992    0.000000    1.485000
     6  Na    c     2.497341   -0.052979    0.000000    0.000000    1.000000
     7  Na    c    -0.052979    2.497341    0.000000    0.000000    1.000000
     8  O     c     4.638044   -0.181104    0.000000    0.000000    0.183000
     9  O     c    -0.181104    4.638044    0.000000    0.000000    0.183000
    10  Na    c     4.272554    4.272554   -2.587622    0.000000    1.000000
    11  Na    c     4.272554    4.272554    2.587622    0.000000    1.000000
    12  Na    c     4.481292    0.012825   -2.263158    0.000000    1.000000
    13  Na    c     4.481292    0.012825    2.263158    0.000000    1.000000
    14  Na    c     0.012825    4.481292   -2.263158    0.000000    1.000000
    15  Na    c     0.012825    4.481292    2.263158    0.000000    1.000000
    16  Na    c     0.541665    0.541665   -2.451804    0.000000    1.000000
    17  Na    c     0.541665    0.541665    2.451804    0.000000    1.000000
    18  Na    c     6.863551    4.323146    0.000000    0.000000    1.000000
    19  Na    c     4.323146    6.863551    0.000000    0.000000    1.000000
    20  Cl    c     2.497217    6.220983   -1.927660    0.000000    1.485000
    21  Cl    c     2.497217    6.220983    1.927660    0.000000    1.485000
    22  Cl    c     6.220983    2.497217   -1.927660    0.000000    1.485000
    23  Cl    c     6.220983    2.497217    1.927660    0.000000    1.485000
    24  Na    c     2.195980    4.426158    4.691395    0.000000    1.000000
    25  Na    c     2.195980    4.426158   -4.691395    0.000000    1.000000
    26  Na    c     4.426158    2.195980    4.691395    0.000000    1.000000
    27  Na    c     4.426158    2.195980   -4.691395    0.000000    1.000000
    28  Na    c     6.710781    0.177089    0.000000    0.000000    1.000000
    29  Na    c     0.177089    6.710781    0.000000    0.000000    1.000000
    30  Na    c     2.283520    0.068533    4.709232    0.000000    1.000000
    31  Na    c     2.283520    0.068533   -4.709232    0.000000    1.000000
    32  Na    c     0.068533    2.283520    4.709232    0.000000    1.000000
    33  Na    c     0.068533    2.283520   -4.709232    0.000000    1.000000
    34  Na    c    -2.286534    4.682935    0.000000    0.000000    1.000000
    35  Na    c     4.682935   -2.286534    0.000000    0.000000    1.000000
    36  Cl    c     1.898634   -1.876028   -1.952058    0.000000    1.485000
    37  Cl    c     1.898634   -1.876028    1.952058    0.000000    1.485000
    38  Cl    c    -1.876028    1.898634   -1.952058    0.000000    1.485000
    39  Cl    c    -1.876028    1.898634    1.952058    0.000000    1.485000
    40  Na    c    -2.440768   -0.026601    0.000000    0.000000    1.000000
    41  Na    c    -0.026601   -2.440768    0.000000    0.000000    1.000000
    42  O     c     4.470547    4.470547    4.645281    0.000000    0.183000
    43  O     c     4.470547    4.470547   -4.645281    0.000000    0.183000
    44  O     c     4.490991   -0.048275    4.486996    0.000000    0.183000
    45  O     c     4.490991   -0.048275   -4.486996    0.000000    0.183000
    46  O     c    -0.048275    4.490991    4.486996    0.000000    0.183000
    47  O     c    -0.048275    4.490991   -4.486996    0.000000    0.183000
    48  O     c     0.058207    0.058207    4.494559    0.000000    0.183000
    49  O     c     0.058207    0.058207   -4.494559    0.000000    0.183000
    50  Cl    c     6.313611    6.313611   -1.909836    0.000000    1.485000
    51  Cl    c     6.313611    6.313611    1.909836    0.000000    1.485000
    52  Na    c     2.195088    9.139364    0.000000    0.000000    1.000000
    53  Na    c     9.139364    2.195088    0.000000    0.000000    1.000000
    54  Na    c     6.639258    4.434307    4.477826    0.000000    1.000000
    55  Na    c     6.639258    4.434307   -4.477826    0.000000    1.000000
    56  Na    c     4.434307    6.639258    4.477826    0.000000    1.000000
    57  Na    c     4.434307    6.639258   -4.477826    0.000000    1.000000
    58  Na    c     6.658491   -0.079212    4.465640    0.000000    1.000000
    59  Na    c     6.658491   -0.079212   -4.465640    0.000000    1.000000
    60  Na    c    -0.079212    6.658491    4.465640    0.000000    1.000000
    61  Na    c    -0.079212    6.658491   -4.465640    0.000000    1.000000
    62  Cl    c     2.224564    2.224564    6.796083    0.000000    1.485000
    63  Cl    c     2.224564    2.224564   -6.796083    0.000000    1.485000
    64  Cl    c     6.679686   -2.247646   -2.273355    0.000000    1.485000
    65  Cl    c     6.679686   -2.247646    2.273355    0.000000    1.485000
    66  Cl    c    -2.247646    6.679686   -2.273355    0.000000    1.485000
    67  Cl    c    -2.247646    6.679686    2.273355    0.000000    1.485000
    68  Na    c    -2.226972    4.469391    4.458177    0.000000    1.000000
    69  Na    c    -2.226972    4.469391   -4.458177    0.000000    1.000000
    70  Na    c     4.469391   -2.226972    4.458177    0.000000    1.000000
    71  Na    c     4.469391   -2.226972   -4.458177    0.000000    1.000000
    72  Na    c     2.233434   -4.466718    0.000000    0.000000    1.000000
    73  Na    c    -4.466718    2.233434    0.000000    0.000000    1.000000
    74  Na    c    -2.141481    0.038747    4.217551    0.000000    1.000000
    75  Na    c    -2.141481    0.038747   -4.217551    0.000000    1.000000
    76  Na    c     0.038747   -2.141481    4.217551    0.000000    1.000000
    77  Na    c     0.038747   -2.141481   -4.217551    0.000000    1.000000
    78  Cl    c    -2.019045   -2.019045   -1.935198    0.000000    1.485000
    79  Cl    c    -2.019045   -2.019045    1.935198    0.000000    1.485000
    80  O     c     4.396808    8.955226    0.000000    0.000000    0.183000
    81  O     c     8.955226    4.396808    0.000000    0.000000    0.183000
    82  O     c     8.874613    0.016339    0.000000    0.000000    0.183000
    83  O     c     0.016339    8.874613    0.000000    0.000000    0.183000
    84  O     c     4.431715   -4.451677    0.000000    0.000000    0.183000
    85  O     c    -4.451677    4.431715    0.000000    0.000000    0.183000
    86  O     c     0.016355   -4.529058    0.000000    0.000000    0.183000
    87  O     c    -4.529058    0.016355    0.000000    0.000000    0.183000
    88  Na    c     4.410242    8.919645   -2.217522    0.000000    1.000000
    89  Na    c     4.410242    8.919645    2.217522    0.000000    1.000000
    90  Na    c     8.919645    4.410242   -2.217522    0.000000    1.000000
    91  Na    c     8.919645    4.410242    2.217522    0.000000    1.000000
    92  Na    c     4.499122    4.499122    6.750466    0.000000    1.000000
    93  Na    c     4.499122    4.499122   -6.750466    0.000000    1.000000
    94  Na    c     8.935515   -0.088903   -2.206580    0.000000    1.000000
    95  Na    c     8.935515   -0.088903    2.206580    0.000000    1.000000
    96  Na    c    -0.088903    8.935515   -2.206580    0.000000    1.000000
    97  Na    c    -0.088903    8.935515    2.206580    0.000000    1.000000
    98  Na    c     4.555948   -0.111354    6.681568    0.000000    1.000000
    99  Na    c     4.555948   -0.111354   -6.681568    0.000000    1.000000
   100  Na    c    -0.111354    4.555948    6.681568    0.000000    1.000000
   101  Na    c    -0.111354    4.555948   -6.681568    0.000000    1.000000
   102  Na    c     4.473735   -4.514584   -2.206654    0.000000    1.000000
   103  Na    c     4.473735   -4.514584    2.206654    0.000000    1.000000
   104  Na    c    -4.514584    4.473735   -2.206654    0.000000    1.000000
   105  Na    c    -4.514584    4.473735    2.206654    0.000000    1.000000
   106  Na    c    -0.130601   -0.130601    6.646043    0.000000    1.000000
   107  Na    c    -0.130601   -0.130601   -6.646043    0.000000    1.000000
   108  Na    c    -0.006657   -4.552734   -2.205130    0.000000    1.000000
   109  Na    c    -0.006657   -4.552734    2.205130    0.000000    1.000000
   110  Na    c    -4.552734   -0.006657   -2.205130    0.000000    1.000000
   111  Na    c    -4.552734   -0.006657    2.205130    0.000000    1.000000
   112  Na    c     6.616743    8.850825    0.000000    0.000000    1.000000
   113  Na    c     8.850825    6.616743    0.000000    0.000000    1.000000
   114  Na    c     2.202345    8.887311    4.493704    0.000000    1.000000
   115  Na    c     2.202345    8.887311   -4.493704    0.000000    1.000000
   116  Na    c     8.887311    2.202345    4.493704    0.000000    1.000000
   117  Na    c     8.887311    2.202345   -4.493704    0.000000    1.000000
   118  Cl    c     2.180163    6.665095    6.612110    0.000000    1.485000
   119  Cl    c     2.180163    6.665095   -6.612110    0.000000    1.485000
   120  Cl    c     6.665095    2.180163    6.612110    0.000000    1.485000
   121  Cl    c     6.665095    2.180163   -6.612110    0.000000    1.485000
   122  Na    c    -2.221290    8.711333    0.000000    0.000000    1.000000
   123  Na    c     8.711333   -2.221290    0.000000    0.000000    1.000000
   124  Na    c     6.644138   -4.585147    0.000000    0.000000    1.000000
   125  Na    c    -4.585147    6.644138    0.000000    0.000000    1.000000
   126  Cl    c     2.248967   -2.210886    6.602198    0.000000    1.485000
   127  Cl    c     2.248967   -2.210886   -6.602198    0.000000    1.485000
   128  Cl    c    -2.210886    2.248967    6.602198    0.000000    1.485000
   129  Cl    c    -2.210886    2.248967   -6.602198    0.000000    1.485000
   130  Na    c     2.202646   -4.450201    4.489329    0.000000    1.000000
   131  Na    c     2.202646   -4.450201   -4.489329    0.000000    1.000000
   132  Na    c    -4.450201    2.202646    4.489329    0.000000    1.000000
   133  Na    c    -4.450201    2.202646   -4.489329    0.000000    1.000000
   134  Na    c    -2.220405   -4.484576    0.000000    0.000000    1.000000
   135  Na    c    -4.484576   -2.220405    0.000000    0.000000    1.000000
   136  O     c     4.408982    8.821576    4.402285    0.000000    0.183000
   137  O     c     4.408982    8.821576   -4.402285    0.000000    0.183000
   138  O     c     8.821576    4.408982    4.402285    0.000000    0.183000
   139  O     c     8.821576    4.408982   -4.402285    0.000000    0.183000
   140  O     c     8.825897    0.012422    4.391492    0.000000    0.183000
   141  O     c     8.825897    0.012422   -4.391492    0.000000    0.183000
   142  O     c     0.012422    8.825897    4.391492    0.000000    0.183000
   143  O     c     0.012422    8.825897   -4.391492    0.000000    0.183000
   144  O     c     4.397253   -4.401703    4.390069    0.000000    0.183000
   145  O     c     4.397253   -4.401703   -4.390069    0.000000    0.183000
   146  O     c    -4.401703    4.397253    4.390069    0.000000    0.183000
   147  O     c    -4.401703    4.397253   -4.390069    0.000000    0.183000
   148  O     c     0.011029   -4.374060    4.379552    0.000000    0.183000
   149  O     c     0.011029   -4.374060   -4.379552    0.000000    0.183000
   150  O     c    -4.374060    0.011029    4.379552    0.000000    0.183000
   151  O     c    -4.374060    0.011029   -4.379552    0.000000    0.183000
   152  Na    c     6.617853    8.894024    4.475585    0.000000    1.000000
   153  Na    c     6.617853    8.894024   -4.475585    0.000000    1.000000
   154  Na    c     8.894024    6.617853    4.475585    0.000000    1.000000
   155  Na    c     8.894024    6.617853   -4.475585    0.000000    1.000000
   156  Na    c    11.101542    4.518450    0.000000    0.000000    1.000000
   157  Na    c     4.518450   11.101542    0.000000    0.000000    1.000000
   158  Cl    c     2.206613   11.011063   -2.224701    0.000000    1.485000
   159  Cl    c     2.206613   11.011063    2.224701    0.000000    1.485000
   160  Cl    c    11.011063    2.206613   -2.224701    0.000000    1.485000
   161  Cl    c    11.011063    2.206613    2.224701    0.000000    1.485000
   162  Cl    c     6.665325    6.665325    6.596652    0.000000    1.485000
   163  Cl    c     6.665325    6.665325   -6.596652    0.000000    1.485000
   164  Na    c    11.065300   -0.154948    0.000000    0.000000    1.000000
   165  Na    c    -0.154948   11.065300    0.000000    0.000000    1.000000
   166  Na    c     2.198290    4.385419    8.851253    0.000000    1.000000
   167  Na    c     2.198290    4.385419   -8.851253    0.000000    1.000000
   168  Na    c     4.385419    2.198290    8.851253    0.000000    1.000000
   169  Na    c     4.385419    2.198290   -8.851253    0.000000    1.000000
   170  Na    c    -2.223693    8.846814    4.423177    0.000000    1.000000
   171  Na    c    -2.223693    8.846814   -4.423177    0.000000    1.000000
   172  Na    c     8.846814   -2.223693    4.423177    0.000000    1.000000
   173  Na    c     8.846814   -2.223693   -4.423177    0.000000    1.000000
   174  Cl    c     6.635906   -2.213017    6.602415    0.000000    1.485000
   175  Cl    c     6.635906   -2.213017   -6.602415    0.000000    1.485000
   176  Cl    c    -2.213017    6.635906    6.602415    0.000000    1.485000
   177  Cl    c    -2.213017    6.635906   -6.602415    0.000000    1.485000
   178  Na    c     2.202660    0.014453    8.781862    0.000000    1.000000
   179  Na    c     2.202660    0.014453   -8.781862    0.000000    1.000000
   180  Na    c     0.014453    2.202660    8.781862    0.000000    1.000000
   181  Na    c     0.014453    2.202660   -8.781862    0.000000    1.000000
   182  Na    c     6.628279   -4.429536    4.406079    0.000000    1.000000
   183  Na    c     6.628279   -4.429536   -4.406079    0.000000    1.000000
   184  Na    c    -4.429536    6.628279    4.406079    0.000000    1.000000
   185  Na    c    -4.429536    6.628279   -4.406079    0.000000    1.000000
   186  Na    c    -6.656049    4.376083    0.000000    0.000000    1.000000
   187  Na    c     4.376083   -6.656049    0.000000    0.000000    1.000000
   188  Cl    c     2.221499   -6.583686   -2.208201    0.000000    1.485000
   189  Cl    c     2.221499   -6.583686    2.208201    0.000000    1.485000
   190  Cl    c    -6.583686    2.221499   -2.208201    0.000000    1.485000
   191  Cl    c    -6.583686    2.221499    2.208201    0.000000    1.485000
   192  Cl    c    -2.214931   -2.214931    6.576458    0.000000    1.485000
   193  Cl    c    -2.214931   -2.214931   -6.576458    0.000000    1.485000
   194  Na    c    -6.681722    0.012960    0.000000    0.000000    1.000000
   195  Na    c     0.012960   -6.681722    0.000000    0.000000    1.000000
   196  Na    c    -2.193033   -4.425279    4.458021    0.000000    1.000000
   197  Na    c    -2.193033   -4.425279   -4.458021    0.000000    1.000000
   198  Na    c    -4.425279   -2.193033    4.458021    0.000000    1.000000
   199  Na    c    -4.425279   -2.193033   -4.458021    0.000000    1.000000
   200  O     c     8.808614    8.808614    0.000000    0.000000    0.183000
   201  O     c     4.422148    4.422148    8.884773    0.000000    0.183000
   202  O     c     4.422148    4.422148   -8.884773    0.000000    0.183000
   203  O     c     4.424883   -0.013847    8.840130    0.000000    0.183000
   204  O     c     4.424883   -0.013847   -8.840130    0.000000    0.183000
   205  O     c    -0.013847    4.424883    8.840130    0.000000    0.183000
   206  O     c    -0.013847    4.424883   -8.840130    0.000000    0.183000
   207  O     c     8.820114   -4.420221    0.000000    0.000000    0.183000
   208  O     c    -4.420221    8.820114    0.000000    0.000000    0.183000
   209  O     c    -0.013476   -0.013476    8.829077    0.000000    0.183000
   210  O     c    -0.013476   -0.013476   -8.829077    0.000000    0.183000
   211  O     c    -4.418784   -4.418784    0.000000    0.000000    0.183000
   212  Na    c     8.879965    8.879965   -2.205131    0.000000    1.000000
   213  Na    c     8.879965    8.879965    2.205131    0.000000    1.000000
   214  Na    c     4.419947    8.804652    6.629840    0.000000    1.000000
   215  Na    c     4.419947    8.804652   -6.629840    0.000000    1.000000
   216  Na    c     8.804652    4.419947    6.629840    0.000000    1.000000
   217  Na    c     8.804652    4.419947   -6.629840    0.000000    1.000000
   218  Na    c     8.818653   -0.026800    6.623112    0.000000    1.000000
   219  Na    c     8.818653   -0.026800   -6.623112    0.000000    1.000000
   220  Na    c    -0.026800    8.818653    6.623112    0.000000    1.000000
   221  Na    c    -0.026800    8.818653   -6.623112    0.000000    1.000000
   222  Na    c     8.833324   -4.412047   -2.212003    0.000000    1.000000
   223  Na    c     8.833324   -4.412047    2.212003    0.000000    1.000000
   224  Na    c    -4.412047    8.833324   -2.212003    0.000000    1.000000
   225  Na    c    -4.412047    8.833324    2.212003    0.000000    1.000000
   226  Na    c     4.437585   -4.411087    6.616946    0.000000    1.000000
   227  Na    c     4.437585   -4.411087   -6.616946    0.000000    1.000000
   228  Na    c    -4.411087    4.437585    6.616946    0.000000    1.000000
   229  Na    c    -4.411087    4.437585   -6.616946    0.000000    1.000000
   230  Na    c    -0.020907   -4.297148    6.603203    0.000000    1.000000
   231  Na    c    -0.020907   -4.297148   -6.603203    0.000000    1.000000
   232  Na    c    -4.297148   -0.020907    6.603203    0.000000    1.000000
   233  Na    c    -4.297148   -0.020907   -6.603203    0.000000    1.000000
   234  Na    c    -4.446031   -4.446031   -2.205031    0.000000    1.000000
   235  Na    c    -4.446031   -4.446031    2.205031    0.000000    1.000000
   236  Cl    c     6.628894   10.981864   -2.204629    0.000000    1.485000
   237  Cl    c     6.628894   10.981864    2.204629    0.000000    1.485000
   238  Cl    c    10.981864    6.628894   -2.204629    0.000000    1.485000
   239  Cl    c    10.981864    6.628894    2.204629    0.000000    1.485000
   240  Na    c    11.034398    4.393746    4.433697    0.000000    1.000000
   241  Na    c    11.034398    4.393746   -4.433697    0.000000    1.000000
   242  Na    c     4.393746   11.034398    4.433697    0.000000    1.000000
   243  Na    c     4.393746   11.034398   -4.433697    0.000000    1.000000
   244  Na    c     6.621316    4.390275    8.919041    0.000000    1.000000
   245  Na    c     6.621316    4.390275   -8.919041    0.000000    1.000000
   246  Na    c     4.390275    6.621316    8.919041    0.000000    1.000000
   247  Na    c     4.390275    6.621316   -8.919041    0.000000    1.000000
   248  Na    c    11.032974   -0.007784    4.432412    0.000000    1.000000
   249  Na    c    11.032974   -0.007784   -4.432412    0.000000    1.000000
   250  Na    c    -0.007784   11.032974    4.432412    0.000000    1.000000
   251  Na    c    -0.007784   11.032974   -4.432412    0.000000    1.000000
   252  Cl    c    11.010508   -2.186288   -2.196875    0.000000    1.485000
   253  Cl    c    11.010508   -2.186288    2.196875    0.000000    1.485000
   254  Cl    c    -2.186288   11.010508   -2.196875    0.000000    1.485000
   255  Cl    c    -2.186288   11.010508    2.196875    0.000000    1.485000
   256  Na    c     6.624411    0.004180    8.897332    0.000000    1.000000
   257  Na    c     6.624411    0.004180   -8.897332    0.000000    1.000000
   258  Na    c     0.004180    6.624411    8.897332    0.000000    1.000000
   259  Na    c     0.004180    6.624411   -8.897332    0.000000    1.000000
   260  Na    c    -2.216502    4.383222    8.877183    0.000000    1.000000
   261  Na    c    -2.216502    4.383222   -8.877183    0.000000    1.000000
   262  Na    c     4.383222   -2.216502    8.877183    0.000000    1.000000
   263  Na    c     4.383222   -2.216502   -8.877183    0.000000    1.000000
   264  Cl    c     6.597444   -6.599825   -2.197819    0.000000    1.485000
   265  Cl    c     6.597444   -6.599825    2.197819    0.000000    1.485000
   266  Cl    c    -6.599825    6.597444   -2.197819    0.000000    1.485000
   267  Cl    c    -6.599825    6.597444    2.197819    0.000000    1.485000
   268  Na    c    -6.619627    4.399252    4.428885    0.000000    1.000000
   269  Na    c    -6.619627    4.399252   -4.428885    0.000000    1.000000
   270  Na    c     4.399252   -6.619627    4.428885    0.000000    1.000000
   271  Na    c     4.399252   -6.619627   -4.428885    0.000000    1.000000
   272  Na    c    -2.205561    0.013062    8.904778    0.000000    1.000000
   273  Na    c    -2.205561    0.013062   -8.904778    0.000000    1.000000
   274  Na    c     0.013062   -2.205561    8.904778    0.000000    1.000000
   275  Na    c     0.013062   -2.205561   -8.904778    0.000000    1.000000
   276  Na    c    -6.608392    0.001742    4.464586    0.000000    1.000000
   277  Na    c    -6.608392    0.001742   -4.464586    0.000000    1.000000
   278  Na    c     0.001742   -6.608392    4.464586    0.000000    1.000000
   279  Na    c     0.001742   -6.608392   -4.464586    0.000000    1.000000
   280  Cl    c    -2.204968   -6.586131   -2.211039    0.000000    1.485000
   281  Cl    c    -2.204968   -6.586131    2.211039    0.000000    1.485000
   282  Cl    c    -6.586131   -2.204968   -2.211039    0.000000    1.485000
   283  Cl    c    -6.586131   -2.204968    2.211039    0.000000    1.485000
   284  O     c     8.810136    8.810136    4.391198    0.000000    0.183000
   285  O     c     8.810136    8.810136   -4.391198    0.000000    0.183000
   286  O     c     8.830728   -4.421351    4.414372    0.000000    0.183000
   287  O     c     8.830728   -4.421351   -4.414372    0.000000    0.183000
   288  O     c    -4.421351    8.830728    4.414372    0.000000    0.183000
   289  O     c    -4.421351    8.830728   -4.414372    0.000000    0.183000
   290  O     c    -4.391335   -4.391335    4.394192    0.000000    0.183000
   291  O     c    -4.391335   -4.391335   -4.394192    0.000000    0.183000
   292  Na    c    11.030248    8.811167    0.000000    0.000000    1.000000
   293  Na    c     8.811167   11.030248    0.000000    0.000000    1.000000
   294  Na    c     2.196290   13.220681    0.000000    0.000000    1.000000
   295  Na    c    13.220681    2.196290    0.000000    0.000000    1.000000
   296  Cl    c     2.214558   11.001248    6.588033    0.000000    1.485000
   297  Cl    c     2.214558   11.001248   -6.588033    0.000000    1.485000
   298  Cl    c    11.001248    2.214558    6.588033    0.000000    1.485000
   299  Cl    c    11.001248    2.214558   -6.588033    0.000000    1.485000
   300  Na    c     2.199937    8.822612    8.819510    0.000000    1.000000
   301  Na    c     2.199937    8.822612   -8.819510    0.000000    1.000000
   302  Na    c     8.822612    2.199937    8.819510    0.000000    1.000000
   303  Na    c     8.822612    2.199937   -8.819510    0.000000    1.000000
   304  Na    c    11.023412   -4.379499    0.000000    0.000000    1.000000
   305  Na    c    -4.379499   11.023412    0.000000    0.000000    1.000000
   306  Cl    c     2.201195    2.201195   11.017427    0.000000    1.485000
   307  Cl    c     2.201195    2.201195  -11.017427    0.000000    1.485000
   308  Na    c    -6.624671    8.892449    0.000000    0.000000    1.000000
   309  Na    c     8.892449   -6.624671    0.000000    0.000000    1.000000
   310  Na    c     2.202682   -4.426604    8.804680    0.000000    1.000000
   311  Na    c     2.202682   -4.426604   -8.804680    0.000000    1.000000
   312  Na    c    -4.426604    2.202682    8.804680    0.000000    1.000000
   313  Na    c    -4.426604    2.202682   -8.804680    0.000000    1.000000
   314  Cl    c     2.203146   -6.586313    6.580696    0.000000    1.485000
   315  Cl    c     2.203146   -6.586313   -6.580696    0.000000    1.485000
   316  Cl    c    -6.586313    2.203146    6.580696    0.000000    1.485000
   317  Cl    c    -6.586313    2.203146   -6.580696    0.000000    1.485000
   318  Na    c     2.203303   -8.874859    0.000000    0.000000    1.000000
   319  Na    c    -8.874859    2.203303    0.000000    0.000000    1.000000
   320  Na    c    -6.627165   -4.429275    0.000000    0.000000    1.000000
   321  Na    c    -4.429275   -6.627165    0.000000    0.000000    1.000000
   322  O     c     4.416135   13.246697    0.000000    0.000000    0.183000
   323  O     c    13.246697    4.416135    0.000000    0.000000    0.183000
   324  O     c     4.408457    8.810873    8.814820    0.000000    0.183000
   325  O     c     4.408457    8.810873   -8.814820    0.000000    0.183000
   326  O     c     8.810873    4.408457    8.814820    0.000000    0.183000
   327  O     c     8.810873    4.408457   -8.814820    0.000000    0.183000
   328  O     c    13.230932   -0.010497    0.000000    0.000000    0.183000
   329  O     c    -0.010497   13.230932    0.000000    0.000000    0.183000
   330  O     c     8.815748   -0.002836    8.814423    0.000000    0.183000
   331  O     c     8.815748   -0.002836   -8.814423    0.000000    0.183000
   332  O     c    -0.002836    8.815748    8.814423    0.000000    0.183000
   333  O     c    -0.002836    8.815748   -8.814423    0.000000    0.183000
   334  O     c     4.407924   -4.407626    8.810929    0.000000    0.183000
   335  O     c     4.407924   -4.407626   -8.810929    0.000000    0.183000
   336  O     c    -4.407626    4.407924    8.810929    0.000000    0.183000
   337  O     c    -4.407626    4.407924   -8.810929    0.000000    0.183000
   338  O     c     4.401300   -8.825450    0.000000    0.000000    0.183000
   339  O     c    -8.825450    4.401300    0.000000    0.000000    0.183000
   340  O     c     0.000822   -4.394561    8.806803    0.000000    0.183000
   341  O     c     0.000822   -4.394561   -8.806803    0.000000    0.183000
   342  O     c    -4.394561    0.000822    8.806803    0.000000    0.183000
   343  O     c    -4.394561    0.000822   -8.806803    0.000000    0.183000
   344  O     c     0.001086   -8.837577    0.000000    0.000000    0.183000
   345  O     c    -8.837577    0.001086    0.000000    0.000000    0.183000
   346  Na    c     8.807893    8.807893    6.620441    0.000000    1.000000
   347  Na    c     8.807893    8.807893   -6.620441    0.000000    1.000000
   348  Na    c     4.391323   13.264583   -2.210480    0.000000    1.000000
   349  Na    c     4.391323   13.264583    2.210480    0.000000    1.000000
   350  Na    c    13.264583    4.391323   -2.210480    0.000000    1.000000
   351  Na    c    13.264583    4.391323    2.210480    0.000000    1.000000
   352  Na    c    13.248124   -0.002461   -2.208863    0.000000    1.000000
   353  Na    c    13.248124   -0.002461    2.208863    0.000000    1.000000
   354  Na    c    -0.002461   13.248124   -2.208863    0.000000    1.000000
   355  Na    c    -0.002461   13.248124    2.208863    0.000000    1.000000
   356  Na    c     4.395606    4.395606   11.052430    0.000000    1.000000
   357  Na    c     4.395606    4.395606  -11.052430    0.000000    1.000000
   358  Na    c     4.386142   -0.008297   11.032615    0.000000    1.000000
   359  Na    c     4.386142   -0.008297  -11.032615    0.000000    1.000000
   360  Na    c    -0.008297    4.386142   11.032615    0.000000    1.000000
   361  Na    c    -0.008297    4.386142  -11.032615    0.000000    1.000000
   362  Na    c     8.813287   -4.419928    6.618053    0.000000    1.000000
   363  Na    c     8.813287   -4.419928   -6.618053    0.000000    1.000000
[...]
    121 y          0.000000      0.024756     0.024756    Cartesian    0.00
    121 z         11.014756     11.028647     0.013891    Cartesian    0.13
    122 x          4.405902      4.416164     0.010261    Cartesian    0.23
    122 y         -8.811805     -8.842927    -0.031122    Cartesian    0.35
    122 z         -2.202951     -2.208521    -0.005570    Cartesian    0.25
    123 x          0.000000     -0.007691    -0.007691    Cartesian    0.00
    123 y         -8.811805     -8.845624    -0.033819    Cartesian    0.38
    123 z         -2.202951     -2.212008    -0.009057    Cartesian    0.41
    124 x         -4.405902     -4.407467    -0.001565    Cartesian    0.04
    124 y         -4.405902     -4.407467    -0.001565    Cartesian    0.04
    124 z          6.608853      6.614499     0.005646    Cartesian    0.09
    125 x          6.608853      6.622478     0.013625    Cartesian    0.21
    125 y         13.217707     13.308397     0.090690    Cartesian    0.69
    125 z          0.000000      0.000000     0.000000    Cartesian    0.00
    126 x         11.014756     11.028056     0.013300    Cartesian    0.12
    126 y          8.811805      8.835979     0.024174    Cartesian    0.27
    126 z          4.405902      4.429841     0.023939    Cartesian    0.54
    127 x          6.608853      6.602410    -0.006444    Cartesian   -0.10
    127 y         11.014756     10.990839    -0.023917    Cartesian   -0.22
    127 z          6.608853      6.576238    -0.032616    Cartesian   -0.49
    128 x          2.202951      2.199900    -0.003052    Cartesian   -0.14
    128 y         13.217707     13.252223     0.034516    Cartesian    0.26
    128 z          4.405902      4.423870     0.017967    Cartesian    0.41
    129 x          6.608853      6.614333     0.005479    Cartesian    0.08
    129 y          8.811805      8.816947     0.005143    Cartesian    0.06
    129 z          8.811805      8.838240     0.026435    Cartesian    0.30
    130 x         -2.202951     -2.217442    -0.014491    Cartesian    0.66
    130 y         13.217707     13.303113     0.085406    Cartesian    0.65
    130 z          0.000000      0.000000     0.000000    Cartesian    0.00
    131 x          2.202951      2.202972     0.000021    Cartesian    0.00
    131 y          6.608853      6.615471     0.006617    Cartesian    0.10
    131 z         11.014756     10.989536    -0.025219    Cartesian   -0.23
    132 x         11.014756     10.991237    -0.023518    Cartesian   -0.21
    132 y         -2.202951     -2.175587     0.027365    Cartesian   -1.24
    132 z          6.608853      6.584691    -0.024163    Cartesian   -0.37
    133 x         -2.202951     -2.209566    -0.006615    Cartesian    0.30
    133 y          8.811805      8.826795     0.014990    Cartesian    0.17
    133 z          8.811805      8.837220     0.025415    Cartesian    0.29
    134 x         11.014756     11.028127     0.013371    Cartesian    0.12
    134 y         -4.405902     -4.443710    -0.037808    Cartesian    0.86
    134 z          4.405902      4.427881     0.021979    Cartesian    0.50
    135 x          6.608853      6.613374     0.004521    Cartesian    0.07
    135 y         -4.405902     -4.417724    -0.011821    Cartesian    0.27
    135 z          8.811805      8.841309     0.029505    Cartesian    0.33
    136 x         -6.608853     -6.621335    -0.012482    Cartesian    0.19
    136 y          8.811805      8.837550     0.025745    Cartesian    0.29
    136 z          4.405902      4.421311     0.015408    Cartesian    0.35
    137 x          2.202951      2.203962     0.001011    Cartesian    0.05
    137 y         -2.202951     -2.196936     0.006015    Cartesian   -0.27
    137 z         11.014756     10.987832    -0.026924    Cartesian   -0.24
    138 x          6.608853      6.587860    -0.020993    Cartesian   -0.32
    138 y         -6.608853     -6.578727     0.030126    Cartesian   -0.46
    138 z          6.608853      6.584437    -0.024416    Cartesian   -0.37
    139 x          6.608853      6.615210     0.006356    Cartesian    0.10
    139 y         -8.811805     -8.840704    -0.028899    Cartesian    0.33
    139 z          0.000000      0.000000     0.000000    Cartesian    0.00
    140 x          2.202951      2.203624     0.000673    Cartesian    0.03
    140 y         -8.811805     -8.844505    -0.032700    Cartesian    0.37
    140 z          4.405902      4.414282     0.008380    Cartesian    0.19
    141 x         -2.202951     -2.205049    -0.002098    Cartesian    0.10
    141 y         -4.405902     -4.416618    -0.010716    Cartesian    0.24
    141 z          8.811805      8.829960     0.018155    Cartesian    0.21
    142 x         -2.202951     -2.188444     0.014507    Cartesian   -0.66
    142 y         -6.608853     -6.575073     0.033781    Cartesian   -0.51
    142 z          6.608853      6.573734    -0.035119    Cartesian   -0.53
    143 x         -2.202951     -2.209626    -0.006675    Cartesian    0.30
    143 y         -8.811805     -8.861000    -0.049196    Cartesian    0.56
    143 z          0.000000      0.000000     0.000000    Cartesian    0.00
    144 x         -6.608853     -6.613294    -0.004441    Cartesian    0.07
    144 y         -4.405902     -4.412677    -0.006775    Cartesian    0.15
    144 z          4.405902      4.420462     0.014560    Cartesian    0.33
    145 x          1.981760      1.981760     0.000000    Cartesian    0.00
    145 y          1.981760      1.981760     0.000000    Cartesian    0.00
    145 z          0.000000      0.000000     0.000000    Cartesian    0.00
    146 x          2.202951      2.355134     0.152183    Cartesian    6.91
    146 y          2.202951      2.355134     0.152183    Cartesian    6.91
    146 z         -2.202951     -3.044680    -0.841728    Cartesian   38.21
    147 x          4.405902      4.637943     0.232041    Cartesian    5.27
    147 y          0.000000     -0.181011    -0.181011    Cartesian    0.00
    147 z          0.000000      0.000000     0.000000    Cartesian    0.00
    148 x          2.202951      2.526843     0.323892    Cartesian   14.70
    148 y          6.608853      6.192140    -0.416713    Cartesian   -6.31
    148 z         -2.202951     -1.905104     0.297847    Cartesian  -13.52
    149 x          2.202951      1.871439    -0.331512    Cartesian  -15.05
    149 y         -2.202951     -1.844251     0.358700    Cartesian  -16.28
    149 z         -2.202951     -1.927320     0.275631    Cartesian  -12.51
    150 x          4.405902      4.470594     0.064692    Cartesian    1.47
    150 y          4.405902      4.470594     0.064692    Cartesian    1.47
    150 z          4.405902      4.645186     0.239284    Cartesian    5.43
    151 x          4.405902      4.491054     0.085152    Cartesian    1.93
    151 y          0.000000     -0.048350    -0.048350    Cartesian    0.00
    151 z          4.405902      4.487086     0.081184    Cartesian    1.84
    152 x          0.000000      0.058251     0.058251    Cartesian    0.00
    152 y          0.000000      0.058251     0.058251    Cartesian    0.00
    152 z          4.405902      4.494535     0.088633    Cartesian    2.01
    153 x          6.608853      6.294940    -0.313913    Cartesian   -4.75
    153 y          6.608853      6.294940    -0.313913    Cartesian   -4.75
    153 z         -2.202951     -1.882402     0.320549    Cartesian  -14.55
    154 x          2.202951      2.224045     0.021094    Cartesian    0.96
    154 y          2.202951      2.224045     0.021094    Cartesian    0.96
    154 z          6.608853      6.799518     0.190665    Cartesian    2.88
    155 x          6.608853      6.684181     0.075328    Cartesian    1.14
    155 y         -2.202951     -2.251419    -0.048468    Cartesian    2.20
    155 z         -2.202951     -2.278352    -0.075401    Cartesian    3.42
    156 x         -2.202951     -2.008418     0.194533    Cartesian   -8.83
    156 y         -2.202951     -2.008418     0.194533    Cartesian   -8.83
    156 z         -2.202951     -1.908238     0.294713    Cartesian  -13.38
    157 x          4.405902      4.396805    -0.009097    Cartesian   -0.21
    157 y          8.811805      8.955145     0.143341    Cartesian    1.63
    157 z          0.000000      0.000000     0.000000    Cartesian    0.00
    158 x          8.811805      8.874623     0.062818    Cartesian    0.71
    158 y          0.000000      0.016357     0.016357    Cartesian    0.00
    158 z          0.000000      0.000000     0.000000    Cartesian    0.00
    159 x          4.405902      4.431747     0.025845    Cartesian    0.59
    159 y         -4.405902     -4.451696    -0.045794    Cartesian    1.04
    159 z          0.000000      0.000000     0.000000    Cartesian    0.00
    160 x          0.000000      0.016356     0.016356    Cartesian    0.00
    160 y         -4.405902     -4.528954    -0.123052    Cartesian    2.79
    160 z          0.000000      0.000000     0.000000    Cartesian    0.00
    161 x          2.202951      2.178313    -0.024639    Cartesian   -1.12
    161 y          6.608853      6.665063     0.056209    Cartesian    0.85
    161 z          6.608853      6.604768    -0.004086    Cartesian   -0.06
    162 x          2.202951      2.253967     0.051016    Cartesian    2.32
    162 y         -2.202951     -2.208735    -0.005784    Cartesian    0.26
    162 z          6.608853      6.598467    -0.010386    Cartesian   -0.16
    163 x          4.405902      4.408985     0.003082    Cartesian    0.07
    163 y          8.811805      8.821581     0.009776    Cartesian    0.11
    163 z          4.405902      4.402287    -0.003615    Cartesian   -0.08
    164 x          8.811805      8.825885     0.014081    Cartesian    0.16
    164 y          0.000000      0.012424     0.012424    Cartesian    0.00
    164 z          4.405902      4.391490    -0.014412    Cartesian   -0.33
    165 x          4.405902      4.397250    -0.008652    Cartesian   -0.20
    165 y         -4.405902     -4.401690     0.004213    Cartesian   -0.10
    165 z          4.405902      4.390064    -0.015838    Cartesian   -0.36
    166 x          0.000000      0.011035     0.011035    Cartesian    0.00
    166 y         -4.405902     -4.374108     0.031794    Cartesian   -0.72
    166 z          4.405902      4.379524    -0.026378    Cartesian   -0.60
    167 x          2.202951      2.208886     0.005935    Cartesian    0.27
    167 y         11.014756     11.002107    -0.012649    Cartesian   -0.11
    167 z         -2.202951     -2.221217    -0.018266    Cartesian    0.83
    168 x          6.608853      6.668272     0.059418    Cartesian    0.90
    168 y          6.608853      6.668272     0.059418    Cartesian    0.90
    168 z          6.608853      6.590259    -0.018595    Cartesian   -0.28
    169 x          6.608853      6.631760     0.022907    Cartesian    0.35
    169 y         -2.202951     -2.206416    -0.003465    Cartesian    0.16
    169 z          6.608853      6.594366    -0.014488    Cartesian   -0.22
    170 x          2.202951      2.222470     0.019519    Cartesian    0.89
    170 y         -6.608853     -6.576174     0.032680    Cartesian   -0.49
    170 z         -2.202951     -2.205651    -0.002700    Cartesian    0.12
    171 x         -2.202951     -2.215212    -0.012261    Cartesian    0.56
    171 y         -2.202951     -2.215212    -0.012261    Cartesian    0.56
    171 z          6.608853      6.574784    -0.034069    Cartesian   -0.52
    172 x          8.811805      8.808613    -0.003191    Cartesian   -0.04
    172 y          8.811805      8.808613    -0.003191    Cartesian   -0.04
    172 z          0.000000      0.000000     0.000000    Cartesian    0.00
    173 x          4.405902      4.422177     0.016274    Cartesian    0.37
    173 y          4.405902      4.422177     0.016274    Cartesian    0.37
    173 z          8.811805      8.884733     0.072928    Cartesian    0.83
    174 x          4.405902      4.424914     0.019012    Cartesian    0.43
    174 y          0.000000     -0.013868    -0.013868    Cartesian    0.00
    174 z          8.811805      8.840105     0.028300    Cartesian    0.32
    175 x          8.811805      8.820087     0.008282    Cartesian    0.09
    175 y         -4.405902     -4.420238    -0.014336    Cartesian    0.33
    175 z          0.000000      0.000000     0.000000    Cartesian    0.00
    176 x          0.000000     -0.013509    -0.013509    Cartesian    0.00
    176 y          0.000000     -0.013509    -0.013509    Cartesian    0.00
    176 z          8.811805      8.829077     0.017273    Cartesian    0.20
    177 x         -4.405902     -4.418797    -0.012895    Cartesian    0.29
    177 y         -4.405902     -4.418797    -0.012895    Cartesian    0.29
    177 z          0.000000      0.000000     0.000000    Cartesian    0.00
    178 x          6.608853      6.627980     0.019127    Cartesian    0.29
    178 y         11.014756     10.974854    -0.039902    Cartesian   -0.36
    178 z         -2.202951     -2.202350     0.000601    Cartesian   -0.03
    179 x         11.014756     11.005080    -0.009676    Cartesian   -0.09
    179 y         -2.202951     -2.177737     0.025214    Cartesian   -1.14
    179 z         -2.202951     -2.194579     0.008373    Cartesian   -0.38
    180 x          6.608853      6.592013    -0.016840    Cartesian   -0.25
    180 y         -6.608853     -6.591405     0.017448    Cartesian   -0.26
    180 z         -2.202951     -2.194928     0.008023    Cartesian   -0.36
    181 x         -2.202951     -2.202891     0.000061    Cartesian   -0.00
    181 y         -6.608853     -6.579849     0.029005    Cartesian   -0.44
    181 z         -2.202951     -2.210129    -0.007178    Cartesian    0.33
    182 x          8.811805      8.810142    -0.001663    Cartesian   -0.02
    182 y          8.811805      8.810142    -0.001663    Cartesian   -0.02
    182 z          4.405902      4.391195    -0.014707    Cartesian   -0.33
    183 x          8.811805      8.830735     0.018931    Cartesian    0.21
    183 y         -4.405902     -4.421352    -0.015450    Cartesian    0.35
    183 z          4.405902      4.414375     0.008472    Cartesian    0.19
    184 x         -4.405902     -4.391331     0.014571    Cartesian   -0.33
    184 y         -4.405902     -4.391331     0.014571    Cartesian   -0.33
    184 z          4.405902      4.394189    -0.011714    Cartesian   -0.27
    185 x          2.202951      2.216080     0.013129    Cartesian    0.60
    185 y         11.014756     10.996836    -0.017920    Cartesian   -0.16
    185 z          6.608853      6.581834    -0.027019    Cartesian   -0.41
    186 x          2.202951      2.201762    -0.001189    Cartesian   -0.05
    186 y          2.202951      2.201762    -0.001189    Cartesian   -0.05
    186 z         11.014756     11.016171     0.001415    Cartesian    0.01
    187 x          2.202951      2.204191     0.001240    Cartesian    0.06
    187 y         -6.608853     -6.582652     0.026202    Cartesian   -0.40
    187 z          6.608853      6.574433    -0.034420    Cartesian   -0.52
    188 x          4.405902      4.416161     0.010259    Cartesian    0.23
    188 y         13.217707     13.246676     0.028969    Cartesian    0.22
    188 z          0.000000      0.000000     0.000000    Cartesian    0.00
    189 x          4.405902      4.408457     0.002555    Cartesian    0.06
    189 y          8.811805      8.810862    -0.000943    Cartesian   -0.01
    189 z          8.811805      8.814826     0.003021    Cartesian    0.03
    190 x         13.217707     13.230926     0.013219    Cartesian    0.10
    190 y          0.000000     -0.010519    -0.010519    Cartesian    0.00
    190 z          0.000000      0.000000     0.000000    Cartesian    0.00
    191 x          8.811805      8.815744     0.003939    Cartesian    0.04
    191 y          0.000000     -0.002833    -0.002833    Cartesian    0.00
    191 z          8.811805      8.814432     0.002627    Cartesian    0.03
    192 x          4.405902      4.407924     0.002022    Cartesian    0.05
    192 y         -4.405902     -4.407621    -0.001719    Cartesian    0.04
    192 z          8.811805      8.810934    -0.000871    Cartesian   -0.01
    193 x          4.405902      4.401283    -0.004619    Cartesian   -0.10
    193 y         -8.811805     -8.825443    -0.013639    Cartesian    0.15
    193 z          0.000000      0.000000     0.000000    Cartesian    0.00
    194 x          0.000000      0.000825     0.000825    Cartesian    0.00
    194 y         -4.405902     -4.394528     0.011374    Cartesian   -0.26
    194 z          8.811805      8.806824    -0.004980    Cartesian   -0.06
    195 x          0.000000      0.001095     0.001095    Cartesian    0.00
    195 y         -8.811805     -8.837563    -0.025758    Cartesian    0.29
    195 z          0.000000      0.000000     0.000000    Cartesian    0.00
    196 x          6.608853      6.601387    -0.007466    Cartesian   -0.11
    196 y         11.014756     10.985134    -0.029621    Cartesian   -0.27
    196 z          6.608853      6.568957    -0.039897    Cartesian   -0.60
    197 x          2.202951      2.204145     0.001194    Cartesian    0.05
    197 y          6.608853      6.616251     0.007397    Cartesian    0.11
    197 z         11.014756     10.983063    -0.031692    Cartesian   -0.29
    198 x         11.014756     10.987594    -0.027162    Cartesian   -0.25
    198 y         -2.202951     -2.171075     0.031876    Cartesian   -1.45
    198 z          6.608853      6.580740    -0.028114    Cartesian   -0.43
    199 x          2.202951      2.204167     0.001215    Cartesian    0.06
    199 y         -2.202951     -2.196104     0.006847    Cartesian   -0.31
    199 z         11.014756     10.982735    -0.032021    Cartesian   -0.29
    200 x          6.608853      6.584780    -0.024074    Cartesian   -0.36
    200 y         -6.608853     -6.574552     0.034301    Cartesian   -0.52
    200 z          6.608853      6.581136    -0.027717    Cartesian   -0.42
    201 x         -2.202951     -2.187476     0.015475    Cartesian   -0.70
    201 y         -6.608853     -6.571345     0.037508    Cartesian   -0.57
    201 z          6.608853      6.567318    -0.041535    Cartesian   -0.63
--------------------------------------------------------------------------------


  Time to end of optimisation  =       47.2732 seconds


  Peak dynamic memory used =      90.31 MB 


  Timing analysis for GULP :

--------------------------------------------------------------------------------
  Task / Subroutine                                          Time (Seconds)
--------------------------------------------------------------------------------
  Calculation of reciprocal space energy and derivatives          0.0008
  Calculation of reciprocal space energy using symmetry           0.0013
  Calculation of real space energy and derivatives                0.0041
  Calculation of real space energy using symmetry                 0.0128
  Calculation for region 1 energy and derivatives (2-b)          23.5989
  Calculation for region 2a energy                               16.7094
  Calculation for region 2b energy                                0.0098
  Calculation and manipulation of Hessian matrix                  6.3956
  Calculation of matrix inversion                                 0.3778
  Symmetry generation of equivalent positions                     0.0050
--------------------------------------------------------------------------------
  Total CPU time                                                 47.2733
--------------------------------------------------------------------------------


  Dump file written as Na3OCl.grs


  Job Finished at 15:16.16 19th January    2021                               

