********************************************************************************
*                       GENERAL UTILITY LATTICE PROGRAM                        *
*                                 Julian Gale                                  *
*                       Curtin Institute for Computation                       *
*                    School of Molecular and Life Sciences                     *
*                    Curtin University, Western Australia                      *
********************************************************************************
* Version = 5.2.0 * Last modified =  10th September 2020                       *
********************************************************************************
*  optimise     - perform optimisation run                                     *
*  conp         - constant pressure calculation                                *
*  property     - calculate properties for final geometry                      *
*  defect       - perform defect calculation after bulk run                    *
*  compare      - compare initial and final structures                         *
********************************************************************************

  Job Started  at 15:15.45 19th January    2021                               

  Number of CPUs =     1


  Total number of configurations input =      1

********************************************************************************
*  Input for Configuration =   1                                               *
********************************************************************************

  Formula = OClNa3                                                      

  Number of irreducible atoms/shells =       5


  Total number atoms/shells =       7

  Dimensionality = 3               :  Bulk   


  Symmetry :

  Crystal family                   :  Cubic       
  Crystal class  (Groth - 1921)    :  Cubic Hexakisoctahedral              

  Space group (centrosymmetric)    :  P M 3 M         

  Patterson group                  :  P m -3 m 

  Cartesian lattice vectors (Angstroms) :

        4.504000    0.000000    0.000000
        0.000000    4.504000    0.000000
        0.000000    0.000000    4.504000

  Cell parameters (Angstroms/Degrees):

  a =       4.5040    alpha =  90.0000
  b =       4.5040    beta  =  90.0000
  c =       4.5040    gamma =  90.0000

  Initial cell volume =          91.368216 Angs**3

  Temperature of configuration =   0.00     K 

  Pressure of configuration =         0.000 GPa 

  Fractional coordinates of asymmetric unit :

--------------------------------------------------------------------------------
   No.  Atomic       x           y          z         Charge      Occupancy
        Label      (Frac)      (Frac)     (Frac)        (e)         (Frac)  
--------------------------------------------------------------------------------
      1 O     c    0.000000    0.000000    0.000000     0.18300    1.000000    
      2 Cl    c    0.500000    0.500000    0.500000     1.48500    1.000000    
      3 Na    c    0.500000    0.000000    0.000000     1.00000    1.000000    
      4 O     s    0.000000    0.000000    0.000000    -2.18300    1.000000    
      5 Cl    s    0.500000    0.500000    0.500000    -2.48500    1.000000    
--------------------------------------------------------------------------------


  Constraints : 

--------------------------------------------------------------------------------
  Constraint no.      Unconstrained     Constrained    Coefficient    Offset
                         Variable         Variable
--------------------------------------------------------------------------------
           1              Strain 1        Strain 2       1.00000      0.0000
           2              Strain 1        Strain 3       1.00000      0.0000
--------------------------------------------------------------------------------


********************************************************************************
*  General input information                                                   *
********************************************************************************

  Species output for all configurations : 

--------------------------------------------------------------------------------
  Species    Type    Atomic    Atomic    Charge       Radii (Angs)     Library
                     Number     Mass       (e)     Cova   Ionic  VDW   Symbol
--------------------------------------------------------------------------------
    Na       Core       11      22.99   1.000000   0.970  0.000  2.300          
    O        Core        8      16.00   0.183000   0.730  0.000  1.360          
    O        Shell       8       0.00  -2.183000   0.730  0.000  1.360          
    Cl       Core       17      35.45   1.485000   0.990  0.000  1.650          
    Cl       Shell      17       0.00  -2.485000   0.990  0.000  1.650          
    Mg       Core       12      24.31   0.415000   1.100  0.000  0.000          
    Mg       Shell      12       0.00   1.585000   1.100  0.000  0.000          
    Ca       Core       20      40.08  -1.135000   0.990  0.000  0.000          
    Ca       Shell      20       0.00   3.135000   0.990  0.000  0.000          
    Sr       Core       38      87.62  -1.251000   1.120  0.000  0.000          
    Sr       Shell      38       0.00   3.251000   1.120  0.000  0.000          
    Ba       Core       56     137.33  -7.203000   1.340  0.000  0.000          
    Ba       Shell      56       0.00   9.203000   1.340  0.000  0.000          
--------------------------------------------------------------------------------


  Lattice summation method               =    Ewald          (3-D)
                                         =    Parry          (2-D)
                                         =    Saunders et al (1-D)
  Accuracy factor for lattice sums       =   12.000


  Analytic derivatives to be used

  Time limit = Infinity

  Maximum range for interatomic potentials =    100000.000000 Angstroms

  General interatomic potentials :

--------------------------------------------------------------------------------
Atom  Types   Potential      Parameter       Value         Units   Cutoffs(Ang)
  1     2                                                            Min /  Max 
--------------------------------------------------------------------------------
O    c O    s Spring (c-s)  Spring k 2       593.71600    eV*Ang^-2 0.000  0.800
                            Spring k 4       0.0000000    eV*Ang^-4 
--------------------------------------------------------------------------------
Cl   c Cl   s Spring (c-s)  Spring k 2       29.380000    eV*Ang^-2 0.000  0.800
                            Spring k 4       0.0000000    eV*Ang^-4 
--------------------------------------------------------------------------------
Mg   c Mg   s Spring (c-s)  Spring k 2       361.60000    eV*Ang^-2 0.000  0.800
                            Spring k 4       0.0000000    eV*Ang^-4 
--------------------------------------------------------------------------------
Ca   c Ca   s Spring (c-s)  Spring k 2       110.20000    eV*Ang^-2 0.000  0.800
                            Spring k 4       0.0000000    eV*Ang^-4 
--------------------------------------------------------------------------------
Sr   c Sr   s Spring (c-s)  Spring k 2       71.700000    eV*Ang^-2 0.000  0.800
                            Spring k 4       0.0000000    eV*Ang^-4 
--------------------------------------------------------------------------------
Ba   c Ba   s Spring (c-s)  Spring k 2       495.20000    eV*Ang^-2 0.000  0.800
                            Spring k 4       0.0000000    eV*Ang^-4 
--------------------------------------------------------------------------------
Na   c Na   c Buckingham    Buckingham A     1788.1900    eV        0.000 12.000
                            Buckingham rho  0.15900000    Ang       
                            Buckingham C     0.0000000    eV*Ang^6  
--------------------------------------------------------------------------------
Na   c O    s Buckingham    Buckingham A     588.38000    eV        0.000 12.000
                            Buckingham rho  0.33800000    Ang       
                            Buckingham C     0.0000000    eV*Ang^6  
--------------------------------------------------------------------------------
Na   c Cl   s Buckingham    Buckingham A     1170.4100    eV        0.000 12.000
                            Buckingham rho  0.31500000    Ang       
                            Buckingham C     0.0000000    eV*Ang^6  
--------------------------------------------------------------------------------
O    s O    s Buckingham    Buckingham A     22764.300    eV        0.000 12.000
                            Buckingham rho  0.14900000    Ang       
                            Buckingham C     13.190000    eV*Ang^6  
--------------------------------------------------------------------------------
O    s Cl   s Buckingham    Buckingham A     8286.9100    eV        0.000 12.000
                            Buckingham rho  0.25900000    Ang       
                            Buckingham C     62.200000    eV*Ang^6  
--------------------------------------------------------------------------------
Cl   s Cl   s Buckingham    Buckingham A     1227.2000    eV        0.000 12.000
                            Buckingham rho  0.32100000    Ang       
                            Buckingham C     14.530000    eV*Ang^6  
--------------------------------------------------------------------------------
O    s Mg   s Buckingham    Buckingham A     1428.5000    eV        0.000 12.000
                            Buckingham rho  0.29450000    Ang       
                            Buckingham C     0.0000000    eV*Ang^6  
--------------------------------------------------------------------------------
Mg   s Cl   s Buckingham    Buckingham A     4914.5400    eV        0.000 12.000
                            Buckingham rho  0.25700000    Ang       
                            Buckingham C     0.0000000    eV*Ang^6  
--------------------------------------------------------------------------------
O    s Ca   s Buckingham    Buckingham A     1090.4000    eV        0.000 12.000
                            Buckingham rho  0.34370000    Ang       
                            Buckingham C     0.0000000    eV*Ang^6  
--------------------------------------------------------------------------------
Cl   s Ca   s Buckingham    Buckingham A     2302.0000    eV        0.000 12.000
                            Buckingham rho  0.34020000    Ang       
                            Buckingham C     0.0000000    eV*Ang^6  
--------------------------------------------------------------------------------
O    s Sr   s Buckingham    Buckingham A     959.10000    eV        0.000 12.000
                            Buckingham rho  0.37210000    Ang       
                            Buckingham C     0.0000000    eV*Ang^6  
--------------------------------------------------------------------------------
Cl   s Sr   s Buckingham    Buckingham A     2191.0900    eV        0.000 12.000
                            Buckingham rho  0.34570000    Ang       
                            Buckingham C     0.0000000    eV*Ang^6  
--------------------------------------------------------------------------------
O    s Ba   s Buckingham    Buckingham A     905.70000    eV        0.000 12.000
                            Buckingham rho  0.39760000    Ang       
                            Buckingham C     0.0000000    eV*Ang^6  
--------------------------------------------------------------------------------
Cl   s Ba   s Buckingham    Buckingham A     2704.5500    eV        0.000 12.000
                            Buckingham rho  0.35280000    Ang       
                            Buckingham C     0.0000000    eV*Ang^6  
--------------------------------------------------------------------------------

********************************************************************************
*  Output for configuration   1                                                *
********************************************************************************


  Components of energy : 

--------------------------------------------------------------------------------
  Interatomic potentials     =           4.94315381 eV    
  Monopole - monopole (real) =         -10.03624526 eV    
  Monopole - monopole (recip)=         -29.53581274 eV    
  Monopole - monopole (total)=         -39.57205800 eV    
--------------------------------------------------------------------------------
  Total lattice energy       =         -34.62890419 eV    
--------------------------------------------------------------------------------
  Total lattice energy       =           -3341.1599 kJ/(mole unit cells)
--------------------------------------------------------------------------------


  Number of variables =        1

  Maximum number of calculations  =          1000
  Maximum Hessian update interval =            10
  Maximum step size               =   1.000000000
  Maximum parameter tolerance     =   0.000010000
  Maximum function  tolerance     =   0.000010000
  Maximum gradient  tolerance     =   0.001000000
  Maximum gradient  component     =   0.010000000

  Symmetry constrained optimisation

  Symmetry used for second derivatives

  Cell parameters to be optimised using strains

  Newton-Raphson optimiser to be used

  BFGS hessian update to be used

  Lower half triangular hessian to be used

  Start of bulk optimisation :

  Cycle:      0 Energy:       -34.628904  Gnorm:      4.328237  CPU:    0.013
  ** Hessian calculated **
  Cycle:      1 Energy:       -34.677667  Gnorm:      0.044008  CPU:    0.017
  Cycle:      2 Energy:       -34.677671  Gnorm:      0.003653  CPU:    0.020


  **** Optimisation achieved ****


  Final energy =     -34.67767136 eV
  Final Gnorm  =       0.00000010

  Components of energy : 

--------------------------------------------------------------------------------
  Interatomic potentials     =           5.77546103 eV    
  Monopole - monopole (real) =         -10.25970290 eV    
  Monopole - monopole (recip)=         -30.19342950 eV    
  Monopole - monopole (total)=         -40.45313239 eV    
--------------------------------------------------------------------------------
  Total lattice energy       =         -34.67767136 eV    
--------------------------------------------------------------------------------
  Total lattice energy       =           -3345.8652 kJ/(mole unit cells)
--------------------------------------------------------------------------------

  Final asymmetric unit coordinates :

--------------------------------------------------------------------------------
   No.  Atomic        x           y           z         Radius
        Label       (Frac)      (Frac)      (Frac)       (Angs) 
--------------------------------------------------------------------------------
     1  O     c     0.000000    0.000000    0.000000    0.000000
     2  Cl    c     0.500000    0.500000    0.500000    0.000000
     3  Na    c     0.500000    0.000000    0.000000    0.000000
     4  O     s     0.000000    0.000000    0.000000    0.000000
     5  Cl    s     0.500000    0.500000    0.500000    0.000000
--------------------------------------------------------------------------------

  Final Cartesian lattice vectors (Angstroms) :

        4.405902    0.000000    0.000000
        0.000000    4.405902    0.000000
        0.000000    0.000000    4.405902


  Final cell parameters and derivatives :

--------------------------------------------------------------------------------
       a            4.405902 Angstrom     dE/de1(xx)     0.000000 eV/strain
       b            4.405902 Angstrom     dE/de2(yy)     0.000000 eV/strain
       c            4.405902 Angstrom     dE/de3(zz)     0.000000 eV/strain
       alpha       90.000000 Degrees      dE/de4(yz)     0.000000 eV/strain
       beta        90.000000 Degrees      dE/de5(xz)     0.000000 eV/strain
       gamma       90.000000 Degrees      dE/de6(xy)     0.000000 eV/strain
--------------------------------------------------------------------------------

  Primitive cell volume =            85.527266 Angs**3

  Density of cell =      2.338030 g/cm**3

  Non-primitive cell volume =            85.527266 Angs**3


  Final internal derivatives :

--------------------------------------------------------------------------------
   No.  Atomic          a             b             c           Radius
        Label          (eV)          (eV)          (eV)        (eV/Angs)
--------------------------------------------------------------------------------
      1 O     c       0.000000      0.000000      0.000000      0.000000
      2 Cl    c       0.000000      0.000000      0.000000      0.000000
      3 Na    c       0.000000      0.000000      0.000000      0.000000
      4 O     s       0.000000      0.000000      0.000000      0.000000
      5 Cl    s       0.000000      0.000000      0.000000      0.000000
--------------------------------------------------------------------------------
  Maximum abs         0.000000      0.000000      0.000000      0.000000
--------------------------------------------------------------------------------

  Comparison of initial and final structures : 

--------------------------------------------------------------------------------
  Parameter   Initial value   Final value   Difference    Units      Percent
--------------------------------------------------------------------------------
    Volume        91.368216     85.527266    -5.840950    Angs**3     -6.39
    a              4.504000      4.405902    -0.098098    Angstroms   -2.18
    b              4.504000      4.405902    -0.098098    Angstroms   -2.18
    c              4.504000      4.405902    -0.098098    Angstroms   -2.18
    alpha         90.000000     90.000000     0.000000    Degrees      0.00
    beta          90.000000     90.000000     0.000000    Degrees      0.00
    gamma         90.000000     90.000000     0.000000    Degrees      0.00
      1 x          0.000000      0.000000     0.000000    Fractional   0.00
      1 y          0.000000      0.000000     0.000000    Fractional   0.00
      1 z          0.000000      0.000000     0.000000    Fractional   0.00
      2 x          0.500000      0.500000     0.000000    Fractional   0.00
      2 y          0.500000      0.500000     0.000000    Fractional   0.00
      2 z          0.500000      0.500000     0.000000    Fractional   0.00
      3 x          0.500000      0.500000     0.000000    Fractional   0.00
      3 y          0.000000      0.000000     0.000000    Fractional   0.00
      3 z          0.000000      0.000000     0.000000    Fractional   0.00
      4 x          0.000000      0.000000     0.000000    Fractional   0.00
      4 y          0.000000      0.000000     0.000000    Fractional   0.00
      4 z          0.000000      0.000000     0.000000    Fractional   0.00
      5 x          0.500000      0.500000     0.000000    Fractional   0.00
      5 y          0.500000      0.500000     0.000000    Fractional   0.00
      5 z          0.500000      0.500000     0.000000    Fractional   0.00
--------------------------------------------------------------------------------


  Born effective charge tensors : 

-------------------------------------------------------------------------------
  Atom             x           y             z
-------------------------------------------------------------------------------
    1 O     x      -2.2939      0.0000      0.0000
            y       0.0000     -2.2939      0.0000
            z       0.0000      0.0000     -2.2939
-------------------------------------------------------------------------------
    2 Cl    x      -0.9918     -0.0000      0.0000
            y      -0.0000     -0.9918      0.0000
            z       0.0000      0.0000     -0.9918
-------------------------------------------------------------------------------
    3 Na    x       0.8372     -0.0000     -0.0000
            y      -0.0000      1.2243     -0.0000
            z       0.0000     -0.0000      1.2243
-------------------------------------------------------------------------------




  Elastic Constant Matrix: (Units=GPa)

-------------------------------------------------------------------------------
  Indices      1         2         3         4         5         6    
-------------------------------------------------------------------------------
       1     82.7680   24.3534   24.3534   -0.0000    0.0000   -0.0000
       2     24.3534   82.7680   24.3534   -0.0000   -0.0000   -0.0000
       3     24.3534   24.3534   82.7680    0.0000   -0.0000    0.0000
       4     -0.0000   -0.0000    0.0000   24.3534   -0.0000   -0.0000
       5      0.0000   -0.0000   -0.0000   -0.0000   24.3534   -0.0000
       6     -0.0000   -0.0000    0.0000   -0.0000   -0.0000   24.3534
-------------------------------------------------------------------------------


  Elastic Compliance Matrix: (Units=1/GPa)

-------------------------------------------------------------------------------
  Indices      1         2         3         4         5         6    
-------------------------------------------------------------------------------
       1    0.013948 -0.003171 -0.003171 -0.000000 -0.000000  0.000000
       2   -0.003171  0.013948 -0.003171  0.000000 -0.000000  0.000000
       3   -0.003171 -0.003171  0.013948 -0.000000  0.000000 -0.000000
       4   -0.000000  0.000000 -0.000000  0.041062  0.000000  0.000000
       5   -0.000000 -0.000000  0.000000  0.000000  0.041062  0.000000
       6    0.000000  0.000000 -0.000000  0.000000  0.000000  0.041062
-------------------------------------------------------------------------------

  Mechanical properties :

-------------------------------------------------------------------------------
  Convention :                    Reuss         Voigt         Hill
-------------------------------------------------------------------------------
  Bulk  Modulus (GPa)     =      43.82493      43.82493      43.82493
  Shear Modulus (GPa)     =      26.08758      26.29496      26.19127
-------------------------------------------------------------------------------
  Velocity S-wave (km/s)  =       3.34035       3.35360       3.34698
  Velocity P-wave (km/s)  =       5.79842       5.80861       5.80351
-------------------------------------------------------------------------------
  Compressibility (1/GPa) =    0.02281806
-------------------------------------------------------------------------------
  Stress axis :                     x             y             z
-------------------------------------------------------------------------------
  Youngs Moduli (GPa)     =      71.69479      71.69479      71.69479
-------------------------------------------------------------------------------
  Poissons Ratio (x)      =                     0.22734       0.22734
  Poissons Ratio (y)      =       0.22734                     0.22734
  Poissons Ratio (z)      =       0.22734       0.22734
-------------------------------------------------------------------------------


  Piezoelectric Strain Matrix: (Units=C/m**2)

-------------------------------------------------------------------------------
  Indices      1         2         3         4         5         6    
-------------------------------------------------------------------------------
       x    -0.00000  -0.00000  -0.00000  -0.00000   0.00000   0.00000
       y    -0.00000   0.00000  -0.00000   0.00000  -0.00000   0.00000
       z     0.00000   0.00000   0.00000  -0.00000   0.00000  -0.00000
-------------------------------------------------------------------------------


  Piezoelectric Stress Matrix: (Units=10**-11 C/N)

-------------------------------------------------------------------------------
  Indices      1         2         3         4         5         6    
-------------------------------------------------------------------------------
       x    -0.00000  -0.00000  -0.00000  -0.00000   0.00000   0.00000
       y    -0.00000   0.00000  -0.00000   0.00000  -0.00000   0.00000
       z     0.00000   0.00000  -0.00000  -0.00000   0.00000  -0.00000
-------------------------------------------------------------------------------


  Static dielectric constant tensor : 

-------------------------------------------------------------------------------
              x         y         z
-------------------------------------------------------------------------------
       x    11.08357  -0.00000  -0.00000
       y    -0.00000  11.08357  -0.00000
       z    -0.00000  -0.00000  11.08357
--------------------------------------------------------------------------------

  High frequency dielectric constant tensor : 

-------------------------------------------------------------------------------
              x         y         z
-------------------------------------------------------------------------------
       x     1.50771  -0.00000  -0.00000
       y    -0.00000   1.50771  -0.00000
       z    -0.00000  -0.00000   1.50771
-------------------------------------------------------------------------------

  Static refractive indices : 

-------------------------------------------------------------------------------
    1 =    3.32920      2 =    3.32920      3 =    3.32920
-------------------------------------------------------------------------------

  High frequency refractive indices : 

-------------------------------------------------------------------------------
    1 =    1.22789      2 =    1.22789      3 =    1.22789
-------------------------------------------------------------------------------


  Time to end of optimisation =       0.0277 seconds

********************************************************************************
*  Defect calculation for configuration   1 :                                  *
********************************************************************************

  Total number of defects =      3

  Total charge on defect  =   2.00

  Defect centre is at   2.2520   2.2520   0.0000  Angs

  Region 1 radius =  12.0000      Number of ions =    622

  Number of symmetry inequivalent region 1 ions  =    201

  Region 2 radius =  16.0000      Number of ions =    762

  Number of symmetry inequivalent region 2a ions =    224

  Region 2a mode = 4 : screened electrostatics due to region 1 
                       neglect correction to region 1 forces from 2a
                       region 2a displacements based on defects only

  Region 2a ions will only interact with defects in region 1

  Vacancies:

--------------------------------------------------------------------------------
    Specification type     Symbol/Number         x          y          z
--------------------------------------------------------------------------------
    Cartesian                                0.000000   0.000000   0.000000
    Cartesian                                4.504000   4.504000   0.000000
--------------------------------------------------------------------------------

  Interstitials:

--------------------------------------------------------------------------------
    Specification type     Symbol/Number         x          y          z
--------------------------------------------------------------------------------
    Atom/Cartesian          O                2.432160   2.432160   0.000000
--------------------------------------------------------------------------------


  Symmetry reduced region 1 (Relative to defect centre) :

--------------------------------------------------------------------------------
   No.   Atomic       x            y             z       Radius  Multiplicity   
         Label      (Angs)       (Angs)        (Angs)    (Angs)     
--------------------------------------------------------------------------------
     1  O     c      0.1802       0.1802       0.0000    0.0000     1    Defect
     2  Na    c     -0.0490 *     2.1539 *     0.0000    0.0000     2          
     3  Cl    c     -0.0490 *    -0.0490      -2.2030 *  0.0000     2          
     4  Na    c     -0.0490 *    -2.2520 *     0.0000    0.0000     2          
     5  O     c      2.1539 *    -2.2520 *     0.0000    0.0000     2          
     6  Na    c      2.1539 *     2.1539      -2.2030 *  0.0000     2          
     7  Na    c      2.1539 *    -2.2520 *    -2.2030 *  0.0000     4          
     8  Na    c     -2.2520 *    -2.2520      -2.2030 *  0.0000     2          
     9  Na    c      4.3569 *     2.1539 *     0.0000    0.0000     2          
    10  Cl    c     -0.0490 *     4.3569 *    -2.2030 *  0.0000     4          
    11  Na    c     -0.0490 *     2.1539 *     4.4059 *  0.0000     4          
    12  Na    c      4.3569 *    -2.2520 *     0.0000    0.0000     2          
    13  Na    c     -0.0490 *    -2.2520 *     4.4059 *  0.0000     4          
    14  Na    c     -4.4550 *     2.1539 *     0.0000    0.0000     2          
    15  Cl    c     -0.0490 *    -4.4550 *    -2.2030 *  0.0000     4          
    16  Na    c     -4.4550 *    -2.2520 *     0.0000    0.0000     2          
    17  O     c      2.1539 *     2.1539       4.4059 *  0.0000     2          
    18  O     c      2.1539 *    -2.2520 *     4.4059 *  0.0000     4          
    19  O     c     -2.2520 *    -2.2520       4.4059 *  0.0000     2          
    20  Cl    c      4.3569 *     4.3569      -2.2030 *  0.0000     2          
    21  Na    c     -0.0490 *     6.5598 *     0.0000    0.0000     2          
    22  Na    c      4.3569 *     2.1539 *     4.4059 *  0.0000     4          
    23  Na    c      4.3569 *    -2.2520 *     4.4059 *  0.0000     4          
    24  Cl    c     -0.0490 *    -0.0490       6.6089 *  0.0000     2          
    25  Cl    c      4.3569 *    -4.4550 *    -2.2030 *  0.0000     4          
    26  Na    c     -4.4550 *     2.1539 *     4.4059 *  0.0000     4          
    27  Na    c     -0.0490 *    -6.6579 *     0.0000    0.0000     2          
    28  Na    c     -4.4550 *    -2.2520 *     4.4059 *  0.0000     4          
    29  Cl    c     -4.4550 *    -4.4550      -2.2030 *  0.0000     2          
    30  O     c      2.1539 *     6.5598 *     0.0000    0.0000     2          
    31  O     c      6.5598 *    -2.2520 *     0.0000    0.0000     2          
    32  O     c      2.1539 *    -6.6579 *     0.0000    0.0000     2          
    33  O     c     -2.2520 *    -6.6579 *     0.0000    0.0000     2          
    34  Na    c      2.1539 *     6.5598 *    -2.2030 *  0.0000     4          
    35  Na    c      2.1539 *     2.1539       6.6089 *  0.0000     2          
    36  Na    c      6.5598 *    -2.2520 *    -2.2030 *  0.0000     4          
    37  Na    c      2.1539 *    -2.2520 *     6.6089 *  0.0000     4          
    38  Na    c      2.1539 *    -6.6579 *    -2.2030 *  0.0000     4          
    39  Na    c     -2.2520 *    -2.2520       6.6089 *  0.0000     2          
    40  Na    c     -2.2520 *    -6.6579 *    -2.2030 *  0.0000     4          
    41  Na    c      4.3569 *     6.5598 *     0.0000    0.0000     2          
    42  Na    c     -0.0490 *     6.5598 *     4.4059 *  0.0000     4          
    43  Cl    c     -0.0490 *     4.3569 *     6.6089 *  0.0000     4          
    44  Na    c     -4.4550 *     6.5598 *     0.0000    0.0000     2          
    45  Na    c      4.3569 *    -6.6579 *     0.0000    0.0000     2          
    46  Cl    c     -0.0490 *    -4.4550 *     6.6089 *  0.0000     4          
    47  Na    c     -0.0490 *    -6.6579 *     4.4059 *  0.0000     4          
    48  Na    c     -4.4550 *    -6.6579 *     0.0000    0.0000     2          
    49  O     c      2.1539 *     6.5598 *     4.4059 *  0.0000     4          
    50  O     c      6.5598 *    -2.2520 *     4.4059 *  0.0000     4          
    51  O     c      2.1539 *    -6.6579 *     4.4059 *  0.0000     4          
    52  O     c     -2.2520 *    -6.6579 *     4.4059 *  0.0000     4          
    53  Na    c      4.3569 *     6.5598 *     4.4059 *  0.0000     4          
    54  Na    c      8.7628 *     2.1539 *     0.0000    0.0000     2          
    55  Cl    c     -0.0490 *     8.7628 *    -2.2030 *  0.0000     4          
    56  Cl    c      4.3569 *     4.3569       6.6089 *  0.0000     2          
    57  Na    c      8.7628 *    -2.2520 *     0.0000    0.0000     2          
    58  Na    c     -0.0490 *     2.1539 *     8.8118 *  0.0000     4          
    59  Na    c     -4.4550 *     6.5598 *     4.4059 *  0.0000     4          
    60  Cl    c      4.3569 *    -4.4550 *     6.6089 *  0.0000     4          
    61  Na    c     -0.0490 *    -2.2520 *     8.8118 *  0.0000     4          
    62  Na    c      4.3569 *    -6.6579 *     4.4059 *  0.0000     4          
    63  Na    c     -8.8609 *     2.1539 *     0.0000    0.0000     2          
    64  Cl    c     -0.0490 *    -8.8609 *    -2.2030 *  0.0000     4          
    65  Cl    c     -4.4550 *    -4.4550       6.6089 *  0.0000     2          
    66  Na    c     -8.8609 *    -2.2520 *     0.0000    0.0000     2          
    67  Na    c     -4.4550 *    -6.6579 *     4.4059 *  0.0000     4          
    68  O     c      6.5598 *     6.5598       0.0000    0.0000     1          
    69  O     c      2.1539 *     2.1539       8.8118 *  0.0000     2          
    70  O     c      2.1539 *    -2.2520 *     8.8118 *  0.0000     4          
    71  O     c      6.5598 *    -6.6579 *     0.0000    0.0000     2          
    72  O     c     -2.2520 *    -2.2520       8.8118 *  0.0000     2          
    73  O     c     -6.6579 *    -6.6579       0.0000    0.0000     1          
    74  Na    c      6.5598 *     6.5598      -2.2030 *  0.0000     2          
    75  Na    c      2.1539 *     6.5598 *     6.6089 *  0.0000     4          
    76  Na    c      6.5598 *    -2.2520 *     6.6089 *  0.0000     4          
    77  Na    c      6.5598 *    -6.6579 *    -2.2030 *  0.0000     4          
    78  Na    c      2.1539 *    -6.6579 *     6.6089 *  0.0000     4          
    79  Na    c     -2.2520 *    -6.6579 *     6.6089 *  0.0000     4          
    80  Na    c     -6.6579 *    -6.6579      -2.2030 *  0.0000     2          
    81  Cl    c      4.3569 *     8.7628 *    -2.2030 *  0.0000     4          
    82  Na    c      8.7628 *     2.1539 *     4.4059 *  0.0000     4          
    83  Na    c      4.3569 *     2.1539 *     8.8118 *  0.0000     4          
    84  Na    c      8.7628 *    -2.2520 *     4.4059 *  0.0000     4          
    85  Cl    c      8.7628 *    -4.4550 *    -2.2030 *  0.0000     4          
    86  Na    c      4.3569 *    -2.2520 *     8.8118 *  0.0000     4          
    87  Na    c     -4.4550 *     2.1539 *     8.8118 *  0.0000     4          
    88  Cl    c      4.3569 *    -8.8609 *    -2.2030 *  0.0000     4          
    89  Na    c     -8.8609 *     2.1539 *     4.4059 *  0.0000     4          
    90  Na    c     -4.4550 *    -2.2520 *     8.8118 *  0.0000     4          
    91  Na    c     -8.8609 *    -2.2520 *     4.4059 *  0.0000     4          
    92  Cl    c     -4.4550 *    -8.8609 *    -2.2030 *  0.0000     4          
    93  O     c      6.5598 *     6.5598       4.4059 *  0.0000     2          
    94  O     c      6.5598 *    -6.6579 *     4.4059 *  0.0000     4          
    95  O     c     -6.6579 *    -6.6579       4.4059 *  0.0000     2          
    96  Na    c      8.7628 *     6.5598 *     0.0000    0.0000     2          
    97  Na    c     -0.0490 *    10.9657 *     0.0000    0.0000     2          
    98  Cl    c     -0.0490 *     8.7628 *     6.6089 *  0.0000     4          
    99  Na    c     -0.0490 *     6.5598 *     8.8118 *  0.0000     4          
   100  Na    c      8.7628 *    -6.6579 *     0.0000    0.0000     2          
   101  Cl    c     -0.0490 *    -0.0490      11.0148 *  0.0000     2          
   102  Na    c     -8.8609 *     6.5598 *     0.0000    0.0000     2          
   103  Na    c     -0.0490 *    -6.6579 *     8.8118 *  0.0000     4          
   104  Cl    c     -0.0490 *    -8.8609 *     6.6089 *  0.0000     4          
   105  Na    c     -0.0490 *   -11.0638 *     0.0000    0.0000     2          
   106  Na    c     -8.8609 *    -6.6579 *     0.0000    0.0000     2          
   107  O     c      2.1539 *    10.9657 *     0.0000    0.0000     2          
   108  O     c      2.1539 *     6.5598 *     8.8118 *  0.0000     4          
   109  O     c     10.9657 *    -2.2520 *     0.0000    0.0000     2          
   110  O     c      6.5598 *    -2.2520 *     8.8118 *  0.0000     4          
   111  O     c      2.1539 *    -6.6579 *     8.8118 *  0.0000     4          
   112  O     c      2.1539 *   -11.0638 *     0.0000    0.0000     2          
   113  O     c     -2.2520 *    -6.6579 *     8.8118 *  0.0000     4          
   114  O     c     -2.2520 *   -11.0638 *     0.0000    0.0000     2          
   115  Na    c      6.5598 *     6.5598       6.6089 *  0.0000     2          
   116  Na    c      2.1539 *    10.9657 *    -2.2030 *  0.0000     4          
   117  Na    c     10.9657 *    -2.2520 *    -2.2030 *  0.0000     4          
   118  Na    c      2.1539 *     2.1539      11.0148 *  0.0000     2          
   119  Na    c      2.1539 *    -2.2520 *    11.0148 *  0.0000     4          
   120  Na    c      6.5598 *    -6.6579 *     6.6089 *  0.0000     4          
   121  Na    c     -2.2520 *    -2.2520      11.0148 *  0.0000     2          
   122  Na    c      2.1539 *   -11.0638 *    -2.2030 *  0.0000     4          
   123  Na    c     -2.2520 *   -11.0638 *    -2.2030 *  0.0000     4          
   124  Na    c     -6.6579 *    -6.6579       6.6089 *  0.0000     2          
   125  Na    c      4.3569 *    10.9657 *     0.0000    0.0000     2          
   126  Na    c      8.7628 *     6.5598 *     4.4059 *  0.0000     4          
   127  Cl    c      4.3569 *     8.7628 *     6.6089 *  0.0000     4          
   128  Na    c     -0.0490 *    10.9657 *     4.4059 *  0.0000     4          
   129  Na    c      4.3569 *     6.5598 *     8.8118 *  0.0000     4          
   130  Na    c     -4.4550 *    10.9657 *     0.0000    0.0000     2          
   131  Cl    c     -0.0490 *     4.3569 *    11.0148 *  0.0000     4          
   132  Cl    c      8.7628 *    -4.4550 *     6.6089 *  0.0000     4          
   133  Na    c     -4.4550 *     6.5598 *     8.8118 *  0.0000     4          
   134  Na    c      8.7628 *    -6.6579 *     4.4059 *  0.0000     4          
   135  Na    c      4.3569 *    -6.6579 *     8.8118 *  0.0000     4          
   136  Na    c     -8.8609 *     6.5598 *     4.4059 *  0.0000     4          
   137  Cl    c     -0.0490 *    -4.4550 *    11.0148 *  0.0000     4          
   138  Cl    c      4.3569 *    -8.8609 *     6.6089 *  0.0000     4          
   139  Na    c      4.3569 *   -11.0638 *     0.0000    0.0000     2          
   140  Na    c     -0.0490 *   -11.0638 *     4.4059 *  0.0000     4          
   141  Na    c     -4.4550 *    -6.6579 *     8.8118 *  0.0000     4          
   142  Cl    c     -4.4550 *    -8.8609 *     6.6089 *  0.0000     4          
   143  Na    c     -4.4550 *   -11.0638 *     0.0000    0.0000     2          
   144  Na    c     -8.8609 *    -6.6579 *     4.4059 *  0.0000     4          
   145  O     s      0.1802       0.1802       0.0000    0.0000     1    Defect
   146  Cl    s     -0.0490 *    -0.0490      -2.2030 *  0.0000     2          
   147  O     s      2.1539 *    -2.2520 *     0.0000    0.0000     2          
   148  Cl    s     -0.0490 *     4.3569 *    -2.2030 *  0.0000     4          
   149  Cl    s     -0.0490 *    -4.4550 *    -2.2030 *  0.0000     4          
   150  O     s      2.1539 *     2.1539       4.4059 *  0.0000     2          
   151  O     s      2.1539 *    -2.2520 *     4.4059 *  0.0000     4          
   152  O     s     -2.2520 *    -2.2520       4.4059 *  0.0000     2          
   153  Cl    s      4.3569 *     4.3569      -2.2030 *  0.0000     2          
   154  Cl    s     -0.0490 *    -0.0490       6.6089 *  0.0000     2          
   155  Cl    s      4.3569 *    -4.4550 *    -2.2030 *  0.0000     4          
   156  Cl    s     -4.4550 *    -4.4550      -2.2030 *  0.0000     2          
   157  O     s      2.1539 *     6.5598 *     0.0000    0.0000     2          
   158  O     s      6.5598 *    -2.2520 *     0.0000    0.0000     2          
   159  O     s      2.1539 *    -6.6579 *     0.0000    0.0000     2          
   160  O     s     -2.2520 *    -6.6579 *     0.0000    0.0000     2          
   161  Cl    s     -0.0490 *     4.3569 *     6.6089 *  0.0000     4          
   162  Cl    s     -0.0490 *    -4.4550 *     6.6089 *  0.0000     4          
   163  O     s      2.1539 *     6.5598 *     4.4059 *  0.0000     4          
   164  O     s      6.5598 *    -2.2520 *     4.4059 *  0.0000     4          
   165  O     s      2.1539 *    -6.6579 *     4.4059 *  0.0000     4          
   166  O     s     -2.2520 *    -6.6579 *     4.4059 *  0.0000     4          
   167  Cl    s     -0.0490 *     8.7628 *    -2.2030 *  0.0000     4          
   168  Cl    s      4.3569 *     4.3569       6.6089 *  0.0000     2          
   169  Cl    s      4.3569 *    -4.4550 *     6.6089 *  0.0000     4          
   170  Cl    s     -0.0490 *    -8.8609 *    -2.2030 *  0.0000     4          
   171  Cl    s     -4.4550 *    -4.4550       6.6089 *  0.0000     2          
   172  O     s      6.5598 *     6.5598       0.0000    0.0000     1          
   173  O     s      2.1539 *     2.1539       8.8118 *  0.0000     2          
   174  O     s      2.1539 *    -2.2520 *     8.8118 *  0.0000     4          
   175  O     s      6.5598 *    -6.6579 *     0.0000    0.0000     2          
   176  O     s     -2.2520 *    -2.2520       8.8118 *  0.0000     2          
   177  O     s     -6.6579 *    -6.6579       0.0000    0.0000     1          
   178  Cl    s      4.3569 *     8.7628 *    -2.2030 *  0.0000     4          
   179  Cl    s      8.7628 *    -4.4550 *    -2.2030 *  0.0000     4          
   180  Cl    s      4.3569 *    -8.8609 *    -2.2030 *  0.0000     4          
   181  Cl    s     -4.4550 *    -8.8609 *    -2.2030 *  0.0000     4          
   182  O     s      6.5598 *     6.5598       4.4059 *  0.0000     2          
   183  O     s      6.5598 *    -6.6579 *     4.4059 *  0.0000     4          
   184  O     s     -6.6579 *    -6.6579       4.4059 *  0.0000     2          
   185  Cl    s     -0.0490 *     8.7628 *     6.6089 *  0.0000     4          
   186  Cl    s     -0.0490 *    -0.0490      11.0148 *  0.0000     2          
   187  Cl    s     -0.0490 *    -8.8609 *     6.6089 *  0.0000     4          
   188  O     s      2.1539 *    10.9657 *     0.0000    0.0000     2          
   189  O     s      2.1539 *     6.5598 *     8.8118 *  0.0000     4          
   190  O     s     10.9657 *    -2.2520 *     0.0000    0.0000     2          
   191  O     s      6.5598 *    -2.2520 *     8.8118 *  0.0000     4          
   192  O     s      2.1539 *    -6.6579 *     8.8118 *  0.0000     4          
   193  O     s      2.1539 *   -11.0638 *     0.0000    0.0000     2          
   194  O     s     -2.2520 *    -6.6579 *     8.8118 *  0.0000     4          
   195  O     s     -2.2520 *   -11.0638 *     0.0000    0.0000     2          
   196  Cl    s      4.3569 *     8.7628 *     6.6089 *  0.0000     4          
   197  Cl    s     -0.0490 *     4.3569 *    11.0148 *  0.0000     4          
   198  Cl    s      8.7628 *    -4.4550 *     6.6089 *  0.0000     4          
   199  Cl    s     -0.0490 *    -4.4550 *    11.0148 *  0.0000     4          
   200  Cl    s      4.3569 *    -8.8609 *     6.6089 *  0.0000     4          
   201  Cl    s     -4.4550 *    -8.8609 *     6.6089 *  0.0000     4          
--------------------------------------------------------------------------------


  Constraints on symmetry reduced coordinates :

--------------------------------------------------------------------------------
  Constraint no.      Unconstrained     Constrained    Coefficient    
                         Variable         Variable
--------------------------------------------------------------------------------
           1                 3 x             3 y         1.00000
           2                 6 x             6 y         1.00000
           3                 8 x             8 y         1.00000
           4                17 x            17 y         1.00000
           5                19 x            19 y         1.00000
           6                20 x            20 y         1.00000
           7                24 x            24 y         1.00000
           8                29 x            29 y         1.00000
           9                35 x            35 y         1.00000
          10                39 x            39 y         1.00000
          11                56 x            56 y         1.00000
          12                65 x            65 y         1.00000
          13                68 x            68 y         1.00000
          14                69 x            69 y         1.00000
          15                72 x            72 y         1.00000
          16                73 x            73 y         1.00000
          17                74 x            74 y         1.00000
          18                80 x            80 y         1.00000
          19                93 x            93 y         1.00000
          20                95 x            95 y         1.00000
          21               101 x           101 y         1.00000
          22               115 x           115 y         1.00000
          23               118 x           118 y         1.00000
          24               121 x           121 y         1.00000
          25               124 x           124 y         1.00000
          26               146 x           146 y         1.00000
          27               150 x           150 y         1.00000
          28               152 x           152 y         1.00000
          29               153 x           153 y         1.00000
          30               154 x           154 y         1.00000
          31               156 x           156 y         1.00000
          32               168 x           168 y         1.00000
          33               171 x           171 y         1.00000
          34               172 x           172 y         1.00000
          35               173 x           173 y         1.00000
          36               176 x           176 y         1.00000
          37               177 x           177 y         1.00000
          38               182 x           182 y         1.00000
          39               184 x           184 y         1.00000
          40               186 x           186 y         1.00000
--------------------------------------------------------------------------------


  Components of defect energy : 

--------------------------------------------------------------------------------
  Region 1 - region 1                   =    101.81364096 eV
  Region 1 - region 2a (unrelaxed)      =    -55.09334638 eV
  Region 1 - 2a (relaxed - correction)  =     -1.00270045 eV
  Region 1 (Total)                      =     45.71759413 eV
  Region 2a                             =      0.50174567 eV
  Region 2b                             =     -1.64644567 eV
--------------------------------------------------------------------------------
  Total defect energy                   =     44.57289413 eV
--------------------------------------------------------------------------------

  Largest displacement in region 2 =   0.0422 Angstroms


  Number of variables =      507

  Maximum number of calculations  =        1000
  Maximum Hessian update interval =          10
  Maximum step size               =   1.0000000
  Maximum parameter tolerance     =   0.0000100
  Maximum function  tolerance     =   0.0000100
  Maximum gradient  tolerance     =   0.0010000

  Symmetry adapted optimisation

  Symmetry to be used for second derivatives

  Newton-Raphson optimiser to be used

  BFGS hessian update to be used

  Lower half triangular hessian to be used

  Start of defect optimisation :

  Cycle:      0 Defect Energy:  44.572894  Gnorm:     0.098297  CPU:    2.142
  ** Hessian calculated **
  Cycle:      1 Defect Energy:  36.722462  Gnorm:     0.073663  CPU:   11.785
  Cycle:      2 Defect Energy:  33.534898  Gnorm:     0.052837  CPU:   15.332
  ** Hessian calculated **
  Cycle:      3 Defect Energy:  31.495227  Gnorm:     0.044932  CPU:   20.023
  Cycle:      4 Defect Energy:  28.952681  Gnorm:     0.024724  CPU:   22.908
  Cycle:      5 Defect Energy:  28.295670  Gnorm:     0.019691  CPU:   25.162
  ** Hessian calculated **
  Cycle:      6 Defect Energy:  27.732178  Gnorm:     0.012731  CPU:   29.673
  ** Hessian calculated **
  Cycle:      7 Defect Energy:  26.847766  Gnorm:     0.010166  CPU:   33.905
  Cycle:      8 Defect Energy:  26.384643  Gnorm:     0.005114  CPU:   36.409
  Cycle:      9 Defect Energy:  26.217492  Gnorm:     0.003263  CPU:   37.053
  Cycle:     10 Defect Energy:  26.168492  Gnorm:     0.002629  CPU:   37.654
  Cycle:     11 Defect Energy:  26.126689  Gnorm:     0.002105  CPU:   38.221
  Cycle:     12 Defect Energy:  26.086566  Gnorm:     0.001705  CPU:   38.788
  Cycle:     13 Defect Energy:  26.053657  Gnorm:     0.001300  CPU:   39.365
  Cycle:     14 Defect Energy:  26.028184  Gnorm:     0.001093  CPU:   39.976
  Cycle:     15 Defect Energy:  26.004890  Gnorm:     0.000880  CPU:   40.487
  Cycle:     16 Defect Energy:  25.982365  Gnorm:     0.000766  CPU:   43.408
  ** Hessian calculated **
  Cycle:     17 Defect Energy:  25.955581  Gnorm:     0.000608  CPU:   46.627
  Cycle:     18 Defect Energy:  25.938089  Gnorm:     0.000510  CPU:   47.417
  Cycle:     19 Defect Energy:  25.930946  Gnorm:     0.000390  CPU:   48.203
  Cycle:     20 Defect Energy:  25.928325  Gnorm:     0.000277  CPU:   48.983
  Cycle:     21 Defect Energy:  25.927235  Gnorm:     0.000195  CPU:   49.632
  Cycle:     22 Defect Energy:  25.926756  Gnorm:     0.000137  CPU:   50.273
  Cycle:     23 Defect Energy:  25.926546  Gnorm:     0.000096  CPU:   50.915
  Cycle:     24 Defect Energy:  25.926457  Gnorm:     0.000068  CPU:   51.565
  Cycle:     25 Defect Energy:  25.926422  Gnorm:     0.000047  CPU:   52.226
  Cycle:     26 Defect Energy:  25.926411  Gnorm:     0.000033  CPU:   52.884
  ** Hessian calculated **


  **** Optimisation achieved ****


  Final defect energy  =       25.92640920
  Final defect Gnorm   =        0.00002328

  Components of defect energy : 

--------------------------------------------------------------------------------
  Region 1 - region 1                   =     75.05488224 eV
  Region 1 - region 2a (unrelaxed)      =    -47.11020875 eV
  Region 1 - 2a (relaxed - correction)  =     -0.74221028 eV
  Region 1 (Total)                      =     27.20246321 eV
  Region 2a                             =      0.37038330 eV
  Region 2b                             =     -1.64643731 eV
--------------------------------------------------------------------------------
  Total defect energy                   =     25.92640920 eV
--------------------------------------------------------------------------------

  Largest displacement in region 2 =   0.0422 Angstroms

  Final coordinates of region 1 :

--------------------------------------------------------------------------------
   No.  Atomic        x           y           z          Radius      Charge
        Label       (Angs)      (Angs)      (Angs)       (Angs)       (e) 
--------------------------------------------------------------------------------
     1  O     c     2.432160    2.432160    0.000000    0.000000    0.183000
     2  Na    c     1.908119    4.465726    0.000000    0.000000    1.000000
     3  Na    c     4.465726    1.908119    0.000000    0.000000    1.000000
     4  Cl    c     2.047630    2.047630   -2.976494    0.000000    1.485000
     5  Cl    c     2.047630    2.047630    2.976494    0.000000    1.485000
     6  Na    c     2.516261    0.343872    0.000000    0.000000    1.000000
     7  Na    c     0.343872    2.516261    0.000000    0.000000    1.000000
     8  O     c     4.586311   -0.232804    0.000000    0.000000    0.183000
     9  O     c    -0.232804    4.586311    0.000000    0.000000    0.183000
    10  Na    c     3.857616    3.857616   -2.446469    0.000000    1.000000
    11  Na    c     3.857616    3.857616    2.446469    0.000000    1.000000
    12  Na    c     4.393189   -0.078762   -2.262918    0.000000    1.000000
    13  Na    c     4.393189   -0.078762    2.262918    0.000000    1.000000
    14  Na    c    -0.078762    4.393189   -2.262918    0.000000    1.000000
    15  Na    c    -0.078762    4.393189    2.262918    0.000000    1.000000
    16  Na    c     0.127571    0.127571   -2.588308    0.000000    1.000000
    17  Na    c     0.127571    0.127571    2.588308    0.000000    1.000000
    18  Na    c     6.846707    4.433656    0.000000    0.000000    1.000000
    19  Na    c     4.433656    6.846707    0.000000    0.000000    1.000000
    20  Cl    c     2.505965    6.284541   -1.952592    0.000000    1.485000
    21  Cl    c     2.505965    6.284541    1.952592    0.000000    1.485000
    22  Cl    c     6.284541    2.505965   -1.952592    0.000000    1.485000
    23  Cl    c     6.284541    2.505965    1.952592    0.000000    1.485000
    24  Na    c     2.121319    4.336412    4.707107    0.000000    1.000000
    25  Na    c     2.121319    4.336412   -4.707107    0.000000    1.000000
    26  Na    c     4.336412    2.121319    4.707107    0.000000    1.000000
    27  Na    c     4.336412    2.121319   -4.707107    0.000000    1.000000
    28  Na    c     6.692263   -0.282087    0.000000    0.000000    1.000000
    29  Na    c    -0.282087    6.692263    0.000000    0.000000    1.000000
    30  Na    c     2.208768   -0.021843    4.689385    0.000000    1.000000
    31  Na    c     2.208768   -0.021843   -4.689385    0.000000    1.000000
    32  Na    c    -0.021843    2.208768    4.689385    0.000000    1.000000
    33  Na    c    -0.021843    2.208768   -4.689385    0.000000    1.000000
    34  Na    c    -2.305108    4.223345    0.000000    0.000000    1.000000
    35  Na    c     4.223345   -2.305108    0.000000    0.000000    1.000000
    36  Cl    c     1.908482   -1.815155   -1.927435    0.000000    1.485000
    37  Cl    c     1.908482   -1.815155    1.927435    0.000000    1.485000
    38  Cl    c    -1.815155    1.908482   -1.927435    0.000000    1.485000
    39  Cl    c    -1.815155    1.908482    1.927435    0.000000    1.485000
    40  Na    c    -2.457952    0.083669    0.000000    0.000000    1.000000
    41  Na    c     0.083669   -2.457952    0.000000    0.000000    1.000000
    42  O     c     4.345278    4.345278    4.490347    0.000000    0.183000
    43  O     c     4.345278    4.345278   -4.490347    0.000000    0.183000
    44  O     c     4.453442   -0.085618    4.486468    0.000000    0.183000
    45  O     c     4.453442   -0.085618   -4.486468    0.000000    0.183000
    46  O     c    -0.085618    4.453442    4.486468    0.000000    0.183000
    47  O     c    -0.085618    4.453442   -4.486468    0.000000    0.183000
    48  O     c    -0.066152   -0.066152    4.646558    0.000000    0.183000
    49  O     c    -0.066152   -0.066152   -4.646558    0.000000    0.183000
    50  Cl    c     6.426107    6.426107   -1.935141    0.000000    1.485000
    51  Cl    c     6.426107    6.426107    1.935141    0.000000    1.485000
    52  Na    c     2.172011    8.869324    0.000000    0.000000    1.000000
    53  Na    c     8.869324    2.172011    0.000000    0.000000    1.000000
    54  Na    c     6.545712    4.366069    4.213704    0.000000    1.000000
    55  Na    c     6.545712    4.366069   -4.213704    0.000000    1.000000
    56  Na    c     4.366069    6.545712    4.213704    0.000000    1.000000
    57  Na    c     4.366069    6.545712   -4.213704    0.000000    1.000000
    58  Na    c     6.632480   -0.063358    4.458599    0.000000    1.000000
    59  Na    c     6.632480   -0.063358   -4.458599    0.000000    1.000000
    60  Na    c    -0.063358    6.632480    4.458599    0.000000    1.000000
    61  Na    c    -0.063358    6.632480   -4.458599    0.000000    1.000000
    62  Cl    c     2.180756    2.180756    6.794752    0.000000    1.485000
    63  Cl    c     2.180756    2.180756   -6.794752    0.000000    1.485000
    64  Cl    c     6.652899   -2.274022   -2.273739    0.000000    1.485000
    65  Cl    c     6.652899   -2.274022    2.273739    0.000000    1.485000
    66  Cl    c    -2.274022    6.652899   -2.273739    0.000000    1.485000
    67  Cl    c    -2.274022    6.652899    2.273739    0.000000    1.485000
    68  Na    c    -2.253069    4.485327    4.466947    0.000000    1.000000
    69  Na    c    -2.253069    4.485327   -4.466947    0.000000    1.000000
    70  Na    c     4.485327   -2.253069    4.466947    0.000000    1.000000
    71  Na    c     4.485327   -2.253069   -4.466947    0.000000    1.000000
    72  Na    c     2.210511   -4.735873    0.000000    0.000000    1.000000
    73  Na    c    -4.735873    2.210511    0.000000    0.000000    1.000000
    74  Na    c    -2.234559   -0.029311    4.482348    0.000000    1.000000
    75  Na    c    -2.234559   -0.029311   -4.482348    0.000000    1.000000
    76  Na    c    -0.029311   -2.234559    4.482348    0.000000    1.000000
    77  Na    c    -0.029311   -2.234559   -4.482348    0.000000    1.000000
    78  Cl    c    -1.908042   -1.908042   -1.909146    0.000000    1.485000
    79  Cl    c    -1.908042   -1.908042    1.909146    0.000000    1.485000
    80  O     c     4.389382    8.934828    0.000000    0.000000    0.183000
    81  O     c     8.934828    4.389382    0.000000    0.000000    0.183000
    82  O     c     8.857196   -0.026510    0.000000    0.000000    0.183000
    83  O     c    -0.026510    8.857196    0.000000    0.000000    0.183000
    84  O     c     4.389028   -4.468679    0.000000    0.000000    0.183000
    85  O     c    -4.468679    4.389028    0.000000    0.000000    0.183000
    86  O     c     0.009030   -4.549558    0.000000    0.000000    0.183000
    87  O     c    -4.549558    0.009030    0.000000    0.000000    0.183000
    88  Na    c     4.412190    8.959200   -2.204935    0.000000    1.000000
    89  Na    c     4.412190    8.959200    2.204935    0.000000    1.000000
    90  Na    c     8.959200    4.412190   -2.204935    0.000000    1.000000
    91  Na    c     8.959200    4.412190    2.204935    0.000000    1.000000
    92  Na    c     4.535494    4.535494    6.643442    0.000000    1.000000
    93  Na    c     4.535494    4.535494   -6.643442    0.000000    1.000000
    94  Na    c     8.919718   -0.067406   -2.206636    0.000000    1.000000
    95  Na    c     8.919718   -0.067406    2.206636    0.000000    1.000000
    96  Na    c    -0.067406    8.919718   -2.206636    0.000000    1.000000
    97  Na    c    -0.067406    8.919718    2.206636    0.000000    1.000000
    98  Na    c     4.515660   -0.149341    6.681307    0.000000    1.000000
    99  Na    c     4.515660   -0.149341   -6.681307    0.000000    1.000000
   100  Na    c    -0.149341    4.515660    6.681307    0.000000    1.000000
   101  Na    c    -0.149341    4.515660   -6.681307    0.000000    1.000000
   102  Na    c     4.494961   -4.529299   -2.206589    0.000000    1.000000
   103  Na    c     4.494961   -4.529299    2.206589    0.000000    1.000000
   104  Na    c    -4.529299    4.494961   -2.206589    0.000000    1.000000
   105  Na    c    -4.529299    4.494961    2.206589    0.000000    1.000000
   106  Na    c    -0.091010   -0.091010    6.751370    0.000000    1.000000
   107  Na    c    -0.091010   -0.091010   -6.751370    0.000000    1.000000
   108  Na    c    -0.004323   -4.512900   -2.217711    0.000000    1.000000
   109  Na    c    -0.004323   -4.512900    2.217711    0.000000    1.000000
   110  Na    c    -4.512900   -0.004323   -2.217711    0.000000    1.000000
   111  Na    c    -4.512900   -0.004323    2.217711    0.000000    1.000000
   112  Na    c     6.626374    8.891155    0.000000    0.000000    1.000000
   113  Na    c     8.891155    6.626374    0.000000    0.000000    1.000000
   114  Na    c     2.203265    8.855178    4.488973    0.000000    1.000000
   115  Na    c     2.203265    8.855178   -4.488973    0.000000    1.000000
   116  Na    c     8.855178    2.203265    4.488973    0.000000    1.000000
   117  Na    c     8.855178    2.203265   -4.488973    0.000000    1.000000
   118  Cl    c     2.156784    6.615640    6.601526    0.000000    1.485000
   119  Cl    c     2.156784    6.615640   -6.601526    0.000000    1.485000
   120  Cl    c     6.615640    2.156784    6.601526    0.000000    1.485000
   121  Cl    c     6.615640    2.156784   -6.601526    0.000000    1.485000
   122  Na    c    -2.238398    8.994174    0.000000    0.000000    1.000000
   123  Na    c     8.994174   -2.238398    0.000000    0.000000    1.000000
   124  Na    c     6.626821   -4.302945    0.000000    0.000000    1.000000
   125  Na    c    -4.302945    6.626821    0.000000    0.000000    1.000000
   126  Cl    c     2.225469   -2.259538    6.612015    0.000000    1.485000
   127  Cl    c     2.225469   -2.259538   -6.612015    0.000000    1.485000
   128  Cl    c    -2.259538    2.225469    6.612015    0.000000    1.485000
   129  Cl    c    -2.259538    2.225469   -6.612015    0.000000    1.485000
   130  Na    c     2.203492   -4.481636    4.493464    0.000000    1.000000
   131  Na    c     2.203492   -4.481636   -4.493464    0.000000    1.000000
   132  Na    c    -4.481636    2.203492    4.493464    0.000000    1.000000
   133  Na    c    -4.481636    2.203492   -4.493464    0.000000    1.000000
   134  Na    c    -2.210839   -4.444555    0.000000    0.000000    1.000000
   135  Na    c    -4.444555   -2.210839    0.000000    0.000000    1.000000
   136  O     c     4.394672    8.779242    4.379115    0.000000    0.183000
   137  O     c     4.394672    8.779242   -4.379115    0.000000    0.183000
   138  O     c     8.779242    4.394672    4.379115    0.000000    0.183000
   139  O     c     8.779242    4.394672   -4.379115    0.000000    0.183000
   140  O     c     8.807314    0.008562    4.390116    0.000000    0.183000
   141  O     c     8.807314    0.008562   -4.390116    0.000000    0.183000
   142  O     c     0.008562    8.807314    4.390116    0.000000    0.183000
   143  O     c     0.008562    8.807314   -4.390116    0.000000    0.183000
   144  O     c     4.393405   -4.420275    4.391612    0.000000    0.183000
   145  O     c     4.393405   -4.420275   -4.391612    0.000000    0.183000
   146  O     c    -4.420275    4.393405    4.391612    0.000000    0.183000
   147  O     c    -4.420275    4.393405   -4.391612    0.000000    0.183000
   148  O     c    -0.003299   -4.416207    4.402657    0.000000    0.183000
   149  O     c    -0.003299   -4.416207   -4.402657    0.000000    0.183000
   150  O     c    -4.416207   -0.003299    4.402657    0.000000    0.183000
   151  O     c    -4.416207   -0.003299   -4.402657    0.000000    0.183000
   152  Na    c     6.598579    8.830195    4.457638    0.000000    1.000000
   153  Na    c     6.598579    8.830195   -4.457638    0.000000    1.000000
   154  Na    c     8.830195    6.598579    4.457638    0.000000    1.000000
   155  Na    c     8.830195    6.598579   -4.457638    0.000000    1.000000
   156  Na    c    11.087497    4.391428    0.000000    0.000000    1.000000
   157  Na    c     4.391428   11.087497    0.000000    0.000000    1.000000
   158  Cl    c     2.184115   10.989513   -2.208163    0.000000    1.485000
   159  Cl    c     2.184115   10.989513    2.208163    0.000000    1.485000
   160  Cl    c    10.989513    2.184115   -2.208163    0.000000    1.485000
   161  Cl    c    10.989513    2.184115    2.208163    0.000000    1.485000
   162  Cl    c     6.619821    6.619821    6.575956    0.000000    1.485000
   163  Cl    c     6.619821    6.619821   -6.575956    0.000000    1.485000
   164  Na    c    11.061707    0.031817    0.000000    0.000000    1.000000
   165  Na    c     0.031817   11.061707    0.000000    0.000000    1.000000
   166  Na    c     2.203304    4.391592    8.781240    0.000000    1.000000
   167  Na    c     2.203304    4.391592   -8.781240    0.000000    1.000000
   168  Na    c     4.391592    2.203304    8.781240    0.000000    1.000000
   169  Na    c     4.391592    2.203304   -8.781240    0.000000    1.000000
   170  Na    c    -2.222333    8.835372    4.405956    0.000000    1.000000
   171  Na    c    -2.222333    8.835372   -4.405956    0.000000    1.000000
   172  Na    c     8.835372   -2.222333    4.405956    0.000000    1.000000
   173  Na    c     8.835372   -2.222333   -4.405956    0.000000    1.000000
   174  Cl    c     6.618455   -2.229980    6.602480    0.000000    1.485000
   175  Cl    c     6.618455   -2.229980   -6.602480    0.000000    1.485000
   176  Cl    c    -2.229980    6.618455    6.602480    0.000000    1.485000
   177  Cl    c    -2.229980    6.618455   -6.602480    0.000000    1.485000
   178  Na    c     2.207728    0.020431    8.852848    0.000000    1.000000
   179  Na    c     2.207728    0.020431   -8.852848    0.000000    1.000000
   180  Na    c     0.020431    2.207728    8.852848    0.000000    1.000000
   181  Na    c     0.020431    2.207728   -8.852848    0.000000    1.000000
   182  Na    c     6.629564   -4.441205    4.423445    0.000000    1.000000
   183  Na    c     6.629564   -4.441205   -4.423445    0.000000    1.000000
   184  Na    c    -4.441205    6.629564    4.423445    0.000000    1.000000
   185  Na    c    -4.441205    6.629564   -4.423445    0.000000    1.000000
   186  Na    c    -6.659256    4.562292    0.000000    0.000000    1.000000
   187  Na    c     4.562292   -6.659256    0.000000    0.000000    1.000000
   188  Cl    c     2.199107   -6.605460   -2.225007    0.000000    1.485000
   189  Cl    c     2.199107   -6.605460    2.225007    0.000000    1.485000
   190  Cl    c    -6.605460    2.199107   -2.225007    0.000000    1.485000
   191  Cl    c    -6.605460    2.199107    2.225007    0.000000    1.485000
   192  Cl    c    -2.259945   -2.259945    6.597180    0.000000    1.485000
   193  Cl    c    -2.259945   -2.259945   -6.597180    0.000000    1.485000
   194  Na    c    -6.695719   -0.113778    0.000000    0.000000    1.000000
   195  Na    c    -0.113778   -6.695719    0.000000    0.000000    1.000000
   196  Na    c    -2.212206   -4.488846    4.475556    0.000000    1.000000
   197  Na    c    -2.212206   -4.488846   -4.475556    0.000000    1.000000
   198  Na    c    -4.488846   -2.212206    4.475556    0.000000    1.000000
   199  Na    c    -4.488846   -2.212206   -4.475556    0.000000    1.000000
   200  O     c     8.824867    8.824867    0.000000    0.000000    0.183000
   201  O     c     4.419181    4.419181    8.827777    0.000000    0.183000
   202  O     c     4.419181    4.419181   -8.827777    0.000000    0.183000
   203  O     c     4.419596   -0.018927    8.840039    0.000000    0.183000
   204  O     c     4.419596   -0.018927   -8.840039    0.000000    0.183000
   205  O     c    -0.018927    4.419596    8.840039    0.000000    0.183000
   206  O     c    -0.018927    4.419596   -8.840039    0.000000    0.183000
   207  O     c     8.826023   -4.414046    0.000000    0.000000    0.183000
   208  O     c    -4.414046    8.826023    0.000000    0.000000    0.183000
   209  O     c    -0.016125   -0.016125    8.885295    0.000000    0.183000
   210  O     c    -0.016125   -0.016125   -8.885295    0.000000    0.183000
   211  O     c    -4.402723   -4.402723    0.000000    0.000000    0.183000
   212  Na    c     8.851651    8.851651   -2.205013    0.000000    1.000000
   213  Na    c     8.851651    8.851651    2.205013    0.000000    1.000000
   214  Na    c     4.426797    8.701853    6.602668    0.000000    1.000000
   215  Na    c     4.426797    8.701853   -6.602668    0.000000    1.000000
   216  Na    c     8.701853    4.426797    6.602668    0.000000    1.000000
   217  Na    c     8.701853    4.426797   -6.602668    0.000000    1.000000
   218  Na    c     8.817305   -0.031642    6.616843    0.000000    1.000000
   219  Na    c     8.817305   -0.031642   -6.616843    0.000000    1.000000
   220  Na    c    -0.031642    8.817305    6.616843    0.000000    1.000000
   221  Na    c    -0.031642    8.817305   -6.616843    0.000000    1.000000
   222  Na    c     8.817670   -4.427484   -2.211986    0.000000    1.000000
   223  Na    c     8.817670   -4.427484    2.211986    0.000000    1.000000
   224  Na    c    -4.427484    8.817670   -2.211986    0.000000    1.000000
   225  Na    c    -4.427484    8.817670    2.211986    0.000000    1.000000
   226  Na    c     4.432456   -4.413383    6.623229    0.000000    1.000000
   227  Na    c     4.432456   -4.413383   -6.623229    0.000000    1.000000
   228  Na    c    -4.413383    4.432456    6.623229    0.000000    1.000000
   229  Na    c    -4.413383    4.432456   -6.623229    0.000000    1.000000
   230  Na    c    -0.013931   -4.400869    6.630160    0.000000    1.000000
   231  Na    c    -0.013931   -4.400869   -6.630160    0.000000    1.000000
   232  Na    c    -4.400869   -0.013931    6.630160    0.000000    1.000000
   233  Na    c    -4.400869   -0.013931   -6.630160    0.000000    1.000000
   234  Na    c    -4.474244   -4.474244   -2.205085    0.000000    1.000000
   235  Na    c    -4.474244   -4.474244    2.205085    0.000000    1.000000
   236  Cl    c     6.610680   10.992156   -2.211102    0.000000    1.485000
   237  Cl    c     6.610680   10.992156    2.211102    0.000000    1.485000
   238  Cl    c    10.992156    6.610680   -2.211102    0.000000    1.485000
   239  Cl    c    10.992156    6.610680    2.211102    0.000000    1.485000
   240  Na    c    11.013968    4.404177    4.464900    0.000000    1.000000
   241  Na    c    11.013968    4.404177   -4.464900    0.000000    1.000000
   242  Na    c     4.404177   11.013968    4.464900    0.000000    1.000000
   243  Na    c     4.404177   11.013968   -4.464900    0.000000    1.000000
   244  Na    c     6.611191    4.393044    8.903622    0.000000    1.000000
   245  Na    c     6.611191    4.393044   -8.903622    0.000000    1.000000
   246  Na    c     4.393044    6.611191    8.903622    0.000000    1.000000
   247  Na    c     4.393044    6.611191   -8.903622    0.000000    1.000000
   248  Na    c    11.025393    0.006992    4.428626    0.000000    1.000000
   249  Na    c    11.025393    0.006992   -4.428626    0.000000    1.000000
   250  Na    c     0.006992   11.025393    4.428626    0.000000    1.000000
   251  Na    c     0.006992   11.025393   -4.428626    0.000000    1.000000
   252  Cl    c    11.005697   -2.191735   -2.197992    0.000000    1.485000
   253  Cl    c    11.005697   -2.191735    2.197992    0.000000    1.485000
   254  Cl    c    -2.191735   11.005697   -2.197992    0.000000    1.485000
   255  Cl    c    -2.191735   11.005697    2.197992    0.000000    1.485000
   256  Na    c     6.622311    0.022750    8.876448    0.000000    1.000000
   257  Na    c     6.622311    0.022750   -8.876448    0.000000    1.000000
   258  Na    c     0.022750    6.622311    8.876448    0.000000    1.000000
   259  Na    c     0.022750    6.622311   -8.876448    0.000000    1.000000
   260  Na    c    -2.218482    4.402114    8.896997    0.000000    1.000000
   261  Na    c    -2.218482    4.402114   -8.896997    0.000000    1.000000
   262  Na    c     4.402114   -2.218482    8.896997    0.000000    1.000000
   263  Na    c     4.402114   -2.218482   -8.896997    0.000000    1.000000
   264  Cl    c     6.592166   -6.604646   -2.196924    0.000000    1.485000
   265  Cl    c     6.592166   -6.604646    2.196924    0.000000    1.485000
   266  Cl    c    -6.604646    6.592166   -2.196924    0.000000    1.485000
   267  Cl    c    -6.604646    6.592166    2.196924    0.000000    1.485000
   268  Na    c    -6.627191    4.413699    4.432169    0.000000    1.000000
   269  Na    c    -6.627191    4.413699   -4.432169    0.000000    1.000000
   270  Na    c     4.413699   -6.627191    4.432169    0.000000    1.000000
   271  Na    c     4.413699   -6.627191   -4.432169    0.000000    1.000000
   272  Na    c    -2.215472    0.015422    8.918323    0.000000    1.000000
   273  Na    c    -2.215472    0.015422   -8.918323    0.000000    1.000000
   274  Na    c     0.015422   -2.215472    8.918323    0.000000    1.000000
   275  Na    c     0.015422   -2.215472   -8.918323    0.000000    1.000000
   276  Na    c    -6.628767    0.012216    4.432988    0.000000    1.000000
   277  Na    c    -6.628767    0.012216   -4.432988    0.000000    1.000000
   278  Na    c     0.012216   -6.628767    4.432988    0.000000    1.000000
   279  Na    c     0.012216   -6.628767   -4.432988    0.000000    1.000000
   280  Cl    c    -2.223147   -6.575981   -2.204662    0.000000    1.485000
   281  Cl    c    -2.223147   -6.575981    2.204662    0.000000    1.485000
   282  Cl    c    -6.575981   -2.223147   -2.204662    0.000000    1.485000
   283  Cl    c    -6.575981   -2.223147    2.204662    0.000000    1.485000
   284  O     c     8.796991    8.796991    4.394203    0.000000    0.183000
   285  O     c     8.796991    8.796991   -4.394203    0.000000    0.183000
   286  O     c     8.827165   -4.424839    4.414369    0.000000    0.183000
   287  O     c     8.827165   -4.424839   -4.414369    0.000000    0.183000
   288  O     c    -4.424839    8.827165    4.414369    0.000000    0.183000
   289  O     c    -4.424839    8.827165   -4.414369    0.000000    0.183000
   290  O     c    -4.404399   -4.404399    4.391170    0.000000    0.183000
   291  O     c    -4.404399   -4.404399   -4.391170    0.000000    0.183000
   292  Na    c    11.033116    8.835474    0.000000    0.000000    1.000000
   293  Na    c     8.835474   11.033116    0.000000    0.000000    1.000000
   294  Na    c     2.202623   13.281475    0.000000    0.000000    1.000000
   295  Na    c    13.281475    2.202623    0.000000    0.000000    1.000000
   296  Cl    c     2.202627   10.992013    6.580589    0.000000    1.485000
   297  Cl    c     2.202627   10.992013   -6.580589    0.000000    1.485000
   298  Cl    c    10.992013    2.202627    6.580589    0.000000    1.485000
   299  Cl    c    10.992013    2.202627   -6.580589    0.000000    1.485000
   300  Na    c     2.203304    8.832539    8.804642    0.000000    1.000000
   301  Na    c     2.203304    8.832539   -8.804642    0.000000    1.000000
   302  Na    c     8.832539    2.203304    8.804642    0.000000    1.000000
   303  Na    c     8.832539    2.203304   -8.804642    0.000000    1.000000
   304  Na    c    11.030593   -4.487664    0.000000    0.000000    1.000000
   305  Na    c    -4.487664   11.030593    0.000000    0.000000    1.000000
   306  Cl    c     2.204815    2.204815   11.017195    0.000000    1.485000
   307  Cl    c     2.204815    2.204815  -11.017195    0.000000    1.485000
   308  Na    c    -6.617396    8.784363    0.000000    0.000000    1.000000
   309  Na    c     8.784363   -6.617396    0.000000    0.000000    1.000000
   310  Na    c     2.205985   -4.416423    8.819895    0.000000    1.000000
   311  Na    c     2.205985   -4.416423   -8.819895    0.000000    1.000000
   312  Na    c    -4.416423    2.205985    8.819895    0.000000    1.000000
   313  Na    c    -4.416423    2.205985   -8.819895    0.000000    1.000000
   314  Cl    c     2.191220   -6.595424    6.588169    0.000000    1.485000
   315  Cl    c     2.191220   -6.595424   -6.588169    0.000000    1.485000
   316  Cl    c    -6.595424    2.191220    6.588169    0.000000    1.485000
   317  Cl    c    -6.595424    2.191220   -6.588169    0.000000    1.485000
   318  Na    c     2.209650   -8.814301    0.000000    0.000000    1.000000
   319  Na    c    -8.814301    2.209650    0.000000    0.000000    1.000000
   320  Na    c    -6.624352   -4.405160    0.000000    0.000000    1.000000
   321  Na    c    -4.405160   -6.624352    0.000000    0.000000    1.000000
   322  O     c     4.404652   13.243439    0.000000    0.000000    0.183000
   323  O     c    13.243439    4.404652    0.000000    0.000000    0.183000
   324  O     c     4.405036    8.800294    8.806575    0.000000    0.183000
   325  O     c     4.405036    8.800294   -8.806575    0.000000    0.183000
   326  O     c     8.800294    4.405036    8.806575    0.000000    0.183000
   327  O     c     8.800294    4.405036   -8.806575    0.000000    0.183000
   328  O     c    13.231255    0.004732    0.000000    0.000000    0.183000
   329  O     c     0.004732   13.231255    0.000000    0.000000    0.183000
   330  O     c     8.813474   -0.001963    8.810831    0.000000    0.183000
   331  O     c     8.813474   -0.001963   -8.810831    0.000000    0.183000
   332  O     c    -0.001963    8.813474    8.810831    0.000000    0.183000
   333  O     c    -0.001963    8.813474   -8.810831    0.000000    0.183000
   334  O     c     4.408733   -4.409885    8.814440    0.000000    0.183000
   335  O     c     4.408733   -4.409885   -8.814440    0.000000    0.183000
   336  O     c    -4.409885    4.408733    8.814440    0.000000    0.183000
   337  O     c    -4.409885    4.408733   -8.814440    0.000000    0.183000
   338  O     c     4.416510   -8.824945    0.000000    0.000000    0.183000
   339  O     c    -8.824945    4.416510    0.000000    0.000000    0.183000
   340  O     c    -0.002581   -4.405127    8.814859    0.000000    0.183000
   341  O     c    -0.002581   -4.405127   -8.814859    0.000000    0.183000
   342  O     c    -4.405127   -0.002581    8.814859    0.000000    0.183000
   343  O     c    -4.405127   -0.002581   -8.814859    0.000000    0.183000
   344  O     c    -0.010329   -8.840818    0.000000    0.000000    0.183000
   345  O     c    -8.840818   -0.010329    0.000000    0.000000    0.183000
   346  Na    c     8.813409    8.813409    6.614388    0.000000    1.000000
   347  Na    c     8.813409    8.813409   -6.614388    0.000000    1.000000
   348  Na    c     4.413826   13.251373   -2.212027    0.000000    1.000000
   349  Na    c     4.413826   13.251373    2.212027    0.000000    1.000000
   350  Na    c    13.251373    4.413826   -2.212027    0.000000    1.000000
   351  Na    c    13.251373    4.413826    2.212027    0.000000    1.000000
   352  Na    c    13.248742   -0.010352   -2.208505    0.000000    1.000000
   353  Na    c    13.248742   -0.010352    2.208505    0.000000    1.000000
   354  Na    c    -0.010352   13.248742   -2.208505    0.000000    1.000000
   355  Na    c    -0.010352   13.248742    2.208505    0.000000    1.000000
   356  Na    c     4.381227    4.381227   11.028130    0.000000    1.000000
   357  Na    c     4.381227    4.381227  -11.028130    0.000000    1.000000
   358  Na    c     4.414828    0.019939   11.032591    0.000000    1.000000
   359  Na    c     4.414828    0.019939  -11.032591    0.000000    1.000000
   360  Na    c     0.019939    4.414828   11.032591    0.000000    1.000000
   361  Na    c     0.019939    4.414828  -11.032591    0.000000    1.000000
   362  Na    c     8.825999   -4.407267    6.618054    0.000000    1.000000
[...]
    121 y          0.000000      0.009703     0.009703    Cartesian    0.00
    121 z         11.014756     11.052667     0.037912    Cartesian    0.34
    122 x          4.405902      4.408270     0.002368    Cartesian    0.05
    122 y         -8.811805     -8.842175    -0.030371    Cartesian    0.34
    122 z         -2.202951     -2.208845    -0.005893    Cartesian    0.27
    123 x          0.000000      0.014755     0.014755    Cartesian    0.00
    123 y         -8.811805     -8.858827    -0.047022    Cartesian    0.53
    123 z         -2.202951     -2.210441    -0.007490    Cartesian    0.34
    124 x         -4.405902     -4.401902     0.004001    Cartesian   -0.09
    124 y         -4.405902     -4.401902     0.004001    Cartesian   -0.09
    124 z          6.608853      6.620492     0.011638    Cartesian    0.18
    125 x          6.608853      6.615432     0.006579    Cartesian    0.10
    125 y         13.217707     13.266421     0.048714    Cartesian    0.37
    125 z          0.000000      0.000000     0.000000    Cartesian    0.00
    126 x         11.014756     11.019049     0.004293    Cartesian    0.04
    126 y          8.811805      8.818269     0.006465    Cartesian    0.07
    126 z          4.405902      4.420358     0.014456    Cartesian    0.33
    127 x          6.608853      6.594236    -0.014617    Cartesian   -0.22
    127 y         11.014756     10.980805    -0.033951    Cartesian   -0.31
    127 z          6.608853      6.573694    -0.035159    Cartesian   -0.53
    128 x          2.202951      2.202307    -0.000644    Cartesian   -0.03
    128 y         13.217707     13.250395     0.032688    Cartesian    0.25
    128 z          4.405902      4.414154     0.008252    Cartesian    0.19
    129 x          6.608853      6.610877     0.002024    Cartesian    0.03
    129 y          8.811805      8.822625     0.010820    Cartesian    0.12
    129 z          8.811805      8.829881     0.018076    Cartesian    0.21
    130 x         -2.202951     -2.209215    -0.006264    Cartesian    0.28
    130 y         13.217707     13.246057     0.028350    Cartesian    0.21
    130 z          0.000000      0.000000     0.000000    Cartesian    0.00
    131 x          2.202951      2.201968    -0.000984    Cartesian   -0.04
    131 y          6.608853      6.602623    -0.006231    Cartesian   -0.09
    131 z         11.014756     10.987681    -0.027075    Cartesian   -0.25
    132 x         11.014756     10.984501    -0.030255    Cartesian   -0.27
    132 y         -2.202951     -2.182040     0.020911    Cartesian   -0.95
    132 z          6.608853      6.584510    -0.024343    Cartesian   -0.37
    133 x         -2.202951     -2.207430    -0.004479    Cartesian    0.20
    133 y          8.811805      8.823602     0.011797    Cartesian    0.13
    133 z          8.811805      8.841348     0.029543    Cartesian    0.34
    134 x         11.014756     11.027217     0.012461    Cartesian    0.11
    134 y         -4.405902     -4.431469    -0.025566    Cartesian    0.58
    134 z          4.405902      4.421162     0.015260    Cartesian    0.35
    135 x          6.608853      6.615484     0.006630    Cartesian    0.10
    135 y         -4.405902     -4.420935    -0.015033    Cartesian    0.34
    135 z          8.811805      8.837191     0.025386    Cartesian    0.29
    136 x         -6.608853     -6.622227    -0.013373    Cartesian    0.20
    136 y          8.811805      8.849774     0.037970    Cartesian    0.43
    136 z          4.405902      4.427911     0.022008    Cartesian    0.50
    137 x          2.202951      2.202907    -0.000045    Cartesian   -0.00
    137 y         -2.202951     -2.209673    -0.006722    Cartesian    0.31
    137 z         11.014756     10.989478    -0.025278    Cartesian   -0.23
    138 x          6.608853      6.581423    -0.027431    Cartesian   -0.42
    138 y         -6.608853     -6.585392     0.023462    Cartesian   -0.36
    138 z          6.608853      6.584743    -0.024110    Cartesian   -0.36
    139 x          6.608853      6.623386     0.014532    Cartesian    0.22
    139 y         -8.811805     -8.897689    -0.085885    Cartesian    0.97
    139 z          0.000000      0.000000     0.000000    Cartesian    0.00
    140 x          2.202951      2.206015     0.003064    Cartesian    0.14
    140 y         -8.811805     -8.846361    -0.034557    Cartesian    0.39
    140 z          4.405902      4.423970     0.018068    Cartesian    0.41
    141 x         -2.202951     -2.208477    -0.005526    Cartesian    0.25
    141 y         -4.405902     -4.410977    -0.005074    Cartesian    0.12
    141 z          8.811805      8.838352     0.026548    Cartesian    0.30
    142 x         -2.202951     -2.196529     0.006422    Cartesian   -0.29
    142 y         -6.608853     -6.585092     0.023761    Cartesian   -0.36
    142 z          6.608853      6.576343    -0.032511    Cartesian   -0.49
    143 x         -2.202951     -2.216648    -0.013696    Cartesian    0.62
    143 y         -8.811805     -8.902836    -0.091031    Cartesian    1.03
    143 z          0.000000      0.000000     0.000000    Cartesian    0.00
    144 x         -6.608853     -6.622252    -0.013398    Cartesian    0.20
    144 y         -4.405902     -4.430309    -0.024407    Cartesian    0.55
    144 z          4.405902      4.429876     0.023973    Cartesian    0.54
    145 x          2.432160      2.432160     0.000000    Cartesian    0.00
    145 y          2.432160      2.432160     0.000000    Cartesian    0.00
    145 z          0.000000      0.000000     0.000000    Cartesian    0.00
    146 x          2.202951      2.045564    -0.157388    Cartesian   -7.14
    146 y          2.202951      2.045564    -0.157388    Cartesian   -7.14
    146 z         -2.202951     -3.040780    -0.837829    Cartesian   38.03
    147 x          4.405902      4.586218     0.180316    Cartesian    4.09
    147 y          0.000000     -0.232702    -0.232702    Cartesian    0.00
    147 z          0.000000      0.000000     0.000000    Cartesian    0.00
    148 x          2.202951      2.532976     0.330025    Cartesian   14.98
    148 y          6.608853      6.252953    -0.355901    Cartesian   -5.39
    148 z         -2.202951     -1.927703     0.275248    Cartesian  -12.49
    149 x          2.202951      1.878882    -0.324069    Cartesian  -14.71
    149 y         -2.202951     -1.786540     0.416412    Cartesian  -18.90
    149 z         -2.202951     -1.904887     0.298065    Cartesian  -13.53
    150 x          4.405902      4.345232    -0.060670    Cartesian   -1.38
    150 y          4.405902      4.345232    -0.060670    Cartesian   -1.38
    150 z          4.405902      4.490326     0.084424    Cartesian    1.92
    151 x          4.405902      4.453517     0.047615    Cartesian    1.08
    151 y          0.000000     -0.085681    -0.085681    Cartesian    0.00
    151 z          4.405902      4.486557     0.080655    Cartesian    1.83
    152 x          0.000000     -0.066200    -0.066200    Cartesian    0.00
    152 y          0.000000     -0.066200    -0.066200    Cartesian    0.00
    152 z          4.405902      4.646464     0.240562    Cartesian    5.46
    153 x          6.608853      6.415462    -0.193391    Cartesian   -2.93
    153 y          6.608853      6.415462    -0.193391    Cartesian   -2.93
    153 z         -2.202951     -1.908202     0.294749    Cartesian  -13.38
    154 x          2.202951      2.181265    -0.021686    Cartesian   -0.98
    154 y          2.202951      2.181265    -0.021686    Cartesian   -0.98
    154 z          6.608853      6.798113     0.189259    Cartesian    2.86
    155 x          6.608853      6.656590     0.047736    Cartesian    0.72
    155 y         -2.202951     -2.278457    -0.075506    Cartesian    3.43
    155 z         -2.202951     -2.278649    -0.075697    Cartesian    3.44
    156 x         -2.202951     -1.889194     0.313758    Cartesian  -14.24
    156 y         -2.202951     -1.889194     0.313758    Cartesian  -14.24
    156 z         -2.202951     -1.881713     0.321238    Cartesian  -14.58
    157 x          4.405902      4.389382    -0.016521    Cartesian   -0.37
    157 y          8.811805      8.934724     0.122919    Cartesian    1.39
    157 z          0.000000      0.000000     0.000000    Cartesian    0.00
    158 x          8.811805      8.857215     0.045411    Cartesian    0.52
    158 y          0.000000     -0.026543    -0.026543    Cartesian    0.00
    158 z          0.000000      0.000000     0.000000    Cartesian    0.00
    159 x          4.405902      4.389010    -0.016892    Cartesian   -0.38
    159 y         -4.405902     -4.468689    -0.062787    Cartesian    1.43
    159 z          0.000000      0.000000     0.000000    Cartesian    0.00
    160 x          0.000000      0.009033     0.009033    Cartesian    0.00
    160 y         -4.405902     -4.549477    -0.143574    Cartesian    3.26
    160 z          0.000000      0.000000     0.000000    Cartesian    0.00
    161 x          2.202951      2.151758    -0.051194    Cartesian   -2.32
    161 y          6.608853      6.613443     0.004590    Cartesian    0.07
    161 z          6.608853      6.597816    -0.011038    Cartesian   -0.17
    162 x          2.202951      2.227275     0.024324    Cartesian    1.10
    162 y         -2.202951     -2.259517    -0.056566    Cartesian    2.57
    162 z          6.608853      6.604599    -0.004255    Cartesian   -0.06
    163 x          4.405902      4.394665    -0.011237    Cartesian   -0.26
    163 y          8.811805      8.779291    -0.032514    Cartesian   -0.37
    163 z          4.405902      4.379087    -0.026815    Cartesian   -0.61
    164 x          8.811805      8.807301    -0.004504    Cartesian   -0.05
    164 y          0.000000      0.008565     0.008565    Cartesian    0.00
    164 z          4.405902      4.390111    -0.015792    Cartesian   -0.36
    165 x          4.405902      4.393403    -0.012500    Cartesian   -0.28
    165 y         -4.405902     -4.420264    -0.014362    Cartesian    0.33
    165 z          4.405902      4.391611    -0.014292    Cartesian   -0.32
    166 x          0.000000     -0.003301    -0.003301    Cartesian    0.00
    166 y         -4.405902     -4.416212    -0.010309    Cartesian    0.23
    166 z          4.405902      4.402659    -0.003243    Cartesian   -0.07
    167 x          2.202951      2.183116    -0.019835    Cartesian   -0.90
    167 y         11.014756     10.982030    -0.032726    Cartesian   -0.30
    167 z         -2.202951     -2.205621    -0.002669    Cartesian    0.12
    168 x          6.608853      6.620065     0.011212    Cartesian    0.17
    168 y          6.608853      6.620065     0.011212    Cartesian    0.17
    168 z          6.608853      6.574330    -0.034523    Cartesian   -0.52
    169 x          6.608853      6.611822     0.002969    Cartesian    0.04
    169 y         -2.202951     -2.225869    -0.022917    Cartesian    1.04
    169 z          6.608853      6.594412    -0.014442    Cartesian   -0.22
    170 x          2.202951      2.196817    -0.006134    Cartesian   -0.28
    170 y         -6.608853     -6.596509     0.012344    Cartesian   -0.19
    170 z         -2.202951     -2.221525    -0.018574    Cartesian    0.84
    171 x         -2.202951     -2.262922    -0.059971    Cartesian    2.72
    171 y         -2.202951     -2.262922    -0.059971    Cartesian    2.72
    171 z          6.608853      6.590709    -0.018145    Cartesian   -0.27
    172 x          8.811805      8.824880     0.013075    Cartesian    0.15
    172 y          8.811805      8.824880     0.013075    Cartesian    0.15
    172 z          0.000000      0.000000     0.000000    Cartesian    0.00
    173 x          4.405902      4.419214     0.013311    Cartesian    0.30
    173 y          4.405902      4.419214     0.013311    Cartesian    0.30
    173 z          8.811805      8.827778     0.015973    Cartesian    0.18
    174 x          4.405902      4.419617     0.013715    Cartesian    0.31
    174 y          0.000000     -0.018959    -0.018959    Cartesian    0.00
    174 z          8.811805      8.840013     0.028209    Cartesian    0.32
    175 x          8.811805      8.826041     0.014236    Cartesian    0.16
    175 y         -4.405902     -4.414019    -0.008117    Cartesian    0.18
    175 z          0.000000      0.000000     0.000000    Cartesian    0.00
    176 x          0.000000     -0.016153    -0.016153    Cartesian    0.00
    176 y          0.000000     -0.016153    -0.016153    Cartesian    0.00
    176 z          8.811805      8.885254     0.073450    Cartesian    0.83
    177 x         -4.405902     -4.402721     0.003181    Cartesian   -0.07
    177 y         -4.405902     -4.402721     0.003181    Cartesian   -0.07
    177 z          0.000000      0.000000     0.000000    Cartesian    0.00
    178 x          6.608853      6.608597    -0.000256    Cartesian   -0.00
    178 y         11.014756     10.985888    -0.028868    Cartesian   -0.26
    178 z         -2.202951     -2.210197    -0.007246    Cartesian    0.33
    179 x         11.014756     10.997255    -0.017501    Cartesian   -0.16
    179 y         -2.202951     -2.186369     0.016582    Cartesian   -0.75
    179 z         -2.202951     -2.195077     0.007874    Cartesian   -0.36
    180 x          6.608853      6.583603    -0.025251    Cartesian   -0.38
    180 y         -6.608853     -6.599244     0.009609    Cartesian   -0.15
    180 z         -2.202951     -2.194619     0.008332    Cartesian   -0.38
    181 x         -2.202951     -2.222244    -0.019292    Cartesian    0.88
    181 y         -6.608853     -6.568980     0.039874    Cartesian   -0.60
    181 z         -2.202951     -2.202390     0.000561    Cartesian   -0.03
    182 x          8.811805      8.796987    -0.014817    Cartesian   -0.17
    182 y          8.811805      8.796987    -0.014817    Cartesian   -0.17
    182 z          4.405902      4.394200    -0.011702    Cartesian   -0.27
    183 x          8.811805      8.827166     0.015361    Cartesian    0.17
    183 y         -4.405902     -4.424847    -0.018944    Cartesian    0.43
    183 z          4.405902      4.414371     0.008469    Cartesian    0.19
    184 x         -4.405902     -4.404405     0.001497    Cartesian   -0.03
    184 y         -4.405902     -4.404405     0.001497    Cartesian   -0.03
    184 z          4.405902      4.391167    -0.014736    Cartesian   -0.33
    185 x          2.202951      2.201551    -0.001400    Cartesian   -0.06
    185 y         11.014756     10.988363    -0.026392    Cartesian   -0.24
    185 z          6.608853      6.574339    -0.034515    Cartesian   -0.52
    186 x          2.202951      2.204235     0.001284    Cartesian    0.06
    186 y          2.202951      2.204235     0.001284    Cartesian    0.06
    186 z         11.014756     11.015885     0.001129    Cartesian    0.01
    187 x          2.202951      2.189667    -0.013284    Cartesian   -0.60
    187 y         -6.608853     -6.590989     0.017864    Cartesian   -0.27
    187 z          6.608853      6.581991    -0.026862    Cartesian   -0.41
    188 x          4.405902      4.404643    -0.001260    Cartesian   -0.03
    188 y         13.217707     13.243425     0.025718    Cartesian    0.19
    188 z          0.000000      0.000000     0.000000    Cartesian    0.00
    189 x          4.405902      4.405033    -0.000869    Cartesian   -0.02
    189 y          8.811805      8.800261    -0.011543    Cartesian   -0.13
    189 z          8.811805      8.806596    -0.005208    Cartesian   -0.06
    190 x         13.217707     13.231248     0.013541    Cartesian    0.10
    190 y          0.000000      0.004749     0.004749    Cartesian    0.00
    190 z          0.000000      0.000000     0.000000    Cartesian    0.00
    191 x          8.811805      8.813469     0.001665    Cartesian    0.02
    191 y          0.000000     -0.001963    -0.001963    Cartesian    0.00
    191 z          8.811805      8.810837    -0.000968    Cartesian   -0.01
    192 x          4.405902      4.408730     0.002828    Cartesian    0.06
    192 y         -4.405902     -4.409881    -0.003979    Cartesian    0.09
    192 z          8.811805      8.814449     0.002644    Cartesian    0.03
    193 x          4.405902      4.416533     0.010630    Cartesian    0.24
    193 y         -8.811805     -8.824939    -0.013134    Cartesian    0.15
    193 z          0.000000      0.000000     0.000000    Cartesian    0.00
    194 x          0.000000     -0.002581    -0.002581    Cartesian    0.00
    194 y         -4.405902     -4.405116     0.000786    Cartesian   -0.02
    194 z          8.811805      8.814864     0.003059    Cartesian    0.03
    195 x          0.000000     -0.010355    -0.010355    Cartesian    0.00
    195 y         -8.811805     -8.840796    -0.028992    Cartesian    0.33
    195 z          0.000000      0.000000     0.000000    Cartesian    0.00
    196 x          6.608853      6.593271    -0.015583    Cartesian   -0.24
    196 y         11.014756     10.977103    -0.037653    Cartesian   -0.34
    196 z          6.608853      6.567295    -0.041558    Cartesian   -0.63
    197 x          2.202951      2.201735    -0.001216    Cartesian   -0.06
    197 y          6.608853      6.601760    -0.007093    Cartesian   -0.11
    197 z         11.014756     10.982613    -0.032143    Cartesian   -0.29
    198 x         11.014756     10.980306    -0.034449    Cartesian   -0.31
    198 y         -2.202951     -2.178978     0.023973    Cartesian   -1.09
    198 z          6.608853      6.581230    -0.027624    Cartesian   -0.42
    199 x          2.202951      2.201726    -0.001226    Cartesian   -0.06
    199 y         -2.202951     -2.210459    -0.007508    Cartesian    0.34
    199 z         11.014756     10.982996    -0.031760    Cartesian   -0.29
    200 x          6.608853      6.576893    -0.031960    Cartesian   -0.48
    200 y         -6.608853     -6.581740     0.027113    Cartesian   -0.41
    200 z          6.608853      6.580794    -0.028060    Cartesian   -0.42
    201 x         -2.202951     -2.195482     0.007469    Cartesian   -0.34
    201 y         -6.608853     -6.579360     0.029493    Cartesian   -0.45
    201 z          6.608853      6.569071    -0.039783    Cartesian   -0.60
--------------------------------------------------------------------------------


  Time to end of optimisation  =       55.3476 seconds


  Peak dynamic memory used =      90.31 MB 


  Timing analysis for GULP :

--------------------------------------------------------------------------------
  Task / Subroutine                                          Time (Seconds)
--------------------------------------------------------------------------------
  Calculation of reciprocal space energy and derivatives          0.0006
  Calculation of reciprocal space energy using symmetry           0.0010
  Calculation of real space energy and derivatives                0.0033
  Calculation of real space energy using symmetry                 0.0105
  Calculation for region 1 energy and derivatives (2-b)          29.3291
  Calculation for region 2a energy                               19.8583
  Calculation for region 2b energy                                0.0120
  Calculation and manipulation of Hessian matrix                  5.4950
  Calculation of matrix inversion                                 0.4726
  Symmetry generation of equivalent positions                     0.0040
--------------------------------------------------------------------------------
  Total CPU time                                                 55.3477
--------------------------------------------------------------------------------


  Dump file written as Na3OCl.grs


  Job Finished at 15:16.46 19th January    2021                               

