********************************************************************************
*                       GENERAL UTILITY LATTICE PROGRAM                        *
*                                 Julian Gale                                  *
*                       Curtin Institute for Computation                       *
*                    School of Molecular and Life Sciences                     *
*                    Curtin University, Western Australia                      *
********************************************************************************
* Version = 5.2.0 * Last modified =  10th September 2020                       *
********************************************************************************
*  optimise     - perform optimisation run                                     *
*  conp         - constant pressure calculation                                *
*  property     - calculate properties for final geometry                      *
*  defect       - perform defect calculation after bulk run                    *
*  compare      - compare initial and final structures                         *
********************************************************************************

  Job Started  at 15:16.17 19th January    2021                               

  Number of CPUs =     1


  Total number of configurations input =      1

********************************************************************************
*  Input for Configuration =   1                                               *
********************************************************************************

  Formula = OClNa3                                                      

  Number of irreducible atoms/shells =       5


  Total number atoms/shells =       7

  Dimensionality = 3               :  Bulk   


  Symmetry :

  Crystal family                   :  Cubic       
  Crystal class  (Groth - 1921)    :  Cubic Hexakisoctahedral              

  Space group (centrosymmetric)    :  P M 3 M         

  Patterson group                  :  P m -3 m 

  Cartesian lattice vectors (Angstroms) :

        4.504000    0.000000    0.000000
        0.000000    4.504000    0.000000
        0.000000    0.000000    4.504000

  Cell parameters (Angstroms/Degrees):

  a =       4.5040    alpha =  90.0000
  b =       4.5040    beta  =  90.0000
  c =       4.5040    gamma =  90.0000

  Initial cell volume =          91.368216 Angs**3

  Temperature of configuration =   0.00     K 

  Pressure of configuration =         0.000 GPa 

  Fractional coordinates of asymmetric unit :

--------------------------------------------------------------------------------
   No.  Atomic       x           y          z         Charge      Occupancy
        Label      (Frac)      (Frac)     (Frac)        (e)         (Frac)  
--------------------------------------------------------------------------------
      1 O     c    0.000000    0.000000    0.000000     0.18300    1.000000    
      2 Cl    c    0.500000    0.500000    0.500000     1.48500    1.000000    
      3 Na    c    0.500000    0.000000    0.000000     1.00000    1.000000    
      4 O     s    0.000000    0.000000    0.000000    -2.18300    1.000000    
      5 Cl    s    0.500000    0.500000    0.500000    -2.48500    1.000000    
--------------------------------------------------------------------------------


  Constraints : 

--------------------------------------------------------------------------------
  Constraint no.      Unconstrained     Constrained    Coefficient    Offset
                         Variable         Variable
--------------------------------------------------------------------------------
           1              Strain 1        Strain 2       1.00000      0.0000
           2              Strain 1        Strain 3       1.00000      0.0000
--------------------------------------------------------------------------------


********************************************************************************
*  General input information                                                   *
********************************************************************************

  Species output for all configurations : 

--------------------------------------------------------------------------------
  Species    Type    Atomic    Atomic    Charge       Radii (Angs)     Library
                     Number     Mass       (e)     Cova   Ionic  VDW   Symbol
--------------------------------------------------------------------------------
    Na       Core       11      22.99   1.000000   0.970  0.000  2.300          
    O        Core        8      16.00   0.183000   0.730  0.000  1.360          
    O        Shell       8       0.00  -2.183000   0.730  0.000  1.360          
    Cl       Core       17      35.45   1.485000   0.990  0.000  1.650          
    Cl       Shell      17       0.00  -2.485000   0.990  0.000  1.650          
    Mg       Core       12      24.31   0.415000   1.100  0.000  0.000          
    Mg       Shell      12       0.00   1.585000   1.100  0.000  0.000          
    Ca       Core       20      40.08  -1.135000   0.990  0.000  0.000          
    Ca       Shell      20       0.00   3.135000   0.990  0.000  0.000          
    Sr       Core       38      87.62  -1.251000   1.120  0.000  0.000          
    Sr       Shell      38       0.00   3.251000   1.120  0.000  0.000          
    Ba       Core       56     137.33  -7.203000   1.340  0.000  0.000          
    Ba       Shell      56       0.00   9.203000   1.340  0.000  0.000          
--------------------------------------------------------------------------------


  Lattice summation method               =    Ewald          (3-D)
                                         =    Parry          (2-D)
                                         =    Saunders et al (1-D)
  Accuracy factor for lattice sums       =   12.000


  Analytic derivatives to be used

  Time limit = Infinity

  Maximum range for interatomic potentials =    100000.000000 Angstroms

  General interatomic potentials :

--------------------------------------------------------------------------------
Atom  Types   Potential      Parameter       Value         Units   Cutoffs(Ang)
  1     2                                                            Min /  Max 
--------------------------------------------------------------------------------
O    c O    s Spring (c-s)  Spring k 2       593.71600    eV*Ang^-2 0.000  0.800
                            Spring k 4       0.0000000    eV*Ang^-4 
--------------------------------------------------------------------------------
Cl   c Cl   s Spring (c-s)  Spring k 2       29.380000    eV*Ang^-2 0.000  0.800
                            Spring k 4       0.0000000    eV*Ang^-4 
--------------------------------------------------------------------------------
Mg   c Mg   s Spring (c-s)  Spring k 2       361.60000    eV*Ang^-2 0.000  0.800
                            Spring k 4       0.0000000    eV*Ang^-4 
--------------------------------------------------------------------------------
Ca   c Ca   s Spring (c-s)  Spring k 2       110.20000    eV*Ang^-2 0.000  0.800
                            Spring k 4       0.0000000    eV*Ang^-4 
--------------------------------------------------------------------------------
Sr   c Sr   s Spring (c-s)  Spring k 2       71.700000    eV*Ang^-2 0.000  0.800
                            Spring k 4       0.0000000    eV*Ang^-4 
--------------------------------------------------------------------------------
Ba   c Ba   s Spring (c-s)  Spring k 2       495.20000    eV*Ang^-2 0.000  0.800
                            Spring k 4       0.0000000    eV*Ang^-4 
--------------------------------------------------------------------------------
Na   c Na   c Buckingham    Buckingham A     1788.1900    eV        0.000 12.000
                            Buckingham rho  0.15900000    Ang       
                            Buckingham C     0.0000000    eV*Ang^6  
--------------------------------------------------------------------------------
Na   c O    s Buckingham    Buckingham A     588.38000    eV        0.000 12.000
                            Buckingham rho  0.33800000    Ang       
                            Buckingham C     0.0000000    eV*Ang^6  
--------------------------------------------------------------------------------
Na   c Cl   s Buckingham    Buckingham A     1170.4100    eV        0.000 12.000
                            Buckingham rho  0.31500000    Ang       
                            Buckingham C     0.0000000    eV*Ang^6  
--------------------------------------------------------------------------------
O    s O    s Buckingham    Buckingham A     22764.300    eV        0.000 12.000
                            Buckingham rho  0.14900000    Ang       
                            Buckingham C     13.190000    eV*Ang^6  
--------------------------------------------------------------------------------
O    s Cl   s Buckingham    Buckingham A     8286.9100    eV        0.000 12.000
                            Buckingham rho  0.25900000    Ang       
                            Buckingham C     62.200000    eV*Ang^6  
--------------------------------------------------------------------------------
Cl   s Cl   s Buckingham    Buckingham A     1227.2000    eV        0.000 12.000
                            Buckingham rho  0.32100000    Ang       
                            Buckingham C     14.530000    eV*Ang^6  
--------------------------------------------------------------------------------
O    s Mg   s Buckingham    Buckingham A     1428.5000    eV        0.000 12.000
                            Buckingham rho  0.29450000    Ang       
                            Buckingham C     0.0000000    eV*Ang^6  
--------------------------------------------------------------------------------
Mg   s Cl   s Buckingham    Buckingham A     4914.5400    eV        0.000 12.000
                            Buckingham rho  0.25700000    Ang       
                            Buckingham C     0.0000000    eV*Ang^6  
--------------------------------------------------------------------------------
O    s Ca   s Buckingham    Buckingham A     1090.4000    eV        0.000 12.000
                            Buckingham rho  0.34370000    Ang       
                            Buckingham C     0.0000000    eV*Ang^6  
--------------------------------------------------------------------------------
Cl   s Ca   s Buckingham    Buckingham A     2302.0000    eV        0.000 12.000
                            Buckingham rho  0.34020000    Ang       
                            Buckingham C     0.0000000    eV*Ang^6  
--------------------------------------------------------------------------------
O    s Sr   s Buckingham    Buckingham A     959.10000    eV        0.000 12.000
                            Buckingham rho  0.37210000    Ang       
                            Buckingham C     0.0000000    eV*Ang^6  
--------------------------------------------------------------------------------
Cl   s Sr   s Buckingham    Buckingham A     2191.0900    eV        0.000 12.000
                            Buckingham rho  0.34570000    Ang       
                            Buckingham C     0.0000000    eV*Ang^6  
--------------------------------------------------------------------------------
O    s Ba   s Buckingham    Buckingham A     905.70000    eV        0.000 12.000
                            Buckingham rho  0.39760000    Ang       
                            Buckingham C     0.0000000    eV*Ang^6  
--------------------------------------------------------------------------------
Cl   s Ba   s Buckingham    Buckingham A     2704.5500    eV        0.000 12.000
                            Buckingham rho  0.35280000    Ang       
                            Buckingham C     0.0000000    eV*Ang^6  
--------------------------------------------------------------------------------

********************************************************************************
*  Output for configuration   1                                                *
********************************************************************************


  Components of energy : 

--------------------------------------------------------------------------------
  Interatomic potentials     =           4.94315381 eV    
  Monopole - monopole (real) =         -10.03624526 eV    
  Monopole - monopole (recip)=         -29.53581274 eV    
  Monopole - monopole (total)=         -39.57205800 eV    
--------------------------------------------------------------------------------
  Total lattice energy       =         -34.62890419 eV    
--------------------------------------------------------------------------------
  Total lattice energy       =           -3341.1599 kJ/(mole unit cells)
--------------------------------------------------------------------------------


  Number of variables =        1

  Maximum number of calculations  =          1000
  Maximum Hessian update interval =            10
  Maximum step size               =   1.000000000
  Maximum parameter tolerance     =   0.000010000
  Maximum function  tolerance     =   0.000010000
  Maximum gradient  tolerance     =   0.001000000
  Maximum gradient  component     =   0.010000000

  Symmetry constrained optimisation

  Symmetry used for second derivatives

  Cell parameters to be optimised using strains

  Newton-Raphson optimiser to be used

  BFGS hessian update to be used

  Lower half triangular hessian to be used

  Start of bulk optimisation :

  Cycle:      0 Energy:       -34.628904  Gnorm:      4.328237  CPU:    0.016
  ** Hessian calculated **
  Cycle:      1 Energy:       -34.677667  Gnorm:      0.044008  CPU:    0.020
  Cycle:      2 Energy:       -34.677671  Gnorm:      0.003653  CPU:    0.023


  **** Optimisation achieved ****


  Final energy =     -34.67767136 eV
  Final Gnorm  =       0.00000010

  Components of energy : 

--------------------------------------------------------------------------------
  Interatomic potentials     =           5.77546103 eV    
  Monopole - monopole (real) =         -10.25970290 eV    
  Monopole - monopole (recip)=         -30.19342950 eV    
  Monopole - monopole (total)=         -40.45313239 eV    
--------------------------------------------------------------------------------
  Total lattice energy       =         -34.67767136 eV    
--------------------------------------------------------------------------------
  Total lattice energy       =           -3345.8652 kJ/(mole unit cells)
--------------------------------------------------------------------------------

  Final asymmetric unit coordinates :

--------------------------------------------------------------------------------
   No.  Atomic        x           y           z         Radius
        Label       (Frac)      (Frac)      (Frac)       (Angs) 
--------------------------------------------------------------------------------
     1  O     c     0.000000    0.000000    0.000000    0.000000
     2  Cl    c     0.500000    0.500000    0.500000    0.000000
     3  Na    c     0.500000    0.000000    0.000000    0.000000
     4  O     s     0.000000    0.000000    0.000000    0.000000
     5  Cl    s     0.500000    0.500000    0.500000    0.000000
--------------------------------------------------------------------------------

  Final Cartesian lattice vectors (Angstroms) :

        4.405902    0.000000    0.000000
        0.000000    4.405902    0.000000
        0.000000    0.000000    4.405902


  Final cell parameters and derivatives :

--------------------------------------------------------------------------------
       a            4.405902 Angstrom     dE/de1(xx)     0.000000 eV/strain
       b            4.405902 Angstrom     dE/de2(yy)     0.000000 eV/strain
       c            4.405902 Angstrom     dE/de3(zz)     0.000000 eV/strain
       alpha       90.000000 Degrees      dE/de4(yz)     0.000000 eV/strain
       beta        90.000000 Degrees      dE/de5(xz)     0.000000 eV/strain
       gamma       90.000000 Degrees      dE/de6(xy)     0.000000 eV/strain
--------------------------------------------------------------------------------

  Primitive cell volume =            85.527266 Angs**3

  Density of cell =      2.338030 g/cm**3

  Non-primitive cell volume =            85.527266 Angs**3


  Final internal derivatives :

--------------------------------------------------------------------------------
   No.  Atomic          a             b             c           Radius
        Label          (eV)          (eV)          (eV)        (eV/Angs)
--------------------------------------------------------------------------------
      1 O     c       0.000000      0.000000      0.000000      0.000000
      2 Cl    c       0.000000      0.000000      0.000000      0.000000
      3 Na    c       0.000000      0.000000      0.000000      0.000000
      4 O     s       0.000000      0.000000      0.000000      0.000000
      5 Cl    s       0.000000      0.000000      0.000000      0.000000
--------------------------------------------------------------------------------
  Maximum abs         0.000000      0.000000      0.000000      0.000000
--------------------------------------------------------------------------------

  Comparison of initial and final structures : 

--------------------------------------------------------------------------------
  Parameter   Initial value   Final value   Difference    Units      Percent
--------------------------------------------------------------------------------
    Volume        91.368216     85.527266    -5.840950    Angs**3     -6.39
    a              4.504000      4.405902    -0.098098    Angstroms   -2.18
    b              4.504000      4.405902    -0.098098    Angstroms   -2.18
    c              4.504000      4.405902    -0.098098    Angstroms   -2.18
    alpha         90.000000     90.000000     0.000000    Degrees      0.00
    beta          90.000000     90.000000     0.000000    Degrees      0.00
    gamma         90.000000     90.000000     0.000000    Degrees      0.00
      1 x          0.000000      0.000000     0.000000    Fractional   0.00
      1 y          0.000000      0.000000     0.000000    Fractional   0.00
      1 z          0.000000      0.000000     0.000000    Fractional   0.00
      2 x          0.500000      0.500000     0.000000    Fractional   0.00
      2 y          0.500000      0.500000     0.000000    Fractional   0.00
      2 z          0.500000      0.500000     0.000000    Fractional   0.00
      3 x          0.500000      0.500000     0.000000    Fractional   0.00
      3 y          0.000000      0.000000     0.000000    Fractional   0.00
      3 z          0.000000      0.000000     0.000000    Fractional   0.00
      4 x          0.000000      0.000000     0.000000    Fractional   0.00
      4 y          0.000000      0.000000     0.000000    Fractional   0.00
      4 z          0.000000      0.000000     0.000000    Fractional   0.00
      5 x          0.500000      0.500000     0.000000    Fractional   0.00
      5 y          0.500000      0.500000     0.000000    Fractional   0.00
      5 z          0.500000      0.500000     0.000000    Fractional   0.00
--------------------------------------------------------------------------------


  Born effective charge tensors : 

-------------------------------------------------------------------------------
  Atom             x           y             z
-------------------------------------------------------------------------------
    1 O     x      -2.2939      0.0000      0.0000
            y       0.0000     -2.2939      0.0000
            z       0.0000      0.0000     -2.2939
-------------------------------------------------------------------------------
    2 Cl    x      -0.9918     -0.0000      0.0000
            y      -0.0000     -0.9918      0.0000
            z       0.0000      0.0000     -0.9918
-------------------------------------------------------------------------------
    3 Na    x       0.8372     -0.0000     -0.0000
            y      -0.0000      1.2243     -0.0000
            z       0.0000     -0.0000      1.2243
-------------------------------------------------------------------------------




  Elastic Constant Matrix: (Units=GPa)

-------------------------------------------------------------------------------
  Indices      1         2         3         4         5         6    
-------------------------------------------------------------------------------
       1     82.7680   24.3534   24.3534   -0.0000    0.0000   -0.0000
       2     24.3534   82.7680   24.3534   -0.0000   -0.0000   -0.0000
       3     24.3534   24.3534   82.7680    0.0000   -0.0000    0.0000
       4     -0.0000   -0.0000    0.0000   24.3534   -0.0000   -0.0000
       5      0.0000   -0.0000   -0.0000   -0.0000   24.3534   -0.0000
       6     -0.0000   -0.0000    0.0000   -0.0000   -0.0000   24.3534
-------------------------------------------------------------------------------


  Elastic Compliance Matrix: (Units=1/GPa)

-------------------------------------------------------------------------------
  Indices      1         2         3         4         5         6    
-------------------------------------------------------------------------------
       1    0.013948 -0.003171 -0.003171 -0.000000 -0.000000  0.000000
       2   -0.003171  0.013948 -0.003171  0.000000 -0.000000  0.000000
       3   -0.003171 -0.003171  0.013948 -0.000000  0.000000 -0.000000
       4   -0.000000  0.000000 -0.000000  0.041062  0.000000  0.000000
       5   -0.000000 -0.000000  0.000000  0.000000  0.041062  0.000000
       6    0.000000  0.000000 -0.000000  0.000000  0.000000  0.041062
-------------------------------------------------------------------------------

  Mechanical properties :

-------------------------------------------------------------------------------
  Convention :                    Reuss         Voigt         Hill
-------------------------------------------------------------------------------
  Bulk  Modulus (GPa)     =      43.82493      43.82493      43.82493
  Shear Modulus (GPa)     =      26.08758      26.29496      26.19127
-------------------------------------------------------------------------------
  Velocity S-wave (km/s)  =       3.34035       3.35360       3.34698
  Velocity P-wave (km/s)  =       5.79842       5.80861       5.80351
-------------------------------------------------------------------------------
  Compressibility (1/GPa) =    0.02281806
-------------------------------------------------------------------------------
  Stress axis :                     x             y             z
-------------------------------------------------------------------------------
  Youngs Moduli (GPa)     =      71.69479      71.69479      71.69479
-------------------------------------------------------------------------------
  Poissons Ratio (x)      =                     0.22734       0.22734
  Poissons Ratio (y)      =       0.22734                     0.22734
  Poissons Ratio (z)      =       0.22734       0.22734
-------------------------------------------------------------------------------


  Piezoelectric Strain Matrix: (Units=C/m**2)

-------------------------------------------------------------------------------
  Indices      1         2         3         4         5         6    
-------------------------------------------------------------------------------
       x    -0.00000  -0.00000  -0.00000  -0.00000   0.00000   0.00000
       y    -0.00000   0.00000  -0.00000   0.00000  -0.00000   0.00000
       z     0.00000   0.00000   0.00000  -0.00000   0.00000  -0.00000
-------------------------------------------------------------------------------


  Piezoelectric Stress Matrix: (Units=10**-11 C/N)

-------------------------------------------------------------------------------
  Indices      1         2         3         4         5         6    
-------------------------------------------------------------------------------
       x    -0.00000  -0.00000  -0.00000  -0.00000   0.00000   0.00000
       y    -0.00000   0.00000  -0.00000   0.00000  -0.00000   0.00000
       z     0.00000   0.00000  -0.00000  -0.00000   0.00000  -0.00000
-------------------------------------------------------------------------------


  Static dielectric constant tensor : 

-------------------------------------------------------------------------------
              x         y         z
-------------------------------------------------------------------------------
       x    11.08357  -0.00000  -0.00000
       y    -0.00000  11.08357  -0.00000
       z    -0.00000  -0.00000  11.08357
--------------------------------------------------------------------------------

  High frequency dielectric constant tensor : 

-------------------------------------------------------------------------------
              x         y         z
-------------------------------------------------------------------------------
       x     1.50771  -0.00000  -0.00000
       y    -0.00000   1.50771  -0.00000
       z    -0.00000  -0.00000   1.50771
-------------------------------------------------------------------------------

  Static refractive indices : 

-------------------------------------------------------------------------------
    1 =    3.32920      2 =    3.32920      3 =    3.32920
-------------------------------------------------------------------------------

  High frequency refractive indices : 

-------------------------------------------------------------------------------
    1 =    1.22789      2 =    1.22789      3 =    1.22789
-------------------------------------------------------------------------------


  Time to end of optimisation =       0.0329 seconds

********************************************************************************
*  Defect calculation for configuration   1 :                                  *
********************************************************************************

  Total number of defects =      3

  Total charge on defect  =   2.00

  Defect centre is at   2.2520   2.2520   0.0000  Angs

  Region 1 radius =  12.0000      Number of ions =    622

  Number of symmetry inequivalent region 1 ions  =    201

  Region 2 radius =  16.0000      Number of ions =    762

  Number of symmetry inequivalent region 2a ions =    224

  Region 2a mode = 4 : screened electrostatics due to region 1 
                       neglect correction to region 1 forces from 2a
                       region 2a displacements based on defects only

  Region 2a ions will only interact with defects in region 1

  Vacancies:

--------------------------------------------------------------------------------
    Specification type     Symbol/Number         x          y          z
--------------------------------------------------------------------------------
    Cartesian                                0.000000   0.000000   0.000000
    Cartesian                                4.504000   4.504000   0.000000
--------------------------------------------------------------------------------

  Interstitials:

--------------------------------------------------------------------------------
    Specification type     Symbol/Number         x          y          z
--------------------------------------------------------------------------------
    Atom/Cartesian          O                2.792480   2.792480   0.000000
--------------------------------------------------------------------------------


  Symmetry reduced region 1 (Relative to defect centre) :

--------------------------------------------------------------------------------
   No.   Atomic       x            y             z       Radius  Multiplicity   
         Label      (Angs)       (Angs)        (Angs)    (Angs)     
--------------------------------------------------------------------------------
     1  O     c      0.5405       0.5405       0.0000    0.0000     1    Defect
     2  Na    c     -0.0490 *     2.1539 *     0.0000    0.0000     2          
     3  Cl    c     -0.0490 *    -0.0490      -2.2030 *  0.0000     2          
     4  Na    c     -0.0490 *    -2.2520 *     0.0000    0.0000     2          
     5  O     c      2.1539 *    -2.2520 *     0.0000    0.0000     2          
     6  Na    c      2.1539 *     2.1539      -2.2030 *  0.0000     2          
     7  Na    c      2.1539 *    -2.2520 *    -2.2030 *  0.0000     4          
     8  Na    c     -2.2520 *    -2.2520      -2.2030 *  0.0000     2          
     9  Na    c      4.3569 *     2.1539 *     0.0000    0.0000     2          
    10  Cl    c     -0.0490 *     4.3569 *    -2.2030 *  0.0000     4          
    11  Na    c     -0.0490 *     2.1539 *     4.4059 *  0.0000     4          
    12  Na    c      4.3569 *    -2.2520 *     0.0000    0.0000     2          
    13  Na    c     -0.0490 *    -2.2520 *     4.4059 *  0.0000     4          
    14  Na    c     -4.4550 *     2.1539 *     0.0000    0.0000     2          
    15  Cl    c     -0.0490 *    -4.4550 *    -2.2030 *  0.0000     4          
    16  Na    c     -4.4550 *    -2.2520 *     0.0000    0.0000     2          
    17  O     c      2.1539 *     2.1539       4.4059 *  0.0000     2          
    18  O     c      2.1539 *    -2.2520 *     4.4059 *  0.0000     4          
    19  O     c     -2.2520 *    -2.2520       4.4059 *  0.0000     2          
    20  Cl    c      4.3569 *     4.3569      -2.2030 *  0.0000     2          
    21  Na    c     -0.0490 *     6.5598 *     0.0000    0.0000     2          
    22  Na    c      4.3569 *     2.1539 *     4.4059 *  0.0000     4          
    23  Na    c      4.3569 *    -2.2520 *     4.4059 *  0.0000     4          
    24  Cl    c     -0.0490 *    -0.0490       6.6089 *  0.0000     2          
    25  Cl    c      4.3569 *    -4.4550 *    -2.2030 *  0.0000     4          
    26  Na    c     -4.4550 *     2.1539 *     4.4059 *  0.0000     4          
    27  Na    c     -0.0490 *    -6.6579 *     0.0000    0.0000     2          
    28  Na    c     -4.4550 *    -2.2520 *     4.4059 *  0.0000     4          
    29  Cl    c     -4.4550 *    -4.4550      -2.2030 *  0.0000     2          
    30  O     c      2.1539 *     6.5598 *     0.0000    0.0000     2          
    31  O     c      6.5598 *    -2.2520 *     0.0000    0.0000     2          
    32  O     c      2.1539 *    -6.6579 *     0.0000    0.0000     2          
    33  O     c     -2.2520 *    -6.6579 *     0.0000    0.0000     2          
    34  Na    c      2.1539 *     6.5598 *    -2.2030 *  0.0000     4          
    35  Na    c      2.1539 *     2.1539       6.6089 *  0.0000     2          
    36  Na    c      6.5598 *    -2.2520 *    -2.2030 *  0.0000     4          
    37  Na    c      2.1539 *    -2.2520 *     6.6089 *  0.0000     4          
    38  Na    c      2.1539 *    -6.6579 *    -2.2030 *  0.0000     4          
    39  Na    c     -2.2520 *    -2.2520       6.6089 *  0.0000     2          
    40  Na    c     -2.2520 *    -6.6579 *    -2.2030 *  0.0000     4          
    41  Na    c      4.3569 *     6.5598 *     0.0000    0.0000     2          
    42  Na    c     -0.0490 *     6.5598 *     4.4059 *  0.0000     4          
    43  Cl    c     -0.0490 *     4.3569 *     6.6089 *  0.0000     4          
    44  Na    c     -4.4550 *     6.5598 *     0.0000    0.0000     2          
    45  Na    c      4.3569 *    -6.6579 *     0.0000    0.0000     2          
    46  Cl    c     -0.0490 *    -4.4550 *     6.6089 *  0.0000     4          
    47  Na    c     -0.0490 *    -6.6579 *     4.4059 *  0.0000     4          
    48  Na    c     -4.4550 *    -6.6579 *     0.0000    0.0000     2          
    49  O     c      2.1539 *     6.5598 *     4.4059 *  0.0000     4          
    50  O     c      6.5598 *    -2.2520 *     4.4059 *  0.0000     4          
    51  O     c      2.1539 *    -6.6579 *     4.4059 *  0.0000     4          
    52  O     c     -2.2520 *    -6.6579 *     4.4059 *  0.0000     4          
    53  Na    c      4.3569 *     6.5598 *     4.4059 *  0.0000     4          
    54  Na    c      8.7628 *     2.1539 *     0.0000    0.0000     2          
    55  Cl    c     -0.0490 *     8.7628 *    -2.2030 *  0.0000     4          
    56  Cl    c      4.3569 *     4.3569       6.6089 *  0.0000     2          
    57  Na    c      8.7628 *    -2.2520 *     0.0000    0.0000     2          
    58  Na    c     -0.0490 *     2.1539 *     8.8118 *  0.0000     4          
    59  Na    c     -4.4550 *     6.5598 *     4.4059 *  0.0000     4          
    60  Cl    c      4.3569 *    -4.4550 *     6.6089 *  0.0000     4          
    61  Na    c     -0.0490 *    -2.2520 *     8.8118 *  0.0000     4          
    62  Na    c      4.3569 *    -6.6579 *     4.4059 *  0.0000     4          
    63  Na    c     -8.8609 *     2.1539 *     0.0000    0.0000     2          
    64  Cl    c     -0.0490 *    -8.8609 *    -2.2030 *  0.0000     4          
    65  Cl    c     -4.4550 *    -4.4550       6.6089 *  0.0000     2          
    66  Na    c     -8.8609 *    -2.2520 *     0.0000    0.0000     2          
    67  Na    c     -4.4550 *    -6.6579 *     4.4059 *  0.0000     4          
    68  O     c      6.5598 *     6.5598       0.0000    0.0000     1          
    69  O     c      2.1539 *     2.1539       8.8118 *  0.0000     2          
    70  O     c      2.1539 *    -2.2520 *     8.8118 *  0.0000     4          
    71  O     c      6.5598 *    -6.6579 *     0.0000    0.0000     2          
    72  O     c     -2.2520 *    -2.2520       8.8118 *  0.0000     2          
    73  O     c     -6.6579 *    -6.6579       0.0000    0.0000     1          
    74  Na    c      6.5598 *     6.5598      -2.2030 *  0.0000     2          
    75  Na    c      2.1539 *     6.5598 *     6.6089 *  0.0000     4          
    76  Na    c      6.5598 *    -2.2520 *     6.6089 *  0.0000     4          
    77  Na    c      6.5598 *    -6.6579 *    -2.2030 *  0.0000     4          
    78  Na    c      2.1539 *    -6.6579 *     6.6089 *  0.0000     4          
    79  Na    c     -2.2520 *    -6.6579 *     6.6089 *  0.0000     4          
    80  Na    c     -6.6579 *    -6.6579      -2.2030 *  0.0000     2          
    81  Cl    c      4.3569 *     8.7628 *    -2.2030 *  0.0000     4          
    82  Na    c      8.7628 *     2.1539 *     4.4059 *  0.0000     4          
    83  Na    c      4.3569 *     2.1539 *     8.8118 *  0.0000     4          
    84  Na    c      8.7628 *    -2.2520 *     4.4059 *  0.0000     4          
    85  Cl    c      8.7628 *    -4.4550 *    -2.2030 *  0.0000     4          
    86  Na    c      4.3569 *    -2.2520 *     8.8118 *  0.0000     4          
    87  Na    c     -4.4550 *     2.1539 *     8.8118 *  0.0000     4          
    88  Cl    c      4.3569 *    -8.8609 *    -2.2030 *  0.0000     4          
    89  Na    c     -8.8609 *     2.1539 *     4.4059 *  0.0000     4          
    90  Na    c     -4.4550 *    -2.2520 *     8.8118 *  0.0000     4          
    91  Na    c     -8.8609 *    -2.2520 *     4.4059 *  0.0000     4          
    92  Cl    c     -4.4550 *    -8.8609 *    -2.2030 *  0.0000     4          
    93  O     c      6.5598 *     6.5598       4.4059 *  0.0000     2          
    94  O     c      6.5598 *    -6.6579 *     4.4059 *  0.0000     4          
    95  O     c     -6.6579 *    -6.6579       4.4059 *  0.0000     2          
    96  Na    c      8.7628 *     6.5598 *     0.0000    0.0000     2          
    97  Na    c     -0.0490 *    10.9657 *     0.0000    0.0000     2          
    98  Cl    c     -0.0490 *     8.7628 *     6.6089 *  0.0000     4          
    99  Na    c     -0.0490 *     6.5598 *     8.8118 *  0.0000     4          
   100  Na    c      8.7628 *    -6.6579 *     0.0000    0.0000     2          
   101  Cl    c     -0.0490 *    -0.0490      11.0148 *  0.0000     2          
   102  Na    c     -8.8609 *     6.5598 *     0.0000    0.0000     2          
   103  Na    c     -0.0490 *    -6.6579 *     8.8118 *  0.0000     4          
   104  Cl    c     -0.0490 *    -8.8609 *     6.6089 *  0.0000     4          
   105  Na    c     -0.0490 *   -11.0638 *     0.0000    0.0000     2          
   106  Na    c     -8.8609 *    -6.6579 *     0.0000    0.0000     2          
   107  O     c      2.1539 *    10.9657 *     0.0000    0.0000     2          
   108  O     c      2.1539 *     6.5598 *     8.8118 *  0.0000     4          
   109  O     c     10.9657 *    -2.2520 *     0.0000    0.0000     2          
   110  O     c      6.5598 *    -2.2520 *     8.8118 *  0.0000     4          
   111  O     c      2.1539 *    -6.6579 *     8.8118 *  0.0000     4          
   112  O     c      2.1539 *   -11.0638 *     0.0000    0.0000     2          
   113  O     c     -2.2520 *    -6.6579 *     8.8118 *  0.0000     4          
   114  O     c     -2.2520 *   -11.0638 *     0.0000    0.0000     2          
   115  Na    c      6.5598 *     6.5598       6.6089 *  0.0000     2          
   116  Na    c      2.1539 *    10.9657 *    -2.2030 *  0.0000     4          
   117  Na    c     10.9657 *    -2.2520 *    -2.2030 *  0.0000     4          
   118  Na    c      2.1539 *     2.1539      11.0148 *  0.0000     2          
   119  Na    c      2.1539 *    -2.2520 *    11.0148 *  0.0000     4          
   120  Na    c      6.5598 *    -6.6579 *     6.6089 *  0.0000     4          
   121  Na    c     -2.2520 *    -2.2520      11.0148 *  0.0000     2          
   122  Na    c      2.1539 *   -11.0638 *    -2.2030 *  0.0000     4          
   123  Na    c     -2.2520 *   -11.0638 *    -2.2030 *  0.0000     4          
   124  Na    c     -6.6579 *    -6.6579       6.6089 *  0.0000     2          
   125  Na    c      4.3569 *    10.9657 *     0.0000    0.0000     2          
   126  Na    c      8.7628 *     6.5598 *     4.4059 *  0.0000     4          
   127  Cl    c      4.3569 *     8.7628 *     6.6089 *  0.0000     4          
   128  Na    c     -0.0490 *    10.9657 *     4.4059 *  0.0000     4          
   129  Na    c      4.3569 *     6.5598 *     8.8118 *  0.0000     4          
   130  Na    c     -4.4550 *    10.9657 *     0.0000    0.0000     2          
   131  Cl    c     -0.0490 *     4.3569 *    11.0148 *  0.0000     4          
   132  Cl    c      8.7628 *    -4.4550 *     6.6089 *  0.0000     4          
   133  Na    c     -4.4550 *     6.5598 *     8.8118 *  0.0000     4          
   134  Na    c      8.7628 *    -6.6579 *     4.4059 *  0.0000     4          
   135  Na    c      4.3569 *    -6.6579 *     8.8118 *  0.0000     4          
   136  Na    c     -8.8609 *     6.5598 *     4.4059 *  0.0000     4          
   137  Cl    c     -0.0490 *    -4.4550 *    11.0148 *  0.0000     4          
   138  Cl    c      4.3569 *    -8.8609 *     6.6089 *  0.0000     4          
   139  Na    c      4.3569 *   -11.0638 *     0.0000    0.0000     2          
   140  Na    c     -0.0490 *   -11.0638 *     4.4059 *  0.0000     4          
   141  Na    c     -4.4550 *    -6.6579 *     8.8118 *  0.0000     4          
   142  Cl    c     -4.4550 *    -8.8609 *     6.6089 *  0.0000     4          
   143  Na    c     -4.4550 *   -11.0638 *     0.0000    0.0000     2          
   144  Na    c     -8.8609 *    -6.6579 *     4.4059 *  0.0000     4          
   145  O     s      0.5405       0.5405       0.0000    0.0000     1    Defect
   146  Cl    s     -0.0490 *    -0.0490      -2.2030 *  0.0000     2          
   147  O     s      2.1539 *    -2.2520 *     0.0000    0.0000     2          
   148  Cl    s     -0.0490 *     4.3569 *    -2.2030 *  0.0000     4          
   149  Cl    s     -0.0490 *    -4.4550 *    -2.2030 *  0.0000     4          
   150  O     s      2.1539 *     2.1539       4.4059 *  0.0000     2          
   151  O     s      2.1539 *    -2.2520 *     4.4059 *  0.0000     4          
   152  O     s     -2.2520 *    -2.2520       4.4059 *  0.0000     2          
   153  Cl    s      4.3569 *     4.3569      -2.2030 *  0.0000     2          
   154  Cl    s     -0.0490 *    -0.0490       6.6089 *  0.0000     2          
   155  Cl    s      4.3569 *    -4.4550 *    -2.2030 *  0.0000     4          
   156  Cl    s     -4.4550 *    -4.4550      -2.2030 *  0.0000     2          
   157  O     s      2.1539 *     6.5598 *     0.0000    0.0000     2          
   158  O     s      6.5598 *    -2.2520 *     0.0000    0.0000     2          
   159  O     s      2.1539 *    -6.6579 *     0.0000    0.0000     2          
   160  O     s     -2.2520 *    -6.6579 *     0.0000    0.0000     2          
   161  Cl    s     -0.0490 *     4.3569 *     6.6089 *  0.0000     4          
   162  Cl    s     -0.0490 *    -4.4550 *     6.6089 *  0.0000     4          
   163  O     s      2.1539 *     6.5598 *     4.4059 *  0.0000     4          
   164  O     s      6.5598 *    -2.2520 *     4.4059 *  0.0000     4          
   165  O     s      2.1539 *    -6.6579 *     4.4059 *  0.0000     4          
   166  O     s     -2.2520 *    -6.6579 *     4.4059 *  0.0000     4          
   167  Cl    s     -0.0490 *     8.7628 *    -2.2030 *  0.0000     4          
   168  Cl    s      4.3569 *     4.3569       6.6089 *  0.0000     2          
   169  Cl    s      4.3569 *    -4.4550 *     6.6089 *  0.0000     4          
   170  Cl    s     -0.0490 *    -8.8609 *    -2.2030 *  0.0000     4          
   171  Cl    s     -4.4550 *    -4.4550       6.6089 *  0.0000     2          
   172  O     s      6.5598 *     6.5598       0.0000    0.0000     1          
   173  O     s      2.1539 *     2.1539       8.8118 *  0.0000     2          
   174  O     s      2.1539 *    -2.2520 *     8.8118 *  0.0000     4          
   175  O     s      6.5598 *    -6.6579 *     0.0000    0.0000     2          
   176  O     s     -2.2520 *    -2.2520       8.8118 *  0.0000     2          
   177  O     s     -6.6579 *    -6.6579       0.0000    0.0000     1          
   178  Cl    s      4.3569 *     8.7628 *    -2.2030 *  0.0000     4          
   179  Cl    s      8.7628 *    -4.4550 *    -2.2030 *  0.0000     4          
   180  Cl    s      4.3569 *    -8.8609 *    -2.2030 *  0.0000     4          
   181  Cl    s     -4.4550 *    -8.8609 *    -2.2030 *  0.0000     4          
   182  O     s      6.5598 *     6.5598       4.4059 *  0.0000     2          
   183  O     s      6.5598 *    -6.6579 *     4.4059 *  0.0000     4          
   184  O     s     -6.6579 *    -6.6579       4.4059 *  0.0000     2          
   185  Cl    s     -0.0490 *     8.7628 *     6.6089 *  0.0000     4          
   186  Cl    s     -0.0490 *    -0.0490      11.0148 *  0.0000     2          
   187  Cl    s     -0.0490 *    -8.8609 *     6.6089 *  0.0000     4          
   188  O     s      2.1539 *    10.9657 *     0.0000    0.0000     2          
   189  O     s      2.1539 *     6.5598 *     8.8118 *  0.0000     4          
   190  O     s     10.9657 *    -2.2520 *     0.0000    0.0000     2          
   191  O     s      6.5598 *    -2.2520 *     8.8118 *  0.0000     4          
   192  O     s      2.1539 *    -6.6579 *     8.8118 *  0.0000     4          
   193  O     s      2.1539 *   -11.0638 *     0.0000    0.0000     2          
   194  O     s     -2.2520 *    -6.6579 *     8.8118 *  0.0000     4          
   195  O     s     -2.2520 *   -11.0638 *     0.0000    0.0000     2          
   196  Cl    s      4.3569 *     8.7628 *     6.6089 *  0.0000     4          
   197  Cl    s     -0.0490 *     4.3569 *    11.0148 *  0.0000     4          
   198  Cl    s      8.7628 *    -4.4550 *     6.6089 *  0.0000     4          
   199  Cl    s     -0.0490 *    -4.4550 *    11.0148 *  0.0000     4          
   200  Cl    s      4.3569 *    -8.8609 *     6.6089 *  0.0000     4          
   201  Cl    s     -4.4550 *    -8.8609 *     6.6089 *  0.0000     4          
--------------------------------------------------------------------------------


  Constraints on symmetry reduced coordinates :

--------------------------------------------------------------------------------
  Constraint no.      Unconstrained     Constrained    Coefficient    
                         Variable         Variable
--------------------------------------------------------------------------------
           1                 3 x             3 y         1.00000
           2                 6 x             6 y         1.00000
           3                 8 x             8 y         1.00000
           4                17 x            17 y         1.00000
           5                19 x            19 y         1.00000
           6                20 x            20 y         1.00000
           7                24 x            24 y         1.00000
           8                29 x            29 y         1.00000
           9                35 x            35 y         1.00000
          10                39 x            39 y         1.00000
          11                56 x            56 y         1.00000
          12                65 x            65 y         1.00000
          13                68 x            68 y         1.00000
          14                69 x            69 y         1.00000
          15                72 x            72 y         1.00000
          16                73 x            73 y         1.00000
          17                74 x            74 y         1.00000
          18                80 x            80 y         1.00000
          19                93 x            93 y         1.00000
          20                95 x            95 y         1.00000
          21               101 x           101 y         1.00000
          22               115 x           115 y         1.00000
          23               118 x           118 y         1.00000
          24               121 x           121 y         1.00000
          25               124 x           124 y         1.00000
          26               146 x           146 y         1.00000
          27               150 x           150 y         1.00000
          28               152 x           152 y         1.00000
          29               153 x           153 y         1.00000
          30               154 x           154 y         1.00000
          31               156 x           156 y         1.00000
          32               168 x           168 y         1.00000
          33               171 x           171 y         1.00000
          34               172 x           172 y         1.00000
          35               173 x           173 y         1.00000
          36               176 x           176 y         1.00000
          37               177 x           177 y         1.00000
          38               182 x           182 y         1.00000
          39               184 x           184 y         1.00000
          40               186 x           186 y         1.00000
--------------------------------------------------------------------------------


  Components of defect energy : 

--------------------------------------------------------------------------------
  Region 1 - region 1                   =    100.59013669 eV
  Region 1 - region 2a (unrelaxed)      =    -55.03323307 eV
  Region 1 - 2a (relaxed - correction)  =     -1.00408710 eV
  Region 1 (Total)                      =     44.55281652 eV
  Region 2a                             =      0.50244193 eV
  Region 2b                             =     -1.64993791 eV
--------------------------------------------------------------------------------
  Total defect energy                   =     43.40532054 eV
--------------------------------------------------------------------------------

  Largest displacement in region 2 =   0.0443 Angstroms


  Number of variables =      507

  Maximum number of calculations  =        1000
  Maximum Hessian update interval =          10
  Maximum step size               =   1.0000000
  Maximum parameter tolerance     =   0.0000100
  Maximum function  tolerance     =   0.0000100
  Maximum gradient  tolerance     =   0.0010000

  Symmetry adapted optimisation

  Symmetry to be used for second derivatives

  Newton-Raphson optimiser to be used

  BFGS hessian update to be used

  Lower half triangular hessian to be used

  Start of defect optimisation :

  Cycle:      0 Defect Energy:  43.405321  Gnorm:     0.094918  CPU:    2.204
  ** Hessian calculated **
  Cycle:      1 Defect Energy:  36.709985  Gnorm:     0.072467  CPU:    8.268
  Cycle:      2 Defect Energy:  34.393056  Gnorm:     0.057409  CPU:   14.235
  ** Hessian calculated **
  Cycle:      3 Defect Energy:  29.711148  Gnorm:     0.028964  CPU:   19.583
  Cycle:      4 Defect Energy:  28.582118  Gnorm:     0.021292  CPU:   21.889
  Cycle:      5 Defect Energy:  27.873871  Gnorm:     0.014493  CPU:   24.299
  Cycle:      6 Defect Energy:  27.461022  Gnorm:     0.015455  CPU:   26.573
  Cycle:      7 Defect Energy:  27.029568  Gnorm:     0.013177  CPU:   29.407
  Cycle:      8 Defect Energy:  26.735348  Gnorm:     0.011424  CPU:   31.489
  Cycle:      9 Defect Energy:  26.396207  Gnorm:     0.010099  CPU:   34.213
  Cycle:     10 Defect Energy:  26.197603  Gnorm:     0.010282  CPU:   36.795
  Cycle:     11 Defect Energy:  26.074224  Gnorm:     0.008139  CPU:   38.893
  Cycle:     12 Defect Energy:  25.991599  Gnorm:     0.007413  CPU:   40.863
  ** Hessian calculated **
  Cycle:     13 Defect Energy:  25.900294  Gnorm:     0.007032  CPU:   42.724
  Cycle:     14 Defect Energy:  25.770862  Gnorm:     0.006448  CPU:   43.465
  Cycle:     15 Defect Energy:  25.592618  Gnorm:     0.005523  CPU:   43.934
  Cycle:     16 Defect Energy:  25.369017  Gnorm:     0.004029  CPU:   46.632
  Cycle:     17 Defect Energy:  25.243637  Gnorm:     0.002819  CPU:   49.228
  Cycle:     18 Defect Energy:  25.183557  Gnorm:     0.001975  CPU:   49.909
  Cycle:     19 Defect Energy:  25.154438  Gnorm:     0.001385  CPU:   50.585
  Cycle:     20 Defect Energy:  25.140212  Gnorm:     0.000971  CPU:   51.266
  Cycle:     21 Defect Energy:  25.133302  Gnorm:     0.000680  CPU:   51.951
  Cycle:     22 Defect Energy:  25.129968  Gnorm:     0.000476  CPU:   52.645
  ** Hessian calculated **
  Cycle:     23 Defect Energy:  25.128371  Gnorm:     0.000334  CPU:   55.168
  Cycle:     24 Defect Energy:  25.127618  Gnorm:     0.000234  CPU:   55.821
  Cycle:     25 Defect Energy:  25.127269  Gnorm:     0.000164  CPU:   56.475
  Cycle:     26 Defect Energy:  25.127112  Gnorm:     0.000115  CPU:   57.114
  Cycle:     27 Defect Energy:  25.127045  Gnorm:     0.000080  CPU:   57.753
  Cycle:     28 Defect Energy:  25.127020  Gnorm:     0.000056  CPU:   58.418


  **** Optimisation achieved ****


  Final defect energy  =       25.12701202
  Final defect Gnorm   =        0.00003932

  Components of defect energy : 

--------------------------------------------------------------------------------
  Region 1 - region 1                   =     74.18062982 eV
  Region 1 - region 2a (unrelaxed)      =    -47.03719593 eV
  Region 1 - 2a (relaxed - correction)  =     -0.73810587 eV
  Region 1 (Total)                      =     26.40532802 eV
  Region 2a                             =      0.36840377 eV
  Region 2b                             =     -1.64671977 eV
--------------------------------------------------------------------------------
  Total defect energy                   =     25.12701202 eV
--------------------------------------------------------------------------------

  Largest displacement in region 2 =   0.0443 Angstroms

  Final coordinates of region 1 :

--------------------------------------------------------------------------------
   No.  Atomic        x           y           z          Radius      Charge
        Label       (Angs)      (Angs)      (Angs)       (Angs)       (e) 
--------------------------------------------------------------------------------
     1  O     c     2.792480    2.792480    0.000000    0.000000    0.183000
     2  Na    c     1.897505    4.762447    0.000000    0.000000    1.000000
     3  Na    c     4.762447    1.897505    0.000000    0.000000    1.000000
     4  Cl    c     1.825254    1.825254   -2.676424    0.000000    1.485000
     5  Cl    c     1.825254    1.825254    2.676424    0.000000    1.485000
     6  Na    c     2.608045    0.645508    0.000000    0.000000    1.000000
     7  Na    c     0.645508    2.608045    0.000000    0.000000    1.000000
     8  O     c     4.551861   -0.232827    0.000000    0.000000    0.183000
     9  O     c    -0.232827    4.551861    0.000000    0.000000    0.183000
    10  Na    c     3.657732    3.657732   -2.195533    0.000000    1.000000
    11  Na    c     3.657732    3.657732    2.195533    0.000000    1.000000
    12  Na    c     4.400453   -0.219263   -2.248034    0.000000    1.000000
    13  Na    c     4.400453   -0.219263    2.248034    0.000000    1.000000
    14  Na    c    -0.219263    4.400453   -2.248034    0.000000    1.000000
    15  Na    c    -0.219263    4.400453    2.248034    0.000000    1.000000
    16  Na    c    -0.062405   -0.062405   -2.591243    0.000000    1.000000
    17  Na    c    -0.062405   -0.062405    2.591243    0.000000    1.000000
    18  Na    c     6.855157    4.461216    0.000000    0.000000    1.000000
    19  Na    c     4.461216    6.855157    0.000000    0.000000    1.000000
    20  Cl    c     2.404969    6.443073   -1.992177    0.000000    1.485000
    21  Cl    c     2.404969    6.443073    1.992177    0.000000    1.485000
    22  Cl    c     6.443073    2.404969   -1.992177    0.000000    1.485000
    23  Cl    c     6.443073    2.404969    1.992177    0.000000    1.485000
    24  Na    c     2.098599    4.349038    4.608190    0.000000    1.000000
    25  Na    c     2.098599    4.349038   -4.608190    0.000000    1.000000
    26  Na    c     4.349038    2.098599    4.608190    0.000000    1.000000
    27  Na    c     4.349038    2.098599   -4.608190    0.000000    1.000000
    28  Na    c     6.687904   -0.428658    0.000000    0.000000    1.000000
    29  Na    c    -0.428658    6.687904    0.000000    0.000000    1.000000
    30  Na    c     2.168507   -0.060451    4.582232    0.000000    1.000000
    31  Na    c     2.168507   -0.060451   -4.582232    0.000000    1.000000
    32  Na    c    -0.060451    2.168507    4.582232    0.000000    1.000000
    33  Na    c    -0.060451    2.168507   -4.582232    0.000000    1.000000
    34  Na    c    -2.307699    4.063042    0.000000    0.000000    1.000000
    35  Na    c     4.063042   -2.307699    0.000000    0.000000    1.000000
    36  Cl    c     1.912127   -1.922347   -1.974539    0.000000    1.485000
    37  Cl    c     1.912127   -1.922347    1.974539    0.000000    1.485000
    38  Cl    c    -1.922347    1.912127   -1.974539    0.000000    1.485000
    39  Cl    c    -1.922347    1.912127    1.974539    0.000000    1.485000
    40  Na    c    -2.477809    0.124931    0.000000    0.000000    1.000000
    41  Na    c     0.124931   -2.477809    0.000000    0.000000    1.000000
    42  O     c     4.266258    4.266258    4.321371    0.000000    0.183000
    43  O     c     4.266258    4.266258   -4.321371    0.000000    0.183000
    44  O     c     4.415076   -0.089385    4.450511    0.000000    0.183000
    45  O     c     4.415076   -0.089385   -4.450511    0.000000    0.183000
    46  O     c    -0.089385    4.415076    4.450511    0.000000    0.183000
    47  O     c    -0.089385    4.415076   -4.450511    0.000000    0.183000
    48  O     c    -0.101417   -0.101417    4.667336    0.000000    0.183000
    49  O     c    -0.101417   -0.101417   -4.667336    0.000000    0.183000
    50  Cl    c     6.429539    6.429539   -1.924032    0.000000    1.485000
    51  Cl    c     6.429539    6.429539    1.924032    0.000000    1.485000
    52  Na    c     2.153489    8.805820    0.000000    0.000000    1.000000
    53  Na    c     8.805820    2.153489    0.000000    0.000000    1.000000
    54  Na    c     6.498937    4.341198    4.091780    0.000000    1.000000
    55  Na    c     6.498937    4.341198   -4.091780    0.000000    1.000000
    56  Na    c     4.341198    6.498937    4.091780    0.000000    1.000000
    57  Na    c     4.341198    6.498937   -4.091780    0.000000    1.000000
    58  Na    c     6.615303   -0.071118    4.464718    0.000000    1.000000
    59  Na    c     6.615303   -0.071118   -4.464718    0.000000    1.000000
    60  Na    c    -0.071118    6.615303    4.464718    0.000000    1.000000
    61  Na    c    -0.071118    6.615303   -4.464718    0.000000    1.000000
    62  Cl    c     2.173203    2.173203    6.695230    0.000000    1.485000
    63  Cl    c     2.173203    2.173203   -6.695230    0.000000    1.485000
    64  Cl    c     6.623222   -2.274128   -2.280968    0.000000    1.485000
    65  Cl    c     6.623222   -2.274128    2.280968    0.000000    1.485000
    66  Cl    c    -2.274128    6.623222   -2.280968    0.000000    1.485000
    67  Cl    c    -2.274128    6.623222    2.280968    0.000000    1.485000
    68  Na    c    -2.263582    4.467767    4.520954    0.000000    1.000000
    69  Na    c    -2.263582    4.467767   -4.520954    0.000000    1.000000
    70  Na    c     4.467767   -2.263582    4.520954    0.000000    1.000000
    71  Na    c     4.467767   -2.263582   -4.520954    0.000000    1.000000
    72  Na    c     2.201272   -4.794196    0.000000    0.000000    1.000000
    73  Na    c    -4.794196    2.201272    0.000000    0.000000    1.000000
    74  Na    c    -2.267049   -0.043830    4.620700    0.000000    1.000000
    75  Na    c    -2.267049   -0.043830   -4.620700    0.000000    1.000000
    76  Na    c    -0.043830   -2.267049    4.620700    0.000000    1.000000
    77  Na    c    -0.043830   -2.267049   -4.620700    0.000000    1.000000
    78  Cl    c    -1.934624   -1.934624   -1.871219    0.000000    1.485000
    79  Cl    c    -1.934624   -1.934624    1.871219    0.000000    1.485000
    80  O     c     4.385351    8.935617    0.000000    0.000000    0.183000
    81  O     c     8.935617    4.385351    0.000000    0.000000    0.183000
    82  O     c     8.846409   -0.054122    0.000000    0.000000    0.183000
    83  O     c    -0.054122    8.846409    0.000000    0.000000    0.183000
    84  O     c     4.374685   -4.462712    0.000000    0.000000    0.183000
    85  O     c    -4.462712    4.374685    0.000000    0.000000    0.183000
    86  O     c     0.004991   -4.560891    0.000000    0.000000    0.183000
    87  O     c    -4.560891    0.004991    0.000000    0.000000    0.183000
    88  Na    c     4.387416    8.982475   -2.198968    0.000000    1.000000
    89  Na    c     4.387416    8.982475    2.198968    0.000000    1.000000
    90  Na    c     8.982475    4.387416   -2.198968    0.000000    1.000000
    91  Na    c     8.982475    4.387416    2.198968    0.000000    1.000000
    92  Na    c     4.489353    4.489353    6.553991    0.000000    1.000000
    93  Na    c     4.489353    4.489353   -6.553991    0.000000    1.000000
    94  Na    c     8.878995   -0.042719   -2.204984    0.000000    1.000000
    95  Na    c     8.878995   -0.042719    2.204984    0.000000    1.000000
    96  Na    c    -0.042719    8.878995   -2.204984    0.000000    1.000000
    97  Na    c    -0.042719    8.878995    2.204984    0.000000    1.000000
    98  Na    c     4.438805   -0.104519    6.661880    0.000000    1.000000
    99  Na    c     4.438805   -0.104519   -6.661880    0.000000    1.000000
   100  Na    c    -0.104519    4.438805    6.661880    0.000000    1.000000
   101  Na    c    -0.104519    4.438805   -6.661880    0.000000    1.000000
   102  Na    c     4.485269   -4.504989   -2.207268    0.000000    1.000000
   103  Na    c     4.485269   -4.504989    2.207268    0.000000    1.000000
   104  Na    c    -4.504989    4.485269   -2.207268    0.000000    1.000000
   105  Na    c    -4.504989    4.485269    2.207268    0.000000    1.000000
   106  Na    c    -0.004967   -0.004967    6.762927    0.000000    1.000000
   107  Na    c    -0.004967   -0.004967   -6.762927    0.000000    1.000000
   108  Na    c     0.002806   -4.482779   -2.224847    0.000000    1.000000
   109  Na    c     0.002806   -4.482779    2.224847    0.000000    1.000000
   110  Na    c    -4.482779    0.002806   -2.224847    0.000000    1.000000
   111  Na    c    -4.482779    0.002806    2.224847    0.000000    1.000000
   112  Na    c     6.626055    8.913243    0.000000    0.000000    1.000000
   113  Na    c     8.913243    6.626055    0.000000    0.000000    1.000000
   114  Na    c     2.201894    8.810748    4.469431    0.000000    1.000000
   115  Na    c     2.201894    8.810748   -4.469431    0.000000    1.000000
   116  Na    c     8.810748    2.201894    4.469431    0.000000    1.000000
   117  Na    c     8.810748    2.201894   -4.469431    0.000000    1.000000
   118  Cl    c     2.161345    6.569295    6.566432    0.000000    1.485000
   119  Cl    c     2.161345    6.569295   -6.566432    0.000000    1.485000
   120  Cl    c     6.569295    2.161345    6.566432    0.000000    1.485000
   121  Cl    c     6.569295    2.161345   -6.566432    0.000000    1.485000
   122  Na    c    -2.246055    9.074215    0.000000    0.000000    1.000000
   123  Na    c     9.074215   -2.246055    0.000000    0.000000    1.000000
   124  Na    c     6.613012   -4.255445    0.000000    0.000000    1.000000
   125  Na    c    -4.255445    6.613012    0.000000    0.000000    1.000000
   126  Cl    c     2.222399   -2.258451    6.609320    0.000000    1.485000
   127  Cl    c     2.222399   -2.258451   -6.609320    0.000000    1.485000
   128  Cl    c    -2.258451    2.222399    6.609320    0.000000    1.485000
   129  Cl    c    -2.258451    2.222399   -6.609320    0.000000    1.485000
   130  Na    c     2.198264   -4.479282    4.470641    0.000000    1.000000
   131  Na    c     2.198264   -4.479282   -4.470641    0.000000    1.000000
   132  Na    c    -4.479282    2.198264    4.470641    0.000000    1.000000
   133  Na    c    -4.479282    2.198264   -4.470641    0.000000    1.000000
   134  Na    c    -2.211222   -4.434121    0.000000    0.000000    1.000000
   135  Na    c    -4.434121   -2.211222    0.000000    0.000000    1.000000
   136  O     c     4.390702    8.759539    4.364538    0.000000    0.183000
   137  O     c     4.390702    8.759539   -4.364538    0.000000    0.183000
   138  O     c     8.759539    4.390702    4.364538    0.000000    0.183000
   139  O     c     8.759539    4.390702   -4.364538    0.000000    0.183000
   140  O     c     8.796434    0.003731    4.392351    0.000000    0.183000
   141  O     c     8.796434    0.003731   -4.392351    0.000000    0.183000
   142  O     c     0.003731    8.796434    4.392351    0.000000    0.183000
   143  O     c     0.003731    8.796434   -4.392351    0.000000    0.183000
   144  O     c     4.389592   -4.425672    4.397630    0.000000    0.183000
   145  O     c     4.389592   -4.425672   -4.397630    0.000000    0.183000
   146  O     c    -4.425672    4.389592    4.397630    0.000000    0.183000
   147  O     c    -4.425672    4.389592   -4.397630    0.000000    0.183000
   148  O     c    -0.012252   -4.431436    4.417544    0.000000    0.183000
   149  O     c    -0.012252   -4.431436   -4.417544    0.000000    0.183000
   150  O     c    -4.431436   -0.012252    4.417544    0.000000    0.183000
   151  O     c    -4.431436   -0.012252   -4.417544    0.000000    0.183000
   152  Na    c     6.588213    8.807588    4.446553    0.000000    1.000000
   153  Na    c     6.588213    8.807588   -4.446553    0.000000    1.000000
   154  Na    c     8.807588    6.588213    4.446553    0.000000    1.000000
   155  Na    c     8.807588    6.588213   -4.446553    0.000000    1.000000
   156  Na    c    11.087735    4.360239    0.000000    0.000000    1.000000
   157  Na    c     4.360239   11.087735    0.000000    0.000000    1.000000
   158  Cl    c     2.177450   10.994595   -2.206514    0.000000    1.485000
   159  Cl    c     2.177450   10.994595    2.206514    0.000000    1.485000
   160  Cl    c    10.994595    2.177450   -2.206514    0.000000    1.485000
   161  Cl    c    10.994595    2.177450    2.206514    0.000000    1.485000
   162  Cl    c     6.581089    6.581089    6.548493    0.000000    1.485000
   163  Cl    c     6.581089    6.581089   -6.548493    0.000000    1.485000
   164  Na    c    11.053973    0.063165    0.000000    0.000000    1.000000
   165  Na    c     0.063165   11.053973    0.000000    0.000000    1.000000
   166  Na    c     2.205087    4.397190    8.768328    0.000000    1.000000
   167  Na    c     2.205087    4.397190   -8.768328    0.000000    1.000000
   168  Na    c     4.397190    2.205087    8.768328    0.000000    1.000000
   169  Na    c     4.397190    2.205087   -8.768328    0.000000    1.000000
   170  Na    c    -2.220434    8.839525    4.400145    0.000000    1.000000
   171  Na    c    -2.220434    8.839525   -4.400145    0.000000    1.000000
   172  Na    c     8.839525   -2.220434    4.400145    0.000000    1.000000
   173  Na    c     8.839525   -2.220434   -4.400145    0.000000    1.000000
   174  Cl    c     6.597137   -2.218566    6.600687    0.000000    1.485000
   175  Cl    c     6.597137   -2.218566   -6.600687    0.000000    1.485000
   176  Cl    c    -2.218566    6.597137    6.600687    0.000000    1.485000
   177  Cl    c    -2.218566    6.597137   -6.600687    0.000000    1.485000
   178  Na    c     2.209721    0.008741    8.908351    0.000000    1.000000
   179  Na    c     2.209721    0.008741   -8.908351    0.000000    1.000000
   180  Na    c     0.008741    2.209721    8.908351    0.000000    1.000000
   181  Na    c     0.008741    2.209721   -8.908351    0.000000    1.000000
   182  Na    c     6.624490   -4.443379    4.428826    0.000000    1.000000
   183  Na    c     6.624490   -4.443379   -4.428826    0.000000    1.000000
   184  Na    c    -4.443379    6.624490    4.428826    0.000000    1.000000
   185  Na    c    -4.443379    6.624490   -4.428826    0.000000    1.000000
   186  Na    c    -6.652539    4.591491    0.000000    0.000000    1.000000
   187  Na    c     4.591491   -6.652539    0.000000    0.000000    1.000000
   188  Cl    c     2.197711   -6.616744   -2.234293    0.000000    1.485000
   189  Cl    c     2.197711   -6.616744    2.234293    0.000000    1.485000
   190  Cl    c    -6.616744    2.197711   -2.234293    0.000000    1.485000
   191  Cl    c    -6.616744    2.197711    2.234293    0.000000    1.485000
   192  Cl    c    -2.271119   -2.271119    6.618844    0.000000    1.485000
   193  Cl    c    -2.271119   -2.271119   -6.618844    0.000000    1.485000
   194  Na    c    -6.698637   -0.148530    0.000000    0.000000    1.000000
   195  Na    c    -0.148530   -6.698637    0.000000    0.000000    1.000000
   196  Na    c    -2.218900   -4.506783    4.472638    0.000000    1.000000
   197  Na    c    -2.218900   -4.506783   -4.472638    0.000000    1.000000
   198  Na    c    -4.506783   -2.218900    4.472638    0.000000    1.000000
   199  Na    c    -4.506783   -2.218900   -4.472638    0.000000    1.000000
   200  O     c     8.826664    8.826664    0.000000    0.000000    0.183000
   201  O     c     4.410388    4.410388    8.783668    0.000000    0.183000
   202  O     c     4.410388    4.410388   -8.783668    0.000000    0.183000
   203  O     c     4.410953   -0.013278    8.830881    0.000000    0.183000
   204  O     c     4.410953   -0.013278   -8.830881    0.000000    0.183000
   205  O     c    -0.013278    4.410953    8.830881    0.000000    0.183000
   206  O     c    -0.013278    4.410953   -8.830881    0.000000    0.183000
   207  O     c     8.821505   -4.410889    0.000000    0.000000    0.183000
   208  O     c    -4.410889    8.821505    0.000000    0.000000    0.183000
   209  O     c    -0.009367   -0.009367    8.891262    0.000000    0.183000
   210  O     c    -0.009367   -0.009367   -8.891262    0.000000    0.183000
   211  O     c    -4.405273   -4.405273    0.000000    0.000000    0.183000
   212  Na    c     8.849393    8.849393   -2.204478    0.000000    1.000000
   213  Na    c     8.849393    8.849393    2.204478    0.000000    1.000000
   214  Na    c     4.423918    8.670041    6.584497    0.000000    1.000000
   215  Na    c     4.423918    8.670041   -6.584497    0.000000    1.000000
   216  Na    c     8.670041    4.423918    6.584497    0.000000    1.000000
   217  Na    c     8.670041    4.423918   -6.584497    0.000000    1.000000
   218  Na    c     8.829135   -0.031466    6.611385    0.000000    1.000000
   219  Na    c     8.829135   -0.031466   -6.611385    0.000000    1.000000
   220  Na    c    -0.031466    8.829135    6.611385    0.000000    1.000000
   221  Na    c    -0.031466    8.829135   -6.611385    0.000000    1.000000
   222  Na    c     8.809293   -4.432532   -2.210828    0.000000    1.000000
   223  Na    c     8.809293   -4.432532    2.210828    0.000000    1.000000
   224  Na    c    -4.432532    8.809293   -2.210828    0.000000    1.000000
   225  Na    c    -4.432532    8.809293    2.210828    0.000000    1.000000
   226  Na    c     4.420294   -4.442665    6.625587    0.000000    1.000000
   227  Na    c     4.420294   -4.442665   -6.625587    0.000000    1.000000
   228  Na    c    -4.442665    4.420294    6.625587    0.000000    1.000000
   229  Na    c    -4.442665    4.420294   -6.625587    0.000000    1.000000
   230  Na    c    -0.009911   -4.473148    6.638332    0.000000    1.000000
   231  Na    c    -0.009911   -4.473148   -6.638332    0.000000    1.000000
   232  Na    c    -4.473148   -0.009911    6.638332    0.000000    1.000000
   233  Na    c    -4.473148   -0.009911   -6.638332    0.000000    1.000000
   234  Na    c    -4.478445   -4.478445   -2.203174    0.000000    1.000000
   235  Na    c    -4.478445   -4.478445    2.203174    0.000000    1.000000
   236  Cl    c     6.609004   10.993867   -2.210637    0.000000    1.485000
   237  Cl    c     6.609004   10.993867    2.210637    0.000000    1.485000
   238  Cl    c    10.993867    6.609004   -2.210637    0.000000    1.485000
   239  Cl    c    10.993867    6.609004    2.210637    0.000000    1.485000
   240  Na    c    11.004782    4.397514    4.474699    0.000000    1.000000
   241  Na    c    11.004782    4.397514   -4.474699    0.000000    1.000000
   242  Na    c     4.397514   11.004782    4.474699    0.000000    1.000000
   243  Na    c     4.397514   11.004782   -4.474699    0.000000    1.000000
   244  Na    c     6.601144    4.399489    8.859753    0.000000    1.000000
   245  Na    c     6.601144    4.399489   -8.859753    0.000000    1.000000
   246  Na    c     4.399489    6.601144    8.859753    0.000000    1.000000
   247  Na    c     4.399489    6.601144   -8.859753    0.000000    1.000000
   248  Na    c    11.019628    0.019552    4.415574    0.000000    1.000000
   249  Na    c    11.019628    0.019552   -4.415574    0.000000    1.000000
   250  Na    c     0.019552   11.019628    4.415574    0.000000    1.000000
   251  Na    c     0.019552   11.019628   -4.415574    0.000000    1.000000
   252  Cl    c    11.006050   -2.199607   -2.204089    0.000000    1.485000
   253  Cl    c    11.006050   -2.199607    2.204089    0.000000    1.485000
   254  Cl    c    -2.199607   11.006050   -2.204089    0.000000    1.485000
   255  Cl    c    -2.199607   11.006050    2.204089    0.000000    1.485000
   256  Na    c     6.616341    0.019287    8.841845    0.000000    1.000000
   257  Na    c     6.616341    0.019287   -8.841845    0.000000    1.000000
   258  Na    c     0.019287    6.616341    8.841845    0.000000    1.000000
   259  Na    c     0.019287    6.616341   -8.841845    0.000000    1.000000
   260  Na    c    -2.216464    4.414812    8.870135    0.000000    1.000000
   261  Na    c    -2.216464    4.414812   -8.870135    0.000000    1.000000
   262  Na    c     4.414812   -2.216464    8.870135    0.000000    1.000000
   263  Na    c     4.414812   -2.216464   -8.870135    0.000000    1.000000
   264  Cl    c     6.592274   -6.602186   -2.197462    0.000000    1.485000
   265  Cl    c     6.592274   -6.602186    2.197462    0.000000    1.485000
   266  Cl    c    -6.602186    6.592274   -2.197462    0.000000    1.485000
   267  Cl    c    -6.602186    6.592274    2.197462    0.000000    1.485000
   268  Na    c    -6.629113    4.410947    4.418405    0.000000    1.000000
   269  Na    c    -6.629113    4.410947   -4.418405    0.000000    1.000000
   270  Na    c     4.410947   -6.629113    4.418405    0.000000    1.000000
   271  Na    c     4.410947   -6.629113   -4.418405    0.000000    1.000000
   272  Na    c    -2.215969    0.004420    8.879758    0.000000    1.000000
   273  Na    c    -2.215969    0.004420   -8.879758    0.000000    1.000000
   274  Na    c     0.004420   -2.215969    8.879758    0.000000    1.000000
   275  Na    c     0.004420   -2.215969   -8.879758    0.000000    1.000000
   276  Na    c    -6.636293    0.011845    4.409062    0.000000    1.000000
   277  Na    c    -6.636293    0.011845   -4.409062    0.000000    1.000000
   278  Na    c     0.011845   -6.636293    4.409062    0.000000    1.000000
   279  Na    c     0.011845   -6.636293   -4.409062    0.000000    1.000000
   280  Cl    c    -2.228277   -6.580458   -2.208923    0.000000    1.485000
   281  Cl    c    -2.228277   -6.580458    2.208923    0.000000    1.485000
   282  Cl    c    -6.580458   -2.228277   -2.208923    0.000000    1.485000
   283  Cl    c    -6.580458   -2.228277    2.208923    0.000000    1.485000
   284  O     c     8.790050    8.790050    4.393498    0.000000    0.183000
   285  O     c     8.790050    8.790050   -4.393498    0.000000    0.183000
   286  O     c     8.822555   -4.423213    4.413055    0.000000    0.183000
   287  O     c     8.822555   -4.423213   -4.413055    0.000000    0.183000
   288  O     c    -4.423213    8.822555    4.413055    0.000000    0.183000
   289  O     c    -4.423213    8.822555   -4.413055    0.000000    0.183000
   290  O     c    -4.408272   -4.408272    4.390837    0.000000    0.183000
   291  O     c    -4.408272   -4.408272   -4.390837    0.000000    0.183000
   292  Na    c    11.034543    8.840298    0.000000    0.000000    1.000000
   293  Na    c     8.840298   11.034543    0.000000    0.000000    1.000000
   294  Na    c     2.201369   13.293325    0.000000    0.000000    1.000000
   295  Na    c    13.293325    2.201369    0.000000    0.000000    1.000000
   296  Cl    c     2.201156   10.984616    6.578119    0.000000    1.485000
   297  Cl    c     2.201156   10.984616   -6.578119    0.000000    1.485000
   298  Cl    c    10.984616    2.201156    6.578119    0.000000    1.485000
   299  Cl    c    10.984616    2.201156   -6.578119    0.000000    1.485000
   300  Na    c     2.205709    8.833803    8.806608    0.000000    1.000000
   301  Na    c     2.205709    8.833803   -8.806608    0.000000    1.000000
   302  Na    c     8.833803    2.205709    8.806608    0.000000    1.000000
   303  Na    c     8.833803    2.205709   -8.806608    0.000000    1.000000
   304  Na    c    11.030865   -4.515553    0.000000    0.000000    1.000000
   305  Na    c    -4.515553   11.030865    0.000000    0.000000    1.000000
   306  Cl    c     2.209452    2.209452   11.002523    0.000000    1.485000
   307  Cl    c     2.209452    2.209452  -11.002523    0.000000    1.485000
   308  Na    c    -6.615770    8.758894    0.000000    0.000000    1.000000
   309  Na    c     8.758894   -6.615770    0.000000    0.000000    1.000000
   310  Na    c     2.206371   -4.406643    8.832464    0.000000    1.000000
   311  Na    c     2.206371   -4.406643   -8.832464    0.000000    1.000000
   312  Na    c    -4.406643    2.206371    8.832464    0.000000    1.000000
   313  Na    c    -4.406643    2.206371   -8.832464    0.000000    1.000000
   314  Cl    c     2.189136   -6.596994    6.593724    0.000000    1.485000
   315  Cl    c     2.189136   -6.596994   -6.593724    0.000000    1.485000
   316  Cl    c    -6.596994    2.189136    6.593724    0.000000    1.485000
   317  Cl    c    -6.596994    2.189136   -6.593724    0.000000    1.485000
   318  Na    c     2.209585   -8.802370    0.000000    0.000000    1.000000
   319  Na    c    -8.802370    2.209585    0.000000    0.000000    1.000000
   320  Na    c    -6.624891   -4.403250    0.000000    0.000000    1.000000
   321  Na    c    -4.403250   -6.624891    0.000000    0.000000    1.000000
   322  O     c     4.401450   13.243357    0.000000    0.000000    0.183000
   323  O     c    13.243357    4.401450    0.000000    0.000000    0.183000
   324  O     c     4.403885    8.794379    8.798342    0.000000    0.183000
   325  O     c     4.403885    8.794379   -8.798342    0.000000    0.183000
   326  O     c     8.794379    4.403885    8.798342    0.000000    0.183000
   327  O     c     8.794379    4.403885   -8.798342    0.000000    0.183000
   328  O     c    13.228278    0.005152    0.000000    0.000000    0.183000
   329  O     c     0.005152   13.228278    0.000000    0.000000    0.183000
   330  O     c     8.810219    0.000962    8.806144    0.000000    0.183000
   331  O     c     8.810219    0.000962   -8.806144    0.000000    0.183000
   332  O     c     0.000962    8.810219    8.806144    0.000000    0.183000
   333  O     c     0.000962    8.810219   -8.806144    0.000000    0.183000
   334  O     c     4.408586   -4.410813    8.814055    0.000000    0.183000
   335  O     c     4.408586   -4.410813   -8.814055    0.000000    0.183000
   336  O     c    -4.410813    4.408586    8.814055    0.000000    0.183000
   337  O     c    -4.410813    4.408586   -8.814055    0.000000    0.183000
   338  O     c     4.418695   -8.821824    0.000000    0.000000    0.183000
   339  O     c    -8.821824    4.418695    0.000000    0.000000    0.183000
   340  O     c    -0.002380   -4.409196    8.814792    0.000000    0.183000
   341  O     c    -0.002380   -4.409196   -8.814792    0.000000    0.183000
   342  O     c    -4.409196   -0.002380    8.814792    0.000000    0.183000
   343  O     c    -4.409196   -0.002380   -8.814792    0.000000    0.183000
   344  O     c    -0.013082   -8.842320    0.000000    0.000000    0.183000
   345  O     c    -8.842320   -0.013082    0.000000    0.000000    0.183000
   346  Na    c     8.815175    8.815175    6.610911    0.000000    1.000000
   347  Na    c     8.815175    8.815175   -6.610911    0.000000    1.000000
   348  Na    c     4.417302   13.249167   -2.212643    0.000000    1.000000
   349  Na    c     4.417302   13.249167    2.212643    0.000000    1.000000
   350  Na    c    13.249167    4.417302   -2.212643    0.000000    1.000000
   351  Na    c    13.249167    4.417302    2.212643    0.000000    1.000000
   352  Na    c    13.246299   -0.013561   -2.207808    0.000000    1.000000
   353  Na    c    13.246299   -0.013561    2.207808    0.000000    1.000000
   354  Na    c    -0.013561   13.246299   -2.207808    0.000000    1.000000
   355  Na    c    -0.013561   13.246299    2.207808    0.000000    1.000000
   356  Na    c     4.385507    4.385507   11.011585    0.000000    1.000000
   357  Na    c     4.385507    4.385507  -11.011585    0.000000    1.000000
   358  Na    c     4.436073    0.020151   11.029441    0.000000    1.000000
   359  Na    c     4.436073    0.020151  -11.029441    0.000000    1.000000
   360  Na    c     0.020151    4.436073   11.029441    0.000000    1.000000
   361  Na    c     0.020151    4.436073  -11.029441    0.000000    1.000000
[...]
    121 y          0.000000     -0.014549    -0.014549    Cartesian    0.00
    121 z         11.014756     11.056009     0.041254    Cartesian    0.37
    122 x          4.405902      4.404182    -0.001720    Cartesian   -0.04
    122 y         -8.811805     -8.840982    -0.029178    Cartesian    0.33
    122 z         -2.202951     -2.207947    -0.004996    Cartesian    0.23
    123 x          0.000000      0.017970     0.017970    Cartesian    0.00
    123 y         -8.811805     -8.863297    -0.051492    Cartesian    0.58
    123 z         -2.202951     -2.209185    -0.006234    Cartesian    0.28
    124 x         -4.405902     -4.400496     0.005406    Cartesian   -0.12
    124 y         -4.405902     -4.400496     0.005406    Cartesian   -0.12
    124 z          6.608853      6.621569     0.012715    Cartesian    0.19
    125 x          6.608853      6.613369     0.004516    Cartesian    0.07
    125 y         13.217707     13.257980     0.040273    Cartesian    0.30
    125 z          0.000000      0.000000     0.000000    Cartesian    0.00
    126 x         11.014756     11.015585     0.000829    Cartesian    0.01
    126 y          8.811805      8.809500    -0.002305    Cartesian   -0.03
    126 z          4.405902      4.418444     0.012541    Cartesian    0.28
    127 x          6.608853      6.593056    -0.015797    Cartesian   -0.24
    127 y         11.014756     10.975041    -0.039714    Cartesian   -0.36
    127 z          6.608853      6.573241    -0.035613    Cartesian   -0.54
    128 x          2.202951      2.202482    -0.000469    Cartesian   -0.02
    128 y         13.217707     13.251227     0.033521    Cartesian    0.25
    128 z          4.405902      4.410707     0.004805    Cartesian    0.11
    129 x          6.608853      6.608237    -0.000616    Cartesian   -0.01
    129 y          8.811805      8.826900     0.015096    Cartesian    0.17
    129 z          8.811805      8.828699     0.016894    Cartesian    0.19
    130 x         -2.202951     -2.208625    -0.005674    Cartesian    0.26
    130 y         13.217707     13.236623     0.018916    Cartesian    0.14
    130 z          0.000000      0.000000     0.000000    Cartesian    0.00
    131 x          2.202951      2.203624     0.000673    Cartesian    0.03
    131 y          6.608853      6.595214    -0.013640    Cartesian   -0.21
    131 z         11.014756     10.980020    -0.034736    Cartesian   -0.32
    132 x         11.014756     10.979986    -0.034770    Cartesian   -0.32
    132 y         -2.202951     -2.184285     0.018666    Cartesian   -0.85
    132 z          6.608853      6.588379    -0.020474    Cartesian   -0.31
    133 x         -2.202951     -2.206023    -0.003072    Cartesian    0.14
    133 y          8.811805      8.823716     0.011912    Cartesian    0.14
    133 z          8.811805      8.842123     0.030318    Cartesian    0.34
    134 x         11.014756     11.026120     0.011364    Cartesian    0.10
    134 y         -4.405902     -4.427965    -0.022063    Cartesian    0.50
    134 z          4.405902      4.415853     0.009951    Cartesian    0.23
    135 x          6.608853      6.615319     0.006466    Cartesian    0.10
    135 y         -4.405902     -4.423499    -0.017597    Cartesian    0.40
    135 z          8.811805      8.837093     0.025289    Cartesian    0.29
    136 x         -6.608853     -6.621650    -0.012797    Cartesian    0.19
    136 y          8.811805      8.849484     0.037680    Cartesian    0.43
    136 z          4.405902      4.428485     0.022583    Cartesian    0.51
    137 x          2.202951      2.202052    -0.000899    Cartesian   -0.04
    137 y         -2.202951     -2.208573    -0.005622    Cartesian    0.26
    137 z         11.014756     10.986897    -0.027859    Cartesian   -0.25
    138 x          6.608853      6.581419    -0.027434    Cartesian   -0.42
    138 y         -6.608853     -6.585526     0.023328    Cartesian   -0.35
    138 z          6.608853      6.587434    -0.021419    Cartesian   -0.32
    139 x          6.608853      6.623411     0.014558    Cartesian    0.22
    139 y         -8.811805     -8.907257    -0.095452    Cartesian    1.08
    139 z          0.000000      0.000000     0.000000    Cartesian    0.00
    140 x          2.202951      2.206102     0.003151    Cartesian    0.14
    140 y         -8.811805     -8.846711    -0.034907    Cartesian    0.40
    140 z          4.405902      4.426439     0.020537    Cartesian    0.47
    141 x         -2.202951     -2.209741    -0.006789    Cartesian    0.31
    141 y         -4.405902     -4.409552    -0.003650    Cartesian    0.08
    141 z          8.811805      8.840851     0.029046    Cartesian    0.33
    142 x         -2.202951     -2.196957     0.005994    Cartesian   -0.27
    142 y         -6.608853     -6.590438     0.018416    Cartesian   -0.28
    142 z          6.608853      6.582397    -0.026457    Cartesian   -0.40
    143 x         -2.202951     -2.219011    -0.016060    Cartesian    0.73
    143 y         -8.811805     -8.911404    -0.099599    Cartesian    1.13
    143 z          0.000000      0.000000     0.000000    Cartesian    0.00
    144 x         -6.608853     -6.624727    -0.015874    Cartesian    0.24
    144 y         -4.405902     -4.435707    -0.029805    Cartesian    0.68
    144 z          4.405902      4.428725     0.022822    Cartesian    0.52
    145 x          2.792480      2.792480     0.000000    Cartesian    0.00
    145 y          2.792480      2.792480     0.000000    Cartesian    0.00
    145 z          0.000000      0.000000     0.000000    Cartesian    0.00
    146 x          2.202951      1.808202    -0.394749    Cartesian  -17.92
    146 y          2.202951      1.808202    -0.394749    Cartesian  -17.92
    146 z         -2.202951     -2.707293    -0.504342    Cartesian   22.89
    147 x          4.405902      4.551777     0.145874    Cartesian    3.31
    147 y          0.000000     -0.232669    -0.232669    Cartesian    0.00
    147 z          0.000000      0.000000     0.000000    Cartesian    0.00
    148 x          2.202951      2.424295     0.221344    Cartesian   10.05
    148 y          6.608853      6.420552    -0.188301    Cartesian   -2.85
    148 z         -2.202951     -1.962139     0.240812    Cartesian  -10.93
    149 x          2.202951      1.887111    -0.315840    Cartesian  -14.34
    149 y         -2.202951     -1.907381     0.295570    Cartesian  -13.42
    149 z         -2.202951     -1.952688     0.250263    Cartesian  -11.36
    150 x          4.405902      4.266173    -0.139729    Cartesian   -3.17
    150 y          4.405902      4.266173    -0.139729    Cartesian   -3.17
    150 z          4.405902      4.321462    -0.084441    Cartesian   -1.92
    151 x          4.405902      4.415134     0.009231    Cartesian    0.21
    151 y          0.000000     -0.089428    -0.089428    Cartesian    0.00
    151 z          4.405902      4.450573     0.044671    Cartesian    1.01
    152 x          0.000000     -0.101483    -0.101483    Cartesian    0.00
    152 y          0.000000     -0.101483    -0.101483    Cartesian    0.00
    152 z          4.405902      4.667257     0.261355    Cartesian    5.93
    153 x          6.608853      6.416280    -0.192573    Cartesian   -2.91
    153 y          6.608853      6.416280    -0.192573    Cartesian   -2.91
    153 z         -2.202951     -1.897624     0.305327    Cartesian  -13.86
    154 x          2.202951      2.172835    -0.030116    Cartesian   -1.37
    154 y          2.202951      2.172835    -0.030116    Cartesian   -1.37
    154 z          6.608853      6.692451     0.083597    Cartesian    1.26
    155 x          6.608853      6.622575     0.013721    Cartesian    0.21
    155 y         -2.202951     -2.274016    -0.071065    Cartesian    3.23
    155 z         -2.202951     -2.282017    -0.079066    Cartesian    3.59
    156 x         -2.202951     -1.907888     0.295063    Cartesian  -13.39
    156 y         -2.202951     -1.907888     0.295063    Cartesian  -13.39
    156 z         -2.202951     -1.845662     0.357289    Cartesian  -16.22
    157 x          4.405902      4.385363    -0.020540    Cartesian   -0.47
    157 y          8.811805      8.935508     0.123703    Cartesian    1.40
    157 z          0.000000      0.000000     0.000000    Cartesian    0.00
    158 x          8.811805      8.846435     0.034631    Cartesian    0.39
    158 y          0.000000     -0.054171    -0.054171    Cartesian    0.00
    158 z          0.000000      0.000000     0.000000    Cartesian    0.00
    159 x          4.405902      4.374650    -0.031252    Cartesian   -0.71
    159 y         -4.405902     -4.462729    -0.056827    Cartesian    1.29
    159 z          0.000000      0.000000     0.000000    Cartesian    0.00
    160 x          0.000000      0.005001     0.005001    Cartesian    0.00
    160 y         -4.405902     -4.560802    -0.154900    Cartesian    3.52
    160 z          0.000000      0.000000     0.000000    Cartesian    0.00
    161 x          2.202951      2.156696    -0.046255    Cartesian   -2.10
    161 y          6.608853      6.564119    -0.044735    Cartesian   -0.68
    161 z          6.608853      6.561539    -0.047315    Cartesian   -0.72
    162 x          2.202951      2.223642     0.020690    Cartesian    0.94
    162 y         -2.202951     -2.258280    -0.055329    Cartesian    2.51
    162 z          6.608853      6.599902    -0.008951    Cartesian   -0.14
    163 x          4.405902      4.390692    -0.015210    Cartesian   -0.35
    163 y          8.811805      8.759616    -0.052188    Cartesian   -0.59
    163 z          4.405902      4.364499    -0.041403    Cartesian   -0.94
    164 x          8.811805      8.796418    -0.015386    Cartesian   -0.17
    164 y          0.000000      0.003733     0.003733    Cartesian    0.00
    164 z          4.405902      4.392349    -0.013553    Cartesian   -0.31
    165 x          4.405902      4.389587    -0.016315    Cartesian   -0.37
    165 y         -4.405902     -4.425657    -0.019755    Cartesian    0.45
    165 z          4.405902      4.397638    -0.008264    Cartesian   -0.19
    166 x          0.000000     -0.012254    -0.012254    Cartesian    0.00
    166 y         -4.405902     -4.431438    -0.025536    Cartesian    0.58
    166 z          4.405902      4.417570     0.011667    Cartesian    0.26
    167 x          2.202951      2.176626    -0.026325    Cartesian   -1.20
    167 y         11.014756     10.987756    -0.027000    Cartesian   -0.25
    167 z         -2.202951     -2.203997    -0.001045    Cartesian    0.05
    168 x          6.608853      6.580105    -0.028749    Cartesian   -0.44
    168 y          6.608853      6.580105    -0.028749    Cartesian   -0.44
    168 z          6.608853      6.547918    -0.060935    Cartesian   -0.92
    169 x          6.608853      6.589525    -0.019329    Cartesian   -0.29
    169 y         -2.202951     -2.214770    -0.011818    Cartesian    0.54
    169 z          6.608853      6.592067    -0.016786    Cartesian   -0.25
    170 x          2.202951      2.195517    -0.007434    Cartesian   -0.34
    170 y         -6.608853     -6.608181     0.000673    Cartesian   -0.01
    170 z         -2.202951     -2.231511    -0.028560    Cartesian    1.30
    171 x         -2.202951     -2.274174    -0.071223    Cartesian    3.23
    171 y         -2.202951     -2.274174    -0.071223    Cartesian    3.23
    171 z          6.608853      6.611092     0.002238    Cartesian    0.03
    172 x          8.811805      8.826685     0.014880    Cartesian    0.17
    172 y          8.811805      8.826685     0.014880    Cartesian    0.17
    172 z          0.000000      0.000000     0.000000    Cartesian    0.00
    173 x          4.405902      4.410409     0.004507    Cartesian    0.10
    173 y          4.405902      4.410409     0.004507    Cartesian    0.10
    173 z          8.811805      8.783696    -0.028109    Cartesian   -0.32
    174 x          4.405902      4.410958     0.005056    Cartesian    0.11
    174 y          0.000000     -0.013299    -0.013299    Cartesian    0.00
    174 z          8.811805      8.830859     0.019054    Cartesian    0.22
    175 x          8.811805      8.821542     0.009737    Cartesian    0.11
    175 y         -4.405902     -4.410859    -0.004957    Cartesian    0.11
    175 z          0.000000      0.000000     0.000000    Cartesian    0.00
    176 x          0.000000     -0.009376    -0.009376    Cartesian    0.00
    176 y          0.000000     -0.009376    -0.009376    Cartesian    0.00
    176 z          8.811805      8.891213     0.079408    Cartesian    0.90
    177 x         -4.405902     -4.405275     0.000627    Cartesian   -0.01
    177 y         -4.405902     -4.405275     0.000627    Cartesian   -0.01
    177 z          0.000000      0.000000     0.000000    Cartesian    0.00
    178 x          6.608853      6.607385    -0.001469    Cartesian   -0.02
    178 y         11.014756     10.987844    -0.026912    Cartesian   -0.24
    178 z         -2.202951     -2.209339    -0.006388    Cartesian    0.29
    179 x         11.014756     10.997790    -0.016965    Cartesian   -0.15
    179 y         -2.202951     -2.196638     0.006313    Cartesian   -0.29
    179 z         -2.202951     -2.200460     0.002492    Cartesian   -0.11
    180 x          6.608853      6.584471    -0.024382    Cartesian   -0.37
    180 y         -6.608853     -6.597633     0.011220    Cartesian   -0.17
    180 z         -2.202951     -2.194806     0.008145    Cartesian   -0.37
    181 x         -2.202951     -2.227941    -0.024990    Cartesian    1.13
    181 y         -6.608853     -6.574395     0.034458    Cartesian   -0.52
    181 z         -2.202951     -2.207346    -0.004395    Cartesian    0.20
    182 x          8.811805      8.790045    -0.021760    Cartesian   -0.25
    182 y          8.811805      8.790045    -0.021760    Cartesian   -0.25
    182 z          4.405902      4.393494    -0.012408    Cartesian   -0.28
    183 x          8.811805      8.822556     0.010752    Cartesian    0.12
    183 y         -4.405902     -4.423221    -0.017319    Cartesian    0.39
    183 z          4.405902      4.413057     0.007154    Cartesian    0.16
    184 x         -4.405902     -4.408280    -0.002377    Cartesian    0.05
    184 y         -4.405902     -4.408280    -0.002377    Cartesian    0.05
    184 z          4.405902      4.390834    -0.015068    Cartesian   -0.34
    185 x          2.202951      2.199673    -0.003278    Cartesian   -0.15
    185 y         11.014756     10.981716    -0.033040    Cartesian   -0.30
    185 z          6.608853      6.572713    -0.036140    Cartesian   -0.55
    186 x          2.202951      2.208732     0.005781    Cartesian    0.26
    186 y          2.202951      2.208732     0.005781    Cartesian    0.26
    186 z         11.014756     10.998786    -0.015970    Cartesian   -0.14
    187 x          2.202951      2.186814    -0.016138    Cartesian   -0.73
    187 y         -6.608853     -6.591992     0.016861    Cartesian   -0.26
    187 z          6.608853      6.589017    -0.019837    Cartesian   -0.30
    188 x          4.405902      4.401434    -0.004469    Cartesian   -0.10
    188 y         13.217707     13.243344     0.025637    Cartesian    0.19
    188 z          0.000000      0.000000     0.000000    Cartesian    0.00
    189 x          4.405902      4.403881    -0.002021    Cartesian   -0.05
    189 y          8.811805      8.794343    -0.017462    Cartesian   -0.20
    189 z          8.811805      8.798364    -0.013440    Cartesian   -0.15
    190 x         13.217707     13.228277     0.010570    Cartesian    0.08
    190 y          0.000000      0.005175     0.005175    Cartesian    0.00
    190 z          0.000000      0.000000     0.000000    Cartesian    0.00
    191 x          8.811805      8.810217    -0.001587    Cartesian   -0.02
    191 y          0.000000      0.000962     0.000962    Cartesian    0.00
    191 z          8.811805      8.806142    -0.005662    Cartesian   -0.06
    192 x          4.405902      4.408584     0.002681    Cartesian    0.06
    192 y         -4.405902     -4.410816    -0.004914    Cartesian    0.11
    192 z          8.811805      8.814059     0.002254    Cartesian    0.03
    193 x          4.405902      4.418726     0.012824    Cartesian    0.29
    193 y         -8.811805     -8.821824    -0.010019    Cartesian    0.11
    193 z          0.000000      0.000000     0.000000    Cartesian    0.00
    194 x          0.000000     -0.002381    -0.002381    Cartesian    0.00
    194 y         -4.405902     -4.409202    -0.003299    Cartesian    0.07
    194 z          8.811805      8.814784     0.002979    Cartesian    0.03
    195 x          0.000000     -0.013117    -0.013117    Cartesian    0.00
    195 y         -8.811805     -8.842302    -0.030497    Cartesian    0.35
    195 z          0.000000      0.000000     0.000000    Cartesian    0.00
    196 x          6.608853      6.592504    -0.016349    Cartesian   -0.25
    196 y         11.014756     10.971849    -0.042907    Cartesian   -0.39
    196 z          6.608853      6.567391    -0.041463    Cartesian   -0.63
    197 x          2.202951      2.202881    -0.000070    Cartesian   -0.00
    197 y          6.608853      6.593314    -0.015540    Cartesian   -0.24
    197 z         11.014756     10.975823    -0.038933    Cartesian   -0.35
    198 x         11.014756     10.975036    -0.039720    Cartesian   -0.36
    198 y         -2.202951     -2.181710     0.021241    Cartesian   -0.96
    198 z          6.608853      6.585965    -0.022889    Cartesian   -0.35
    199 x          2.202951      2.200717    -0.002235    Cartesian   -0.10
    199 y         -2.202951     -2.208657    -0.005705    Cartesian    0.26
    199 z         11.014756     10.980280    -0.034476    Cartesian   -0.31
    200 x          6.608853      6.576722    -0.032131    Cartesian   -0.49
    200 y         -6.608853     -6.581503     0.027351    Cartesian   -0.41
    200 z          6.608853      6.583976    -0.024877    Cartesian   -0.38
    201 x         -2.202951     -2.194883     0.008068    Cartesian   -0.37
    201 y         -6.608853     -6.583939     0.024914    Cartesian   -0.38
    201 z          6.608853      6.575900    -0.032953    Cartesian   -0.50
--------------------------------------------------------------------------------


  Time to end of optimisation  =       59.3355 seconds


  Peak dynamic memory used =      90.31 MB 


  Timing analysis for GULP :

--------------------------------------------------------------------------------
  Task / Subroutine                                          Time (Seconds)
--------------------------------------------------------------------------------
  Calculation of reciprocal space energy and derivatives          0.0007
  Calculation of reciprocal space energy using symmetry           0.0013
  Calculation of real space energy and derivatives                0.0040
  Calculation of real space energy using symmetry                 0.0123
  Calculation for region 1 energy and derivatives (2-b)          31.9072
  Calculation for region 2a energy                               22.9449
  Calculation for region 2b energy                                0.0161
  Calculation and manipulation of Hessian matrix                  3.8382
  Calculation of matrix inversion                                 0.3388
  Symmetry generation of equivalent positions                     0.0050
--------------------------------------------------------------------------------
  Total CPU time                                                 59.3356
--------------------------------------------------------------------------------


  Dump file written as Na3OCl.grs


  Job Finished at 15:17.20 19th January    2021                               

