********************************************************************************
*                       GENERAL UTILITY LATTICE PROGRAM                        *
*                                 Julian Gale                                  *
*                       Curtin Institute for Computation                       *
*                    School of Molecular and Life Sciences                     *
*                    Curtin University, Western Australia                      *
********************************************************************************
* Version = 5.2.0 * Last modified =  10th September 2020                       *
********************************************************************************
*  optimise     - perform optimisation run                                     *
*  conp         - constant pressure calculation                                *
*  property     - calculate properties for final geometry                      *
*  defect       - perform defect calculation after bulk run                    *
*  compare      - compare initial and final structures                         *
********************************************************************************

  Job Started  at 15:17.36 19th January    2021                               

  Number of CPUs =     1


  Total number of configurations input =      1

********************************************************************************
*  Input for Configuration =   1                                               *
********************************************************************************

  Formula = OClNa3                                                      

  Number of irreducible atoms/shells =       5


  Total number atoms/shells =       7

  Dimensionality = 3               :  Bulk   


  Symmetry :

  Crystal family                   :  Cubic       
  Crystal class  (Groth - 1921)    :  Cubic Hexakisoctahedral              

  Space group (centrosymmetric)    :  P M 3 M         

  Patterson group                  :  P m -3 m 

  Cartesian lattice vectors (Angstroms) :

        4.504000    0.000000    0.000000
        0.000000    4.504000    0.000000
        0.000000    0.000000    4.504000

  Cell parameters (Angstroms/Degrees):

  a =       4.5040    alpha =  90.0000
  b =       4.5040    beta  =  90.0000
  c =       4.5040    gamma =  90.0000

  Initial cell volume =          91.368216 Angs**3

  Temperature of configuration =   0.00     K 

  Pressure of configuration =         0.000 GPa 

  Fractional coordinates of asymmetric unit :

--------------------------------------------------------------------------------
   No.  Atomic       x           y          z         Charge      Occupancy
        Label      (Frac)      (Frac)     (Frac)        (e)         (Frac)  
--------------------------------------------------------------------------------
      1 O     c    0.000000    0.000000    0.000000     0.18300    1.000000    
      2 Cl    c    0.500000    0.500000    0.500000     1.48500    1.000000    
      3 Na    c    0.500000    0.000000    0.000000     1.00000    1.000000    
      4 O     s    0.000000    0.000000    0.000000    -2.18300    1.000000    
      5 Cl    s    0.500000    0.500000    0.500000    -2.48500    1.000000    
--------------------------------------------------------------------------------


  Constraints : 

--------------------------------------------------------------------------------
  Constraint no.      Unconstrained     Constrained    Coefficient    Offset
                         Variable         Variable
--------------------------------------------------------------------------------
           1              Strain 1        Strain 2       1.00000      0.0000
           2              Strain 1        Strain 3       1.00000      0.0000
--------------------------------------------------------------------------------


********************************************************************************
*  General input information                                                   *
********************************************************************************

  Species output for all configurations : 

--------------------------------------------------------------------------------
  Species    Type    Atomic    Atomic    Charge       Radii (Angs)     Library
                     Number     Mass       (e)     Cova   Ionic  VDW   Symbol
--------------------------------------------------------------------------------
    Na       Core       11      22.99   1.000000   0.970  0.000  2.300          
    O        Core        8      16.00   0.183000   0.730  0.000  1.360          
    O        Shell       8       0.00  -2.183000   0.730  0.000  1.360          
    Cl       Core       17      35.45   1.485000   0.990  0.000  1.650          
    Cl       Shell      17       0.00  -2.485000   0.990  0.000  1.650          
    Mg       Core       12      24.31   0.415000   1.100  0.000  0.000          
    Mg       Shell      12       0.00   1.585000   1.100  0.000  0.000          
    Ca       Core       20      40.08  -1.135000   0.990  0.000  0.000          
    Ca       Shell      20       0.00   3.135000   0.990  0.000  0.000          
    Sr       Core       38      87.62  -1.251000   1.120  0.000  0.000          
    Sr       Shell      38       0.00   3.251000   1.120  0.000  0.000          
    Ba       Core       56     137.33  -7.203000   1.340  0.000  0.000          
    Ba       Shell      56       0.00   9.203000   1.340  0.000  0.000          
--------------------------------------------------------------------------------


  Lattice summation method               =    Ewald          (3-D)
                                         =    Parry          (2-D)
                                         =    Saunders et al (1-D)
  Accuracy factor for lattice sums       =   12.000


  Analytic derivatives to be used

  Time limit = Infinity

  Maximum range for interatomic potentials =    100000.000000 Angstroms

  General interatomic potentials :

--------------------------------------------------------------------------------
Atom  Types   Potential      Parameter       Value         Units   Cutoffs(Ang)
  1     2                                                            Min /  Max 
--------------------------------------------------------------------------------
O    c O    s Spring (c-s)  Spring k 2       593.71600    eV*Ang^-2 0.000  0.800
                            Spring k 4       0.0000000    eV*Ang^-4 
--------------------------------------------------------------------------------
Cl   c Cl   s Spring (c-s)  Spring k 2       29.380000    eV*Ang^-2 0.000  0.800
                            Spring k 4       0.0000000    eV*Ang^-4 
--------------------------------------------------------------------------------
Mg   c Mg   s Spring (c-s)  Spring k 2       361.60000    eV*Ang^-2 0.000  0.800
                            Spring k 4       0.0000000    eV*Ang^-4 
--------------------------------------------------------------------------------
Ca   c Ca   s Spring (c-s)  Spring k 2       110.20000    eV*Ang^-2 0.000  0.800
                            Spring k 4       0.0000000    eV*Ang^-4 
--------------------------------------------------------------------------------
Sr   c Sr   s Spring (c-s)  Spring k 2       71.700000    eV*Ang^-2 0.000  0.800
                            Spring k 4       0.0000000    eV*Ang^-4 
--------------------------------------------------------------------------------
Ba   c Ba   s Spring (c-s)  Spring k 2       495.20000    eV*Ang^-2 0.000  0.800
                            Spring k 4       0.0000000    eV*Ang^-4 
--------------------------------------------------------------------------------
Na   c Na   c Buckingham    Buckingham A     1788.1900    eV        0.000 12.000
                            Buckingham rho  0.15900000    Ang       
                            Buckingham C     0.0000000    eV*Ang^6  
--------------------------------------------------------------------------------
Na   c O    s Buckingham    Buckingham A     588.38000    eV        0.000 12.000
                            Buckingham rho  0.33800000    Ang       
                            Buckingham C     0.0000000    eV*Ang^6  
--------------------------------------------------------------------------------
Na   c Cl   s Buckingham    Buckingham A     1170.4100    eV        0.000 12.000
                            Buckingham rho  0.31500000    Ang       
                            Buckingham C     0.0000000    eV*Ang^6  
--------------------------------------------------------------------------------
O    s O    s Buckingham    Buckingham A     22764.300    eV        0.000 12.000
                            Buckingham rho  0.14900000    Ang       
                            Buckingham C     13.190000    eV*Ang^6  
--------------------------------------------------------------------------------
O    s Cl   s Buckingham    Buckingham A     8286.9100    eV        0.000 12.000
                            Buckingham rho  0.25900000    Ang       
                            Buckingham C     62.200000    eV*Ang^6  
--------------------------------------------------------------------------------
Cl   s Cl   s Buckingham    Buckingham A     1227.2000    eV        0.000 12.000
                            Buckingham rho  0.32100000    Ang       
                            Buckingham C     14.530000    eV*Ang^6  
--------------------------------------------------------------------------------
O    s Mg   s Buckingham    Buckingham A     1428.5000    eV        0.000 12.000
                            Buckingham rho  0.29450000    Ang       
                            Buckingham C     0.0000000    eV*Ang^6  
--------------------------------------------------------------------------------
Mg   s Cl   s Buckingham    Buckingham A     4914.5400    eV        0.000 12.000
                            Buckingham rho  0.25700000    Ang       
                            Buckingham C     0.0000000    eV*Ang^6  
--------------------------------------------------------------------------------
O    s Ca   s Buckingham    Buckingham A     1090.4000    eV        0.000 12.000
                            Buckingham rho  0.34370000    Ang       
                            Buckingham C     0.0000000    eV*Ang^6  
--------------------------------------------------------------------------------
Cl   s Ca   s Buckingham    Buckingham A     2302.0000    eV        0.000 12.000
                            Buckingham rho  0.34020000    Ang       
                            Buckingham C     0.0000000    eV*Ang^6  
--------------------------------------------------------------------------------
O    s Sr   s Buckingham    Buckingham A     959.10000    eV        0.000 12.000
                            Buckingham rho  0.37210000    Ang       
                            Buckingham C     0.0000000    eV*Ang^6  
--------------------------------------------------------------------------------
Cl   s Sr   s Buckingham    Buckingham A     2191.0900    eV        0.000 12.000
                            Buckingham rho  0.34570000    Ang       
                            Buckingham C     0.0000000    eV*Ang^6  
--------------------------------------------------------------------------------
O    s Ba   s Buckingham    Buckingham A     905.70000    eV        0.000 12.000
                            Buckingham rho  0.39760000    Ang       
                            Buckingham C     0.0000000    eV*Ang^6  
--------------------------------------------------------------------------------
Cl   s Ba   s Buckingham    Buckingham A     2704.5500    eV        0.000 12.000
                            Buckingham rho  0.35280000    Ang       
                            Buckingham C     0.0000000    eV*Ang^6  
--------------------------------------------------------------------------------

********************************************************************************
*  Output for configuration   1                                                *
********************************************************************************


  Components of energy : 

--------------------------------------------------------------------------------
  Interatomic potentials     =           4.94315381 eV    
  Monopole - monopole (real) =         -10.03624526 eV    
  Monopole - monopole (recip)=         -29.53581274 eV    
  Monopole - monopole (total)=         -39.57205800 eV    
--------------------------------------------------------------------------------
  Total lattice energy       =         -34.62890419 eV    
--------------------------------------------------------------------------------
  Total lattice energy       =           -3341.1599 kJ/(mole unit cells)
--------------------------------------------------------------------------------


  Number of variables =        1

  Maximum number of calculations  =          1000
  Maximum Hessian update interval =            10
  Maximum step size               =   1.000000000
  Maximum parameter tolerance     =   0.000010000
  Maximum function  tolerance     =   0.000010000
  Maximum gradient  tolerance     =   0.001000000
  Maximum gradient  component     =   0.010000000

  Symmetry constrained optimisation

  Symmetry used for second derivatives

  Cell parameters to be optimised using strains

  Newton-Raphson optimiser to be used

  BFGS hessian update to be used

  Lower half triangular hessian to be used

  Start of bulk optimisation :

  Cycle:      0 Energy:       -34.628904  Gnorm:      4.328237  CPU:    0.015
  ** Hessian calculated **
  Cycle:      1 Energy:       -34.677667  Gnorm:      0.044008  CPU:    0.019
  Cycle:      2 Energy:       -34.677671  Gnorm:      0.003653  CPU:    0.022


  **** Optimisation achieved ****


  Final energy =     -34.67767136 eV
  Final Gnorm  =       0.00000010

  Components of energy : 

--------------------------------------------------------------------------------
  Interatomic potentials     =           5.77546103 eV    
  Monopole - monopole (real) =         -10.25970290 eV    
  Monopole - monopole (recip)=         -30.19342950 eV    
  Monopole - monopole (total)=         -40.45313239 eV    
--------------------------------------------------------------------------------
  Total lattice energy       =         -34.67767136 eV    
--------------------------------------------------------------------------------
  Total lattice energy       =           -3345.8652 kJ/(mole unit cells)
--------------------------------------------------------------------------------

  Final asymmetric unit coordinates :

--------------------------------------------------------------------------------
   No.  Atomic        x           y           z         Radius
        Label       (Frac)      (Frac)      (Frac)       (Angs) 
--------------------------------------------------------------------------------
     1  O     c     0.000000    0.000000    0.000000    0.000000
     2  Cl    c     0.500000    0.500000    0.500000    0.000000
     3  Na    c     0.500000    0.000000    0.000000    0.000000
     4  O     s     0.000000    0.000000    0.000000    0.000000
     5  Cl    s     0.500000    0.500000    0.500000    0.000000
--------------------------------------------------------------------------------

  Final Cartesian lattice vectors (Angstroms) :

        4.405902    0.000000    0.000000
        0.000000    4.405902    0.000000
        0.000000    0.000000    4.405902


  Final cell parameters and derivatives :

--------------------------------------------------------------------------------
       a            4.405902 Angstrom     dE/de1(xx)     0.000000 eV/strain
       b            4.405902 Angstrom     dE/de2(yy)     0.000000 eV/strain
       c            4.405902 Angstrom     dE/de3(zz)     0.000000 eV/strain
       alpha       90.000000 Degrees      dE/de4(yz)     0.000000 eV/strain
       beta        90.000000 Degrees      dE/de5(xz)     0.000000 eV/strain
       gamma       90.000000 Degrees      dE/de6(xy)     0.000000 eV/strain
--------------------------------------------------------------------------------

  Primitive cell volume =            85.527266 Angs**3

  Density of cell =      2.338030 g/cm**3

  Non-primitive cell volume =            85.527266 Angs**3


  Final internal derivatives :

--------------------------------------------------------------------------------
   No.  Atomic          a             b             c           Radius
        Label          (eV)          (eV)          (eV)        (eV/Angs)
--------------------------------------------------------------------------------
      1 O     c       0.000000      0.000000      0.000000      0.000000
      2 Cl    c       0.000000      0.000000      0.000000      0.000000
      3 Na    c       0.000000      0.000000      0.000000      0.000000
      4 O     s       0.000000      0.000000      0.000000      0.000000
      5 Cl    s       0.000000      0.000000      0.000000      0.000000
--------------------------------------------------------------------------------
  Maximum abs         0.000000      0.000000      0.000000      0.000000
--------------------------------------------------------------------------------

  Comparison of initial and final structures : 

--------------------------------------------------------------------------------
  Parameter   Initial value   Final value   Difference    Units      Percent
--------------------------------------------------------------------------------
    Volume        91.368216     85.527266    -5.840950    Angs**3     -6.39
    a              4.504000      4.405902    -0.098098    Angstroms   -2.18
    b              4.504000      4.405902    -0.098098    Angstroms   -2.18
    c              4.504000      4.405902    -0.098098    Angstroms   -2.18
    alpha         90.000000     90.000000     0.000000    Degrees      0.00
    beta          90.000000     90.000000     0.000000    Degrees      0.00
    gamma         90.000000     90.000000     0.000000    Degrees      0.00
      1 x          0.000000      0.000000     0.000000    Fractional   0.00
      1 y          0.000000      0.000000     0.000000    Fractional   0.00
      1 z          0.000000      0.000000     0.000000    Fractional   0.00
      2 x          0.500000      0.500000     0.000000    Fractional   0.00
      2 y          0.500000      0.500000     0.000000    Fractional   0.00
      2 z          0.500000      0.500000     0.000000    Fractional   0.00
      3 x          0.500000      0.500000     0.000000    Fractional   0.00
      3 y          0.000000      0.000000     0.000000    Fractional   0.00
      3 z          0.000000      0.000000     0.000000    Fractional   0.00
      4 x          0.000000      0.000000     0.000000    Fractional   0.00
      4 y          0.000000      0.000000     0.000000    Fractional   0.00
      4 z          0.000000      0.000000     0.000000    Fractional   0.00
      5 x          0.500000      0.500000     0.000000    Fractional   0.00
      5 y          0.500000      0.500000     0.000000    Fractional   0.00
      5 z          0.500000      0.500000     0.000000    Fractional   0.00
--------------------------------------------------------------------------------


  Born effective charge tensors : 

-------------------------------------------------------------------------------
  Atom             x           y             z
-------------------------------------------------------------------------------
    1 O     x      -2.2939      0.0000      0.0000
            y       0.0000     -2.2939      0.0000
            z       0.0000      0.0000     -2.2939
-------------------------------------------------------------------------------
    2 Cl    x      -0.9918     -0.0000      0.0000
            y      -0.0000     -0.9918      0.0000
            z       0.0000      0.0000     -0.9918
-------------------------------------------------------------------------------
    3 Na    x       0.8372     -0.0000     -0.0000
            y      -0.0000      1.2243     -0.0000
            z       0.0000     -0.0000      1.2243
-------------------------------------------------------------------------------




  Elastic Constant Matrix: (Units=GPa)

-------------------------------------------------------------------------------
  Indices      1         2         3         4         5         6    
-------------------------------------------------------------------------------
       1     82.7680   24.3534   24.3534   -0.0000    0.0000   -0.0000
       2     24.3534   82.7680   24.3534   -0.0000   -0.0000   -0.0000
       3     24.3534   24.3534   82.7680    0.0000   -0.0000    0.0000
       4     -0.0000   -0.0000    0.0000   24.3534   -0.0000   -0.0000
       5      0.0000   -0.0000   -0.0000   -0.0000   24.3534   -0.0000
       6     -0.0000   -0.0000    0.0000   -0.0000   -0.0000   24.3534
-------------------------------------------------------------------------------


  Elastic Compliance Matrix: (Units=1/GPa)

-------------------------------------------------------------------------------
  Indices      1         2         3         4         5         6    
-------------------------------------------------------------------------------
       1    0.013948 -0.003171 -0.003171 -0.000000 -0.000000  0.000000
       2   -0.003171  0.013948 -0.003171  0.000000 -0.000000  0.000000
       3   -0.003171 -0.003171  0.013948 -0.000000  0.000000 -0.000000
       4   -0.000000  0.000000 -0.000000  0.041062  0.000000  0.000000
       5   -0.000000 -0.000000  0.000000  0.000000  0.041062  0.000000
       6    0.000000  0.000000 -0.000000  0.000000  0.000000  0.041062
-------------------------------------------------------------------------------

  Mechanical properties :

-------------------------------------------------------------------------------
  Convention :                    Reuss         Voigt         Hill
-------------------------------------------------------------------------------
  Bulk  Modulus (GPa)     =      43.82493      43.82493      43.82493
  Shear Modulus (GPa)     =      26.08758      26.29496      26.19127
-------------------------------------------------------------------------------
  Velocity S-wave (km/s)  =       3.34035       3.35360       3.34698
  Velocity P-wave (km/s)  =       5.79842       5.80861       5.80351
-------------------------------------------------------------------------------
  Compressibility (1/GPa) =    0.02281806
-------------------------------------------------------------------------------
  Stress axis :                     x             y             z
-------------------------------------------------------------------------------
  Youngs Moduli (GPa)     =      71.69479      71.69479      71.69479
-------------------------------------------------------------------------------
  Poissons Ratio (x)      =                     0.22734       0.22734
  Poissons Ratio (y)      =       0.22734                     0.22734
  Poissons Ratio (z)      =       0.22734       0.22734
-------------------------------------------------------------------------------


  Piezoelectric Strain Matrix: (Units=C/m**2)

-------------------------------------------------------------------------------
  Indices      1         2         3         4         5         6    
-------------------------------------------------------------------------------
       x    -0.00000  -0.00000  -0.00000  -0.00000   0.00000   0.00000
       y    -0.00000   0.00000  -0.00000   0.00000  -0.00000   0.00000
       z     0.00000   0.00000   0.00000  -0.00000   0.00000  -0.00000
-------------------------------------------------------------------------------


  Piezoelectric Stress Matrix: (Units=10**-11 C/N)

-------------------------------------------------------------------------------
  Indices      1         2         3         4         5         6    
-------------------------------------------------------------------------------
       x    -0.00000  -0.00000  -0.00000  -0.00000   0.00000   0.00000
       y    -0.00000   0.00000  -0.00000   0.00000  -0.00000   0.00000
       z     0.00000   0.00000  -0.00000  -0.00000   0.00000  -0.00000
-------------------------------------------------------------------------------


  Static dielectric constant tensor : 

-------------------------------------------------------------------------------
              x         y         z
-------------------------------------------------------------------------------
       x    11.08357  -0.00000  -0.00000
       y    -0.00000  11.08357  -0.00000
       z    -0.00000  -0.00000  11.08357
--------------------------------------------------------------------------------

  High frequency dielectric constant tensor : 

-------------------------------------------------------------------------------
              x         y         z
-------------------------------------------------------------------------------
       x     1.50771  -0.00000  -0.00000
       y    -0.00000   1.50771  -0.00000
       z    -0.00000  -0.00000   1.50771
-------------------------------------------------------------------------------

  Static refractive indices : 

-------------------------------------------------------------------------------
    1 =    3.32920      2 =    3.32920      3 =    3.32920
-------------------------------------------------------------------------------

  High frequency refractive indices : 

-------------------------------------------------------------------------------
    1 =    1.22789      2 =    1.22789      3 =    1.22789
-------------------------------------------------------------------------------


  Time to end of optimisation =       0.0315 seconds

********************************************************************************
*  Defect calculation for configuration   1 :                                  *
********************************************************************************

  Total number of defects =      3

  Total charge on defect  =   2.00

  Defect centre is at   2.2520   2.2520   0.0000  Angs

  Region 1 radius =  12.0000      Number of ions =    622

  Number of symmetry inequivalent region 1 ions  =    201

  Region 2 radius =  16.0000      Number of ions =    762

  Number of symmetry inequivalent region 2a ions =    224

  Region 2a mode = 4 : screened electrostatics due to region 1 
                       neglect correction to region 1 forces from 2a
                       region 2a displacements based on defects only

  Region 2a ions will only interact with defects in region 1

  Vacancies:

--------------------------------------------------------------------------------
    Specification type     Symbol/Number         x          y          z
--------------------------------------------------------------------------------
    Cartesian                                0.000000   0.000000   0.000000
    Cartesian                                4.504000   4.504000   0.000000
--------------------------------------------------------------------------------

  Interstitials:

--------------------------------------------------------------------------------
    Specification type     Symbol/Number         x          y          z
--------------------------------------------------------------------------------
    Atom/Cartesian          O                0.360320   0.360320   0.000000
--------------------------------------------------------------------------------


  Symmetry reduced region 1 (Relative to defect centre) :

--------------------------------------------------------------------------------
   No.   Atomic       x            y             z       Radius  Multiplicity   
         Label      (Angs)       (Angs)        (Angs)    (Angs)     
--------------------------------------------------------------------------------
     1  Na    c     -0.0490 *     2.1539 *     0.0000    0.0000     2          
     2  Cl    c     -0.0490 *    -0.0490      -2.2030 *  0.0000     2          
     3  Na    c     -0.0490 *    -2.2520 *     0.0000    0.0000     2          
     4  O     c     -1.8917      -1.8917       0.0000    0.0000     1    Defect
     5  O     c      2.1539 *    -2.2520 *     0.0000    0.0000     2          
     6  Na    c      2.1539 *     2.1539      -2.2030 *  0.0000     2          
     7  Na    c      2.1539 *    -2.2520 *    -2.2030 *  0.0000     4          
     8  Na    c     -2.2520 *    -2.2520      -2.2030 *  0.0000     2          
     9  Na    c      4.3569 *     2.1539 *     0.0000    0.0000     2          
    10  Cl    c     -0.0490 *     4.3569 *    -2.2030 *  0.0000     4          
    11  Na    c     -0.0490 *     2.1539 *     4.4059 *  0.0000     4          
    12  Na    c      4.3569 *    -2.2520 *     0.0000    0.0000     2          
    13  Na    c     -0.0490 *    -2.2520 *     4.4059 *  0.0000     4          
    14  Na    c     -4.4550 *     2.1539 *     0.0000    0.0000     2          
    15  Cl    c     -0.0490 *    -4.4550 *    -2.2030 *  0.0000     4          
    16  Na    c     -4.4550 *    -2.2520 *     0.0000    0.0000     2          
    17  O     c      2.1539 *     2.1539       4.4059 *  0.0000     2          
    18  O     c      2.1539 *    -2.2520 *     4.4059 *  0.0000     4          
    19  O     c     -2.2520 *    -2.2520       4.4059 *  0.0000     2          
    20  Cl    c      4.3569 *     4.3569      -2.2030 *  0.0000     2          
    21  Na    c     -0.0490 *     6.5598 *     0.0000    0.0000     2          
    22  Na    c      4.3569 *     2.1539 *     4.4059 *  0.0000     4          
    23  Na    c      4.3569 *    -2.2520 *     4.4059 *  0.0000     4          
    24  Cl    c     -0.0490 *    -0.0490       6.6089 *  0.0000     2          
    25  Cl    c      4.3569 *    -4.4550 *    -2.2030 *  0.0000     4          
    26  Na    c     -4.4550 *     2.1539 *     4.4059 *  0.0000     4          
    27  Na    c     -0.0490 *    -6.6579 *     0.0000    0.0000     2          
    28  Na    c     -4.4550 *    -2.2520 *     4.4059 *  0.0000     4          
    29  Cl    c     -4.4550 *    -4.4550      -2.2030 *  0.0000     2          
    30  O     c      2.1539 *     6.5598 *     0.0000    0.0000     2          
    31  O     c      6.5598 *    -2.2520 *     0.0000    0.0000     2          
    32  O     c      2.1539 *    -6.6579 *     0.0000    0.0000     2          
    33  O     c     -2.2520 *    -6.6579 *     0.0000    0.0000     2          
    34  Na    c      2.1539 *     6.5598 *    -2.2030 *  0.0000     4          
    35  Na    c      2.1539 *     2.1539       6.6089 *  0.0000     2          
    36  Na    c      6.5598 *    -2.2520 *    -2.2030 *  0.0000     4          
    37  Na    c      2.1539 *    -2.2520 *     6.6089 *  0.0000     4          
    38  Na    c      2.1539 *    -6.6579 *    -2.2030 *  0.0000     4          
    39  Na    c     -2.2520 *    -2.2520       6.6089 *  0.0000     2          
    40  Na    c     -2.2520 *    -6.6579 *    -2.2030 *  0.0000     4          
    41  Na    c      4.3569 *     6.5598 *     0.0000    0.0000     2          
    42  Na    c     -0.0490 *     6.5598 *     4.4059 *  0.0000     4          
    43  Cl    c     -0.0490 *     4.3569 *     6.6089 *  0.0000     4          
    44  Na    c     -4.4550 *     6.5598 *     0.0000    0.0000     2          
    45  Na    c      4.3569 *    -6.6579 *     0.0000    0.0000     2          
    46  Cl    c     -0.0490 *    -4.4550 *     6.6089 *  0.0000     4          
    47  Na    c     -0.0490 *    -6.6579 *     4.4059 *  0.0000     4          
    48  Na    c     -4.4550 *    -6.6579 *     0.0000    0.0000     2          
    49  O     c      2.1539 *     6.5598 *     4.4059 *  0.0000     4          
    50  O     c      6.5598 *    -2.2520 *     4.4059 *  0.0000     4          
    51  O     c      2.1539 *    -6.6579 *     4.4059 *  0.0000     4          
    52  O     c     -2.2520 *    -6.6579 *     4.4059 *  0.0000     4          
    53  Na    c      4.3569 *     6.5598 *     4.4059 *  0.0000     4          
    54  Na    c      8.7628 *     2.1539 *     0.0000    0.0000     2          
    55  Cl    c     -0.0490 *     8.7628 *    -2.2030 *  0.0000     4          
    56  Cl    c      4.3569 *     4.3569       6.6089 *  0.0000     2          
    57  Na    c      8.7628 *    -2.2520 *     0.0000    0.0000     2          
    58  Na    c     -0.0490 *     2.1539 *     8.8118 *  0.0000     4          
    59  Na    c     -4.4550 *     6.5598 *     4.4059 *  0.0000     4          
    60  Cl    c      4.3569 *    -4.4550 *     6.6089 *  0.0000     4          
    61  Na    c     -0.0490 *    -2.2520 *     8.8118 *  0.0000     4          
    62  Na    c      4.3569 *    -6.6579 *     4.4059 *  0.0000     4          
    63  Na    c     -8.8609 *     2.1539 *     0.0000    0.0000     2          
    64  Cl    c     -0.0490 *    -8.8609 *    -2.2030 *  0.0000     4          
    65  Cl    c     -4.4550 *    -4.4550       6.6089 *  0.0000     2          
    66  Na    c     -8.8609 *    -2.2520 *     0.0000    0.0000     2          
    67  Na    c     -4.4550 *    -6.6579 *     4.4059 *  0.0000     4          
    68  O     c      6.5598 *     6.5598       0.0000    0.0000     1          
    69  O     c      2.1539 *     2.1539       8.8118 *  0.0000     2          
    70  O     c      2.1539 *    -2.2520 *     8.8118 *  0.0000     4          
    71  O     c      6.5598 *    -6.6579 *     0.0000    0.0000     2          
    72  O     c     -2.2520 *    -2.2520       8.8118 *  0.0000     2          
    73  O     c     -6.6579 *    -6.6579       0.0000    0.0000     1          
    74  Na    c      6.5598 *     6.5598      -2.2030 *  0.0000     2          
    75  Na    c      2.1539 *     6.5598 *     6.6089 *  0.0000     4          
    76  Na    c      6.5598 *    -2.2520 *     6.6089 *  0.0000     4          
    77  Na    c      6.5598 *    -6.6579 *    -2.2030 *  0.0000     4          
    78  Na    c      2.1539 *    -6.6579 *     6.6089 *  0.0000     4          
    79  Na    c     -2.2520 *    -6.6579 *     6.6089 *  0.0000     4          
    80  Na    c     -6.6579 *    -6.6579      -2.2030 *  0.0000     2          
    81  Cl    c      4.3569 *     8.7628 *    -2.2030 *  0.0000     4          
    82  Na    c      8.7628 *     2.1539 *     4.4059 *  0.0000     4          
    83  Na    c      4.3569 *     2.1539 *     8.8118 *  0.0000     4          
    84  Na    c      8.7628 *    -2.2520 *     4.4059 *  0.0000     4          
    85  Cl    c      8.7628 *    -4.4550 *    -2.2030 *  0.0000     4          
    86  Na    c      4.3569 *    -2.2520 *     8.8118 *  0.0000     4          
    87  Na    c     -4.4550 *     2.1539 *     8.8118 *  0.0000     4          
    88  Cl    c      4.3569 *    -8.8609 *    -2.2030 *  0.0000     4          
    89  Na    c     -8.8609 *     2.1539 *     4.4059 *  0.0000     4          
    90  Na    c     -4.4550 *    -2.2520 *     8.8118 *  0.0000     4          
    91  Na    c     -8.8609 *    -2.2520 *     4.4059 *  0.0000     4          
    92  Cl    c     -4.4550 *    -8.8609 *    -2.2030 *  0.0000     4          
    93  O     c      6.5598 *     6.5598       4.4059 *  0.0000     2          
    94  O     c      6.5598 *    -6.6579 *     4.4059 *  0.0000     4          
    95  O     c     -6.6579 *    -6.6579       4.4059 *  0.0000     2          
    96  Na    c      8.7628 *     6.5598 *     0.0000    0.0000     2          
    97  Na    c     -0.0490 *    10.9657 *     0.0000    0.0000     2          
    98  Cl    c     -0.0490 *     8.7628 *     6.6089 *  0.0000     4          
    99  Na    c     -0.0490 *     6.5598 *     8.8118 *  0.0000     4          
   100  Na    c      8.7628 *    -6.6579 *     0.0000    0.0000     2          
   101  Cl    c     -0.0490 *    -0.0490      11.0148 *  0.0000     2          
   102  Na    c     -8.8609 *     6.5598 *     0.0000    0.0000     2          
   103  Na    c     -0.0490 *    -6.6579 *     8.8118 *  0.0000     4          
   104  Cl    c     -0.0490 *    -8.8609 *     6.6089 *  0.0000     4          
   105  Na    c     -0.0490 *   -11.0638 *     0.0000    0.0000     2          
   106  Na    c     -8.8609 *    -6.6579 *     0.0000    0.0000     2          
   107  O     c      2.1539 *    10.9657 *     0.0000    0.0000     2          
   108  O     c      2.1539 *     6.5598 *     8.8118 *  0.0000     4          
   109  O     c     10.9657 *    -2.2520 *     0.0000    0.0000     2          
   110  O     c      6.5598 *    -2.2520 *     8.8118 *  0.0000     4          
   111  O     c      2.1539 *    -6.6579 *     8.8118 *  0.0000     4          
   112  O     c      2.1539 *   -11.0638 *     0.0000    0.0000     2          
   113  O     c     -2.2520 *    -6.6579 *     8.8118 *  0.0000     4          
   114  O     c     -2.2520 *   -11.0638 *     0.0000    0.0000     2          
   115  Na    c      6.5598 *     6.5598       6.6089 *  0.0000     2          
   116  Na    c      2.1539 *    10.9657 *    -2.2030 *  0.0000     4          
   117  Na    c     10.9657 *    -2.2520 *    -2.2030 *  0.0000     4          
   118  Na    c      2.1539 *     2.1539      11.0148 *  0.0000     2          
   119  Na    c      2.1539 *    -2.2520 *    11.0148 *  0.0000     4          
   120  Na    c      6.5598 *    -6.6579 *     6.6089 *  0.0000     4          
   121  Na    c     -2.2520 *    -2.2520      11.0148 *  0.0000     2          
   122  Na    c      2.1539 *   -11.0638 *    -2.2030 *  0.0000     4          
   123  Na    c     -2.2520 *   -11.0638 *    -2.2030 *  0.0000     4          
   124  Na    c     -6.6579 *    -6.6579       6.6089 *  0.0000     2          
   125  Na    c      4.3569 *    10.9657 *     0.0000    0.0000     2          
   126  Na    c      8.7628 *     6.5598 *     4.4059 *  0.0000     4          
   127  Cl    c      4.3569 *     8.7628 *     6.6089 *  0.0000     4          
   128  Na    c     -0.0490 *    10.9657 *     4.4059 *  0.0000     4          
   129  Na    c      4.3569 *     6.5598 *     8.8118 *  0.0000     4          
   130  Na    c     -4.4550 *    10.9657 *     0.0000    0.0000     2          
   131  Cl    c     -0.0490 *     4.3569 *    11.0148 *  0.0000     4          
   132  Cl    c      8.7628 *    -4.4550 *     6.6089 *  0.0000     4          
   133  Na    c     -4.4550 *     6.5598 *     8.8118 *  0.0000     4          
   134  Na    c      8.7628 *    -6.6579 *     4.4059 *  0.0000     4          
   135  Na    c      4.3569 *    -6.6579 *     8.8118 *  0.0000     4          
   136  Na    c     -8.8609 *     6.5598 *     4.4059 *  0.0000     4          
   137  Cl    c     -0.0490 *    -4.4550 *    11.0148 *  0.0000     4          
   138  Cl    c      4.3569 *    -8.8609 *     6.6089 *  0.0000     4          
   139  Na    c      4.3569 *   -11.0638 *     0.0000    0.0000     2          
   140  Na    c     -0.0490 *   -11.0638 *     4.4059 *  0.0000     4          
   141  Na    c     -4.4550 *    -6.6579 *     8.8118 *  0.0000     4          
   142  Cl    c     -4.4550 *    -8.8609 *     6.6089 *  0.0000     4          
   143  Na    c     -4.4550 *   -11.0638 *     0.0000    0.0000     2          
   144  Na    c     -8.8609 *    -6.6579 *     4.4059 *  0.0000     4          
   145  Cl    s     -0.0490 *    -0.0490      -2.2030 *  0.0000     2          
   146  O     s     -1.8917      -1.8917       0.0000    0.0000     1    Defect
   147  O     s      2.1539 *    -2.2520 *     0.0000    0.0000     2          
   148  Cl    s     -0.0490 *     4.3569 *    -2.2030 *  0.0000     4          
   149  Cl    s     -0.0490 *    -4.4550 *    -2.2030 *  0.0000     4          
   150  O     s      2.1539 *     2.1539       4.4059 *  0.0000     2          
   151  O     s      2.1539 *    -2.2520 *     4.4059 *  0.0000     4          
   152  O     s     -2.2520 *    -2.2520       4.4059 *  0.0000     2          
   153  Cl    s      4.3569 *     4.3569      -2.2030 *  0.0000     2          
   154  Cl    s     -0.0490 *    -0.0490       6.6089 *  0.0000     2          
   155  Cl    s      4.3569 *    -4.4550 *    -2.2030 *  0.0000     4          
   156  Cl    s     -4.4550 *    -4.4550      -2.2030 *  0.0000     2          
   157  O     s      2.1539 *     6.5598 *     0.0000    0.0000     2          
   158  O     s      6.5598 *    -2.2520 *     0.0000    0.0000     2          
   159  O     s      2.1539 *    -6.6579 *     0.0000    0.0000     2          
   160  O     s     -2.2520 *    -6.6579 *     0.0000    0.0000     2          
   161  Cl    s     -0.0490 *     4.3569 *     6.6089 *  0.0000     4          
   162  Cl    s     -0.0490 *    -4.4550 *     6.6089 *  0.0000     4          
   163  O     s      2.1539 *     6.5598 *     4.4059 *  0.0000     4          
   164  O     s      6.5598 *    -2.2520 *     4.4059 *  0.0000     4          
   165  O     s      2.1539 *    -6.6579 *     4.4059 *  0.0000     4          
   166  O     s     -2.2520 *    -6.6579 *     4.4059 *  0.0000     4          
   167  Cl    s     -0.0490 *     8.7628 *    -2.2030 *  0.0000     4          
   168  Cl    s      4.3569 *     4.3569       6.6089 *  0.0000     2          
   169  Cl    s      4.3569 *    -4.4550 *     6.6089 *  0.0000     4          
   170  Cl    s     -0.0490 *    -8.8609 *    -2.2030 *  0.0000     4          
   171  Cl    s     -4.4550 *    -4.4550       6.6089 *  0.0000     2          
   172  O     s      6.5598 *     6.5598       0.0000    0.0000     1          
   173  O     s      2.1539 *     2.1539       8.8118 *  0.0000     2          
   174  O     s      2.1539 *    -2.2520 *     8.8118 *  0.0000     4          
   175  O     s      6.5598 *    -6.6579 *     0.0000    0.0000     2          
   176  O     s     -2.2520 *    -2.2520       8.8118 *  0.0000     2          
   177  O     s     -6.6579 *    -6.6579       0.0000    0.0000     1          
   178  Cl    s      4.3569 *     8.7628 *    -2.2030 *  0.0000     4          
   179  Cl    s      8.7628 *    -4.4550 *    -2.2030 *  0.0000     4          
   180  Cl    s      4.3569 *    -8.8609 *    -2.2030 *  0.0000     4          
   181  Cl    s     -4.4550 *    -8.8609 *    -2.2030 *  0.0000     4          
   182  O     s      6.5598 *     6.5598       4.4059 *  0.0000     2          
   183  O     s      6.5598 *    -6.6579 *     4.4059 *  0.0000     4          
   184  O     s     -6.6579 *    -6.6579       4.4059 *  0.0000     2          
   185  Cl    s     -0.0490 *     8.7628 *     6.6089 *  0.0000     4          
   186  Cl    s     -0.0490 *    -0.0490      11.0148 *  0.0000     2          
   187  Cl    s     -0.0490 *    -8.8609 *     6.6089 *  0.0000     4          
   188  O     s      2.1539 *    10.9657 *     0.0000    0.0000     2          
   189  O     s      2.1539 *     6.5598 *     8.8118 *  0.0000     4          
   190  O     s     10.9657 *    -2.2520 *     0.0000    0.0000     2          
   191  O     s      6.5598 *    -2.2520 *     8.8118 *  0.0000     4          
   192  O     s      2.1539 *    -6.6579 *     8.8118 *  0.0000     4          
   193  O     s      2.1539 *   -11.0638 *     0.0000    0.0000     2          
   194  O     s     -2.2520 *    -6.6579 *     8.8118 *  0.0000     4          
   195  O     s     -2.2520 *   -11.0638 *     0.0000    0.0000     2          
   196  Cl    s      4.3569 *     8.7628 *     6.6089 *  0.0000     4          
   197  Cl    s     -0.0490 *     4.3569 *    11.0148 *  0.0000     4          
   198  Cl    s      8.7628 *    -4.4550 *     6.6089 *  0.0000     4          
   199  Cl    s     -0.0490 *    -4.4550 *    11.0148 *  0.0000     4          
   200  Cl    s      4.3569 *    -8.8609 *     6.6089 *  0.0000     4          
   201  Cl    s     -4.4550 *    -8.8609 *     6.6089 *  0.0000     4          
--------------------------------------------------------------------------------


  Constraints on symmetry reduced coordinates :

--------------------------------------------------------------------------------
  Constraint no.      Unconstrained     Constrained    Coefficient    
                         Variable         Variable
--------------------------------------------------------------------------------
           1                 2 x             2 y         1.00000
           2                 6 x             6 y         1.00000
           3                 8 x             8 y         1.00000
           4                17 x            17 y         1.00000
           5                19 x            19 y         1.00000
           6                20 x            20 y         1.00000
           7                24 x            24 y         1.00000
           8                29 x            29 y         1.00000
           9                35 x            35 y         1.00000
          10                39 x            39 y         1.00000
          11                56 x            56 y         1.00000
          12                65 x            65 y         1.00000
          13                68 x            68 y         1.00000
          14                69 x            69 y         1.00000
          15                72 x            72 y         1.00000
          16                73 x            73 y         1.00000
          17                74 x            74 y         1.00000
          18                80 x            80 y         1.00000
          19                93 x            93 y         1.00000
          20                95 x            95 y         1.00000
          21               101 x           101 y         1.00000
          22               115 x           115 y         1.00000
          23               118 x           118 y         1.00000
          24               121 x           121 y         1.00000
          25               124 x           124 y         1.00000
          26               145 x           145 y         1.00000
          27               150 x           150 y         1.00000
          28               152 x           152 y         1.00000
          29               153 x           153 y         1.00000
          30               154 x           154 y         1.00000
          31               156 x           156 y         1.00000
          32               168 x           168 y         1.00000
          33               171 x           171 y         1.00000
          34               172 x           172 y         1.00000
          35               173 x           173 y         1.00000
          36               176 x           176 y         1.00000
          37               177 x           177 y         1.00000
          38               182 x           182 y         1.00000
          39               184 x           184 y         1.00000
          40               186 x           186 y         1.00000
--------------------------------------------------------------------------------


  Components of defect energy : 

--------------------------------------------------------------------------------
  Region 1 - region 1                   =     90.37261278 eV
  Region 1 - region 2a (unrelaxed)      =    -54.40646680 eV
  Region 1 - 2a (relaxed - correction)  =     -1.06279202 eV
  Region 1 (Total)                      =     34.90335397 eV
  Region 2a                             =      0.53186095 eV
  Region 2b                             =     -1.66871143 eV
--------------------------------------------------------------------------------
  Total defect energy                   =     33.76650349 eV
--------------------------------------------------------------------------------

  Largest displacement in region 2 =   0.0499 Angstroms


  Number of variables =      507

  Maximum number of calculations  =        1000
  Maximum Hessian update interval =          10
  Maximum step size               =   1.0000000
  Maximum parameter tolerance     =   0.0000100
  Maximum function  tolerance     =   0.0000100
  Maximum gradient  tolerance     =   0.0010000

  Symmetry adapted optimisation

  Symmetry to be used for second derivatives

  Newton-Raphson optimiser to be used

  BFGS hessian update to be used

  Lower half triangular hessian to be used

  Start of defect optimisation :

  Cycle:      0 Defect Energy:  33.766503  Gnorm:     0.086098  CPU:    2.275
  ** Hessian calculated **
  Cycle:      1 Defect Energy:  28.639511  Gnorm:     0.067500  CPU:   13.239
  Cycle:      2 Defect Energy:  24.815204  Gnorm:     0.032894  CPU:   17.425
  ** Hessian calculated **
  Cycle:      3 Defect Energy:  23.271222  Gnorm:     0.016720  CPU:   21.481
  Cycle:      4 Defect Energy:  23.009053  Gnorm:     0.008320  CPU:   23.861
  Cycle:      5 Defect Energy:  22.952624  Gnorm:     0.005853  CPU:   26.055
  Cycle:      6 Defect Energy:  22.932575  Gnorm:     0.004781  CPU:   26.661
  Cycle:      7 Defect Energy:  22.909157  Gnorm:     0.004002  CPU:   27.271
  Cycle:      8 Defect Energy:  22.883759  Gnorm:     0.003668  CPU:   27.971
  Cycle:      9 Defect Energy:  22.859567  Gnorm:     0.003438  CPU:   28.571
  Cycle:     10 Defect Energy:  22.834907  Gnorm:     0.003526  CPU:   29.125
  Cycle:     11 Defect Energy:  22.808991  Gnorm:     0.003716  CPU:   29.672
  Cycle:     12 Defect Energy:  22.781420  Gnorm:     0.003880  CPU:   30.273
  ** Hessian calculated **
  Cycle:     13 Defect Energy:  22.698174  Gnorm:     0.003505  CPU:   32.384
  Cycle:     14 Defect Energy:  22.587743  Gnorm:     0.002924  CPU:   33.071
  Cycle:     15 Defect Energy:  22.467644  Gnorm:     0.002078  CPU:   33.644
  Cycle:     16 Defect Energy:  22.411991  Gnorm:     0.001491  CPU:   34.202
  Cycle:     17 Defect Energy:  22.384779  Gnorm:     0.001028  CPU:   34.766
  Cycle:     18 Defect Energy:  22.369477  Gnorm:     0.000673  CPU:   35.325
  Cycle:     19 Defect Energy:  22.364136  Gnorm:     0.000396  CPU:   35.891
  Cycle:     20 Defect Energy:  22.362604  Gnorm:     0.000275  CPU:   36.432
  Cycle:     21 Defect Energy:  22.361909  Gnorm:     0.000192  CPU:   36.962
  Cycle:     22 Defect Energy:  22.361576  Gnorm:     0.000132  CPU:   37.543
  ** Hessian calculated **
  Cycle:     23 Defect Energy:  22.361424  Gnorm:     0.000093  CPU:   42.772
  Cycle:     24 Defect Energy:  22.361359  Gnorm:     0.000065  CPU:   44.514
  Cycle:     25 Defect Energy:  22.361334  Gnorm:     0.000045  CPU:   45.212


  **** Optimisation achieved ****


  Final defect energy  =       22.36132583
  Final defect Gnorm   =        0.00003183

  Components of defect energy : 

--------------------------------------------------------------------------------
  Region 1 - region 1                   =     71.50981416 eV
  Region 1 - region 2a (unrelaxed)      =    -47.12245580 eV
  Region 1 - 2a (relaxed - correction)  =     -0.75885568 eV
  Region 1 (Total)                      =     23.62850268 eV
  Region 2a                             =      0.37877238 eV
  Region 2b                             =     -1.64594923 eV
--------------------------------------------------------------------------------
  Total defect energy                   =     22.36132583 eV
--------------------------------------------------------------------------------

  Largest displacement in region 2 =   0.0499 Angstroms

  Final coordinates of region 1 :

--------------------------------------------------------------------------------
   No.  Atomic        x           y           z          Radius      Charge
        Label       (Angs)      (Angs)      (Angs)       (Angs)       (e) 
--------------------------------------------------------------------------------
     1  Na    c     1.961310    4.585163    0.000000    0.000000    1.000000
     2  Na    c     4.585163    1.961310    0.000000    0.000000    1.000000
     3  Cl    c     2.637006    2.637006   -1.875243    0.000000    1.485000
     4  Cl    c     2.637006    2.637006    1.875243    0.000000    1.485000
     5  Na    c     2.403320    0.104141    0.000000    0.000000    1.000000
     6  Na    c     0.104141    2.403320    0.000000    0.000000    1.000000
     7  O     c     0.360320    0.360320    0.000000    0.000000    0.183000
     8  O     c     4.544242   -0.121418    0.000000    0.000000    0.183000
     9  O     c    -0.121418    4.544242    0.000000    0.000000    0.183000
    10  Na    c     4.481350    4.481350   -2.508445    0.000000    1.000000
    11  Na    c     4.481350    4.481350    2.508445    0.000000    1.000000
    12  Na    c     4.496269   -0.144296   -2.229029    0.000000    1.000000
    13  Na    c     4.496269   -0.144296    2.229029    0.000000    1.000000
    14  Na    c    -0.144296    4.496269   -2.229029    0.000000    1.000000
    15  Na    c    -0.144296    4.496269    2.229029    0.000000    1.000000
    16  Na    c     0.132432    0.132432   -2.180003    0.000000    1.000000
    17  Na    c     0.132432    0.132432    2.180003    0.000000    1.000000
    18  Na    c     6.931452    4.449100    0.000000    0.000000    1.000000
    19  Na    c     4.449100    6.931452    0.000000    0.000000    1.000000
    20  Cl    c     2.550065    6.417498   -1.945708    0.000000    1.485000
    21  Cl    c     2.550065    6.417498    1.945708    0.000000    1.485000
    22  Cl    c     6.417498    2.550065   -1.945708    0.000000    1.485000
    23  Cl    c     6.417498    2.550065    1.945708    0.000000    1.485000
    24  Na    c     2.202913    4.423880    4.489393    0.000000    1.000000
    25  Na    c     2.202913    4.423880   -4.489393    0.000000    1.000000
    26  Na    c     4.423880    2.202913    4.489393    0.000000    1.000000
    27  Na    c     4.423880    2.202913   -4.489393    0.000000    1.000000
    28  Na    c     6.708649   -0.215962    0.000000    0.000000    1.000000
    29  Na    c    -0.215962    6.708649    0.000000    0.000000    1.000000
    30  Na    c     2.236316   -0.066197    4.514294    0.000000    1.000000
    31  Na    c     2.236316   -0.066197   -4.514294    0.000000    1.000000
    32  Na    c    -0.066197    2.236316    4.514294    0.000000    1.000000
    33  Na    c    -0.066197    2.236316   -4.514294    0.000000    1.000000
    34  Na    c    -2.281017    4.377546    0.000000    0.000000    1.000000
    35  Na    c     4.377546   -2.281017    0.000000    0.000000    1.000000
    36  Cl    c     2.250078   -2.124875   -2.198687    0.000000    1.485000
    37  Cl    c     2.250078   -2.124875    2.198687    0.000000    1.485000
    38  Cl    c    -2.124875    2.250078   -2.198687    0.000000    1.485000
    39  Cl    c    -2.124875    2.250078    2.198687    0.000000    1.485000
    40  Na    c    -2.095728    0.177288    0.000000    0.000000    1.000000
    41  Na    c     0.177288   -2.095728    0.000000    0.000000    1.000000
    42  O     c     4.428147    4.428147    4.573638    0.000000    0.183000
    43  O     c     4.428147    4.428147   -4.573638    0.000000    0.183000
    44  O     c     4.436999    0.011872    4.408682    0.000000    0.183000
    45  O     c     4.436999    0.011872   -4.408682    0.000000    0.183000
    46  O     c     0.011872    4.436999    4.408682    0.000000    0.183000
    47  O     c     0.011872    4.436999   -4.408682    0.000000    0.183000
    48  O     c     0.058615    0.058615    4.378959    0.000000    0.183000
    49  O     c     0.058615    0.058615   -4.378959    0.000000    0.183000
    50  Cl    c     6.366189    6.366189   -1.900780    0.000000    1.485000
    51  Cl    c     6.366189    6.366189    1.900780    0.000000    1.485000
    52  Na    c     2.187114    8.943759    0.000000    0.000000    1.000000
    53  Na    c     8.943759    2.187114    0.000000    0.000000    1.000000
    54  Na    c     6.642904    4.413444    4.587951    0.000000    1.000000
    55  Na    c     6.642904    4.413444   -4.587951    0.000000    1.000000
    56  Na    c     4.413444    6.642904    4.587951    0.000000    1.000000
    57  Na    c     4.413444    6.642904   -4.587951    0.000000    1.000000
    58  Na    c     6.634190   -0.072670    4.498238    0.000000    1.000000
    59  Na    c     6.634190   -0.072670   -4.498238    0.000000    1.000000
    60  Na    c    -0.072670    6.634190    4.498238    0.000000    1.000000
    61  Na    c    -0.072670    6.634190   -4.498238    0.000000    1.000000
    62  Cl    c     2.210287    2.210287    6.575409    0.000000    1.485000
    63  Cl    c     2.210287    2.210287   -6.575409    0.000000    1.485000
    64  Cl    c     6.660579   -2.179400   -2.230260    0.000000    1.485000
    65  Cl    c     6.660579   -2.179400    2.230260    0.000000    1.485000
    66  Cl    c    -2.179400    6.660579   -2.230260    0.000000    1.485000
    67  Cl    c    -2.179400    6.660579    2.230260    0.000000    1.485000
    68  Na    c    -2.222199    4.423299    4.456775    0.000000    1.000000
    69  Na    c    -2.222199    4.423299   -4.456775    0.000000    1.000000
    70  Na    c     4.423299   -2.222199    4.456775    0.000000    1.000000
    71  Na    c     4.423299   -2.222199   -4.456775    0.000000    1.000000
    72  Na    c     2.222822   -4.507821    0.000000    0.000000    1.000000
    73  Na    c    -4.507821    2.222822    0.000000    0.000000    1.000000
    74  Na    c    -2.172707   -0.005219    4.344272    0.000000    1.000000
    75  Na    c    -2.172707   -0.005219   -4.344272    0.000000    1.000000
    76  Na    c    -0.005219   -2.172707    4.344272    0.000000    1.000000
    77  Na    c    -0.005219   -2.172707   -4.344272    0.000000    1.000000
    78  Cl    c    -2.035649   -2.035649   -2.095256    0.000000    1.485000
    79  Cl    c    -2.035649   -2.035649    2.095256    0.000000    1.485000
    80  O     c     4.419015    8.986866    0.000000    0.000000    0.183000
    81  O     c     8.986866    4.419015    0.000000    0.000000    0.183000
    82  O     c     8.862669   -0.010651    0.000000    0.000000    0.183000
    83  O     c    -0.010651    8.862669    0.000000    0.000000    0.183000
    84  O     c     4.426578   -4.439164    0.000000    0.000000    0.183000
    85  O     c    -4.439164    4.426578    0.000000    0.000000    0.183000
    86  O     c     0.044391   -4.348327    0.000000    0.000000    0.183000
    87  O     c    -4.348327    0.044391    0.000000    0.000000    0.183000
    88  Na    c     4.396610    8.930352   -2.226630    0.000000    1.000000
    89  Na    c     4.396610    8.930352    2.226630    0.000000    1.000000
    90  Na    c     8.930352    4.396610   -2.226630    0.000000    1.000000
    91  Na    c     8.930352    4.396610    2.226630    0.000000    1.000000
    92  Na    c     4.361995    4.361995    6.710873    0.000000    1.000000
    93  Na    c     4.361995    4.361995   -6.710873    0.000000    1.000000
    94  Na    c     8.909448   -0.067248   -2.209336    0.000000    1.000000
    95  Na    c     8.909448   -0.067248    2.209336    0.000000    1.000000
    96  Na    c    -0.067248    8.909448   -2.209336    0.000000    1.000000
    97  Na    c    -0.067248    8.909448    2.209336    0.000000    1.000000
    98  Na    c     4.430805    0.004140    6.636340    0.000000    1.000000
    99  Na    c     4.430805    0.004140   -6.636340    0.000000    1.000000
   100  Na    c     0.004140    4.430805    6.636340    0.000000    1.000000
   101  Na    c     0.004140    4.430805   -6.636340    0.000000    1.000000
   102  Na    c     4.419128   -4.458815   -2.209653    0.000000    1.000000
   103  Na    c     4.419128   -4.458815    2.209653    0.000000    1.000000
   104  Na    c    -4.458815    4.419128   -2.209653    0.000000    1.000000
   105  Na    c    -4.458815    4.419128    2.209653    0.000000    1.000000
   106  Na    c    -0.020795   -0.020795    6.605300    0.000000    1.000000
   107  Na    c    -0.020795   -0.020795   -6.605300    0.000000    1.000000
   108  Na    c     0.011566   -4.378350   -2.191262    0.000000    1.000000
   109  Na    c     0.011566   -4.378350    2.191262    0.000000    1.000000
   110  Na    c    -4.378350    0.011566   -2.191262    0.000000    1.000000
   111  Na    c    -4.378350    0.011566    2.191262    0.000000    1.000000
   112  Na    c     6.639795    8.964494    0.000000    0.000000    1.000000
   113  Na    c     8.964494    6.639795    0.000000    0.000000    1.000000
   114  Na    c     2.203142    8.871762    4.476663    0.000000    1.000000
   115  Na    c     2.203142    8.871762   -4.476663    0.000000    1.000000
   116  Na    c     8.871762    2.203142    4.476663    0.000000    1.000000
   117  Na    c     8.871762    2.203142   -4.476663    0.000000    1.000000
   118  Cl    c     2.195297    6.635550    6.579230    0.000000    1.485000
   119  Cl    c     2.195297    6.635550   -6.579230    0.000000    1.485000
   120  Cl    c     6.635550    2.195297    6.579230    0.000000    1.485000
   121  Cl    c     6.635550    2.195297   -6.579230    0.000000    1.485000
   122  Na    c    -2.239434    8.933500    0.000000    0.000000    1.000000
   123  Na    c     8.933500   -2.239434    0.000000    0.000000    1.000000
   124  Na    c     6.631982   -4.429529    0.000000    0.000000    1.000000
   125  Na    c    -4.429529    6.631982    0.000000    0.000000    1.000000
   126  Cl    c     2.229876   -2.161808    6.576593    0.000000    1.485000
   127  Cl    c     2.229876   -2.161808   -6.576593    0.000000    1.485000
   128  Cl    c    -2.161808    2.229876    6.576593    0.000000    1.485000
   129  Cl    c    -2.161808    2.229876   -6.576593    0.000000    1.485000
   130  Na    c     2.205116   -4.411071    4.418633    0.000000    1.000000
   131  Na    c     2.205116   -4.411071   -4.418633    0.000000    1.000000
   132  Na    c    -4.411071    2.205116    4.418633    0.000000    1.000000
   133  Na    c    -4.411071    2.205116   -4.418633    0.000000    1.000000
   134  Na    c    -2.162721   -4.316499    0.000000    0.000000    1.000000
   135  Na    c    -4.316499   -2.162721    0.000000    0.000000    1.000000
   136  O     c     4.412500    8.825071    4.416927    0.000000    0.183000
   137  O     c     4.412500    8.825071   -4.416927    0.000000    0.183000
   138  O     c     8.825071    4.412500    4.416927    0.000000    0.183000
   139  O     c     8.825071    4.412500   -4.416927    0.000000    0.183000
   140  O     c     8.813431    0.015476    4.394682    0.000000    0.183000
   141  O     c     8.813431    0.015476   -4.394682    0.000000    0.183000
   142  O     c     0.015476    8.813431    4.394682    0.000000    0.183000
   143  O     c     0.015476    8.813431   -4.394682    0.000000    0.183000
   144  O     c     4.412050   -4.407249    4.405319    0.000000    0.183000
   145  O     c     4.412050   -4.407249   -4.405319    0.000000    0.183000
   146  O     c    -4.407249    4.412050    4.405319    0.000000    0.183000
   147  O     c    -4.407249    4.412050   -4.405319    0.000000    0.183000
   148  O     c     0.006684   -4.378835    4.388366    0.000000    0.183000
   149  O     c     0.006684   -4.378835   -4.388366    0.000000    0.183000
   150  O     c    -4.378835    0.006684    4.388366    0.000000    0.183000
   151  O     c    -4.378835    0.006684   -4.388366    0.000000    0.183000
   152  Na    c     6.616793    8.893258    4.470499    0.000000    1.000000
   153  Na    c     6.616793    8.893258   -4.470499    0.000000    1.000000
   154  Na    c     8.893258    6.616793    4.470499    0.000000    1.000000
   155  Na    c     8.893258    6.616793   -4.470499    0.000000    1.000000
   156  Na    c    11.112686    4.405258    0.000000    0.000000    1.000000
   157  Na    c     4.405258   11.112686    0.000000    0.000000    1.000000
   158  Cl    c     2.199516   11.002074   -2.218760    0.000000    1.485000
   159  Cl    c     2.199516   11.002074    2.218760    0.000000    1.485000
   160  Cl    c    11.002074    2.199516   -2.218760    0.000000    1.485000
   161  Cl    c    11.002074    2.199516    2.218760    0.000000    1.485000
   162  Cl    c     6.638216    6.638216    6.583503    0.000000    1.485000
   163  Cl    c     6.638216    6.638216   -6.583503    0.000000    1.485000
   164  Na    c    11.062164   -0.022101    0.000000    0.000000    1.000000
   165  Na    c    -0.022101   11.062164    0.000000    0.000000    1.000000
   166  Na    c     2.194740    4.404686    8.910520    0.000000    1.000000
   167  Na    c     2.194740    4.404686   -8.910520    0.000000    1.000000
   168  Na    c     4.404686    2.194740    8.910520    0.000000    1.000000
   169  Na    c     4.404686    2.194740   -8.910520    0.000000    1.000000
   170  Na    c    -2.217638    8.836303    4.414267    0.000000    1.000000
   171  Na    c    -2.217638    8.836303   -4.414267    0.000000    1.000000
   172  Na    c     8.836303   -2.217638    4.414267    0.000000    1.000000
   173  Na    c     8.836303   -2.217638   -4.414267    0.000000    1.000000
   174  Cl    c     6.607871   -2.169318    6.584903    0.000000    1.485000
   175  Cl    c     6.607871   -2.169318   -6.584903    0.000000    1.485000
   176  Cl    c    -2.169318    6.607871    6.584903    0.000000    1.485000
   177  Cl    c    -2.169318    6.607871   -6.584903    0.000000    1.485000
   178  Na    c     2.200572   -0.009754    8.826205    0.000000    1.000000
   179  Na    c     2.200572   -0.009754   -8.826205    0.000000    1.000000
   180  Na    c    -0.009754    2.200572    8.826205    0.000000    1.000000
   181  Na    c    -0.009754    2.200572   -8.826205    0.000000    1.000000
   182  Na    c     6.619499   -4.442542    4.413036    0.000000    1.000000
   183  Na    c     6.619499   -4.442542   -4.413036    0.000000    1.000000
   184  Na    c    -4.442542    6.619499    4.413036    0.000000    1.000000
   185  Na    c    -4.442542    6.619499   -4.413036    0.000000    1.000000
   186  Na    c    -6.636758    4.455693    0.000000    0.000000    1.000000
   187  Na    c     4.455693   -6.636758    0.000000    0.000000    1.000000
   188  Cl    c     2.210802   -6.582533   -2.199924    0.000000    1.485000
   189  Cl    c     2.210802   -6.582533    2.199924    0.000000    1.485000
   190  Cl    c    -6.582533    2.210802   -2.199924    0.000000    1.485000
   191  Cl    c    -6.582533    2.210802    2.199924    0.000000    1.485000
   192  Cl    c    -2.166064   -2.166064    6.562328    0.000000    1.485000
   193  Cl    c    -2.166064   -2.166064   -6.562328    0.000000    1.485000
   194  Na    c    -6.591253   -0.049366    0.000000    0.000000    1.000000
   195  Na    c    -0.049366   -6.591253    0.000000    0.000000    1.000000
   196  Na    c    -2.197512   -4.434566    4.422742    0.000000    1.000000
   197  Na    c    -2.197512   -4.434566   -4.422742    0.000000    1.000000
   198  Na    c    -4.434566   -2.197512    4.422742    0.000000    1.000000
   199  Na    c    -4.434566   -2.197512   -4.422742    0.000000    1.000000
   200  O     c     8.831127    8.831127    0.000000    0.000000    0.183000
   201  O     c     4.406231    4.406231    8.860037    0.000000    0.183000
   202  O     c     4.406231    4.406231   -8.860037    0.000000    0.183000
   203  O     c     4.411253    0.000589    8.820316    0.000000    0.183000
   204  O     c     4.411253    0.000589   -8.820316    0.000000    0.183000
   205  O     c     0.000589    4.411253    8.820316    0.000000    0.183000
   206  O     c     0.000589    4.411253   -8.820316    0.000000    0.183000
   207  O     c     8.831691   -4.417562    0.000000    0.000000    0.183000
   208  O     c    -4.417562    8.831691    0.000000    0.000000    0.183000
   209  O     c    -0.000710   -0.000710    8.805419    0.000000    0.183000
   210  O     c    -0.000710   -0.000710   -8.805419    0.000000    0.183000
   211  O     c    -4.373476   -4.373476    0.000000    0.000000    0.183000
   212  Na    c     8.879924    8.879924   -2.207661    0.000000    1.000000
   213  Na    c     8.879924    8.879924    2.207661    0.000000    1.000000
   214  Na    c     4.415178    8.859668    6.633813    0.000000    1.000000
   215  Na    c     4.415178    8.859668   -6.633813    0.000000    1.000000
   216  Na    c     8.859668    4.415178    6.633813    0.000000    1.000000
   217  Na    c     8.859668    4.415178   -6.633813    0.000000    1.000000
   218  Na    c     8.831608   -0.027316    6.618582    0.000000    1.000000
   219  Na    c     8.831608   -0.027316   -6.618582    0.000000    1.000000
   220  Na    c    -0.027316    8.831608    6.618582    0.000000    1.000000
   221  Na    c    -0.027316    8.831608   -6.618582    0.000000    1.000000
   222  Na    c     8.821674   -4.440214   -2.209966    0.000000    1.000000
   223  Na    c     8.821674   -4.440214    2.209966    0.000000    1.000000
   224  Na    c    -4.440214    8.821674   -2.209966    0.000000    1.000000
   225  Na    c    -4.440214    8.821674    2.209966    0.000000    1.000000
   226  Na    c     4.418395   -4.443054    6.611975    0.000000    1.000000
   227  Na    c     4.418395   -4.443054   -6.611975    0.000000    1.000000
   228  Na    c    -4.443054    4.418395    6.611975    0.000000    1.000000
   229  Na    c    -4.443054    4.418395   -6.611975    0.000000    1.000000
   230  Na    c    -0.014824   -4.387769    6.599156    0.000000    1.000000
   231  Na    c    -0.014824   -4.387769   -6.599156    0.000000    1.000000
   232  Na    c    -4.387769   -0.014824    6.599156    0.000000    1.000000
   233  Na    c    -4.387769   -0.014824   -6.599156    0.000000    1.000000
   234  Na    c    -4.428290   -4.428290   -2.196165    0.000000    1.000000
   235  Na    c    -4.428290   -4.428290    2.196165    0.000000    1.000000
   236  Cl    c     6.638738   10.992094   -2.218679    0.000000    1.485000
   237  Cl    c     6.638738   10.992094    2.218679    0.000000    1.485000
   238  Cl    c    10.992094    6.638738   -2.218679    0.000000    1.485000
   239  Cl    c    10.992094    6.638738    2.218679    0.000000    1.485000
   240  Na    c    11.037814    4.390028    4.429041    0.000000    1.000000
   241  Na    c    11.037814    4.390028   -4.429041    0.000000    1.000000
   242  Na    c     4.390028   11.037814    4.429041    0.000000    1.000000
   243  Na    c     4.390028   11.037814   -4.429041    0.000000    1.000000
   244  Na    c     6.612699    4.400841    8.848938    0.000000    1.000000
   245  Na    c     6.612699    4.400841   -8.848938    0.000000    1.000000
   246  Na    c     4.400841    6.612699    8.848938    0.000000    1.000000
   247  Na    c     4.400841    6.612699   -8.848938    0.000000    1.000000
   248  Na    c    11.028007   -0.006301    4.420549    0.000000    1.000000
   249  Na    c    11.028007   -0.006301   -4.420549    0.000000    1.000000
   250  Na    c    -0.006301   11.028007    4.420549    0.000000    1.000000
   251  Na    c    -0.006301   11.028007   -4.420549    0.000000    1.000000
   252  Cl    c    11.009631   -2.180229   -2.196112    0.000000    1.485000
   253  Cl    c    11.009631   -2.180229    2.196112    0.000000    1.485000
   254  Cl    c    -2.180229   11.009631   -2.196112    0.000000    1.485000
   255  Cl    c    -2.180229   11.009631    2.196112    0.000000    1.485000
   256  Na    c     6.614465   -0.013628    8.835640    0.000000    1.000000
   257  Na    c     6.614465   -0.013628   -8.835640    0.000000    1.000000
   258  Na    c    -0.013628    6.614465    8.835640    0.000000    1.000000
   259  Na    c    -0.013628    6.614465   -8.835640    0.000000    1.000000
   260  Na    c    -2.208861    4.397664    8.814873    0.000000    1.000000
   261  Na    c    -2.208861    4.397664   -8.814873    0.000000    1.000000
   262  Na    c     4.397664   -2.208861    8.814873    0.000000    1.000000
   263  Na    c     4.397664   -2.208861   -8.814873    0.000000    1.000000
   264  Cl    c     6.616494   -6.585834   -2.201366    0.000000    1.485000
   265  Cl    c     6.616494   -6.585834    2.201366    0.000000    1.485000
   266  Cl    c    -6.585834    6.616494   -2.201366    0.000000    1.485000
   267  Cl    c    -6.585834    6.616494    2.201366    0.000000    1.485000
   268  Na    c    -6.618906    4.389600    4.410094    0.000000    1.000000
   269  Na    c    -6.618906    4.389600   -4.410094    0.000000    1.000000
   270  Na    c     4.389600   -6.618906    4.410094    0.000000    1.000000
   271  Na    c     4.389600   -6.618906   -4.410094    0.000000    1.000000
   272  Na    c    -2.204055   -0.006545    8.824053    0.000000    1.000000
   273  Na    c    -2.204055   -0.006545   -8.824053    0.000000    1.000000
   274  Na    c    -0.006545   -2.204055    8.824053    0.000000    1.000000
   275  Na    c    -0.006545   -2.204055   -8.824053    0.000000    1.000000
   276  Na    c    -6.603188    0.010292    4.391562    0.000000    1.000000
   277  Na    c    -6.603188    0.010292   -4.391562    0.000000    1.000000
   278  Na    c     0.010292   -6.603188    4.391562    0.000000    1.000000
   279  Na    c     0.010292   -6.603188   -4.391562    0.000000    1.000000
   280  Cl    c    -2.184531   -6.566297   -2.193537    0.000000    1.485000
   281  Cl    c    -2.184531   -6.566297    2.193537    0.000000    1.485000
   282  Cl    c    -6.566297   -2.184531   -2.193537    0.000000    1.485000
   283  Cl    c    -6.566297   -2.184531    2.193537    0.000000    1.485000
   284  O     c     8.808611    8.808611    4.394640    0.000000    0.183000
   285  O     c     8.808611    8.808611   -4.394640    0.000000    0.183000
   286  O     c     8.822632   -4.413594    4.410101    0.000000    0.183000
   287  O     c     8.822632   -4.413594   -4.410101    0.000000    0.183000
   288  O     c    -4.413594    8.822632    4.410101    0.000000    0.183000
   289  O     c    -4.413594    8.822632   -4.410101    0.000000    0.183000
   290  O     c    -4.396975   -4.396975    4.393304    0.000000    0.183000
   291  O     c    -4.396975   -4.396975   -4.393304    0.000000    0.183000
   292  Na    c    11.042567    8.844364    0.000000    0.000000    1.000000
   293  Na    c     8.844364   11.042567    0.000000    0.000000    1.000000
   294  Na    c     2.196853   13.273475    0.000000    0.000000    1.000000
   295  Na    c    13.273475    2.196853    0.000000    0.000000    1.000000
   296  Cl    c     2.219417   10.998671    6.588631    0.000000    1.485000
   297  Cl    c     2.219417   10.998671   -6.588631    0.000000    1.485000
   298  Cl    c    10.998671    2.219417    6.588631    0.000000    1.485000
   299  Cl    c    10.998671    2.219417   -6.588631    0.000000    1.485000
   300  Na    c     2.199382    8.810520    8.832748    0.000000    1.000000
   301  Na    c     2.199382    8.810520   -8.832748    0.000000    1.000000
   302  Na    c     8.810520    2.199382    8.832748    0.000000    1.000000
   303  Na    c     8.810520    2.199382   -8.832748    0.000000    1.000000
   304  Na    c    11.031077   -4.470089    0.000000    0.000000    1.000000
   305  Na    c    -4.470089   11.031077    0.000000    0.000000    1.000000
   306  Cl    c     2.204129    2.204129   10.989212    0.000000    1.485000
   307  Cl    c     2.204129    2.204129  -10.989212    0.000000    1.485000
   308  Na    c    -6.625830    8.808771    0.000000    0.000000    1.000000
   309  Na    c     8.808771   -6.625830    0.000000    0.000000    1.000000
   310  Na    c     2.201924   -4.423353    8.819290    0.000000    1.000000
   311  Na    c     2.201924   -4.423353   -8.819290    0.000000    1.000000
   312  Na    c    -4.423353    2.201924    8.819290    0.000000    1.000000
   313  Na    c    -4.423353    2.201924   -8.819290    0.000000    1.000000
   314  Cl    c     2.209769   -6.581391    6.593039    0.000000    1.485000
   315  Cl    c     2.209769   -6.581391   -6.593039    0.000000    1.485000
   316  Cl    c    -6.581391    2.209769    6.593039    0.000000    1.485000
   317  Cl    c    -6.581391    2.209769   -6.593039    0.000000    1.485000
   318  Na    c     2.199775   -8.804177    0.000000    0.000000    1.000000
   319  Na    c    -8.804177    2.199775    0.000000    0.000000    1.000000
   320  Na    c    -6.601430   -4.378457    0.000000    0.000000    1.000000
   321  Na    c    -4.378457   -6.601430    0.000000    0.000000    1.000000
   322  O     c     4.407664   13.255869    0.000000    0.000000    0.183000
   323  O     c    13.255869    4.407664    0.000000    0.000000    0.183000
   324  O     c     4.409087    8.810573    8.811395    0.000000    0.183000
   325  O     c     4.409087    8.810573   -8.811395    0.000000    0.183000
   326  O     c     8.810573    4.409087    8.811395    0.000000    0.183000
   327  O     c     8.810573    4.409087   -8.811395    0.000000    0.183000
   328  O     c    13.232290    0.002025    0.000000    0.000000    0.183000
   329  O     c     0.002025   13.232290    0.000000    0.000000    0.183000
   330  O     c     8.812325   -0.001096    8.809482    0.000000    0.183000
   331  O     c     8.812325   -0.001096   -8.809482    0.000000    0.183000
   332  O     c    -0.001096    8.812325    8.809482    0.000000    0.183000
   333  O     c    -0.001096    8.812325   -8.809482    0.000000    0.183000
   334  O     c     4.406925   -4.402757    8.806296    0.000000    0.183000
   335  O     c     4.406925   -4.402757   -8.806296    0.000000    0.183000
   336  O     c    -4.402757    4.406925    8.806296    0.000000    0.183000
   337  O     c    -4.402757    4.406925   -8.806296    0.000000    0.183000
   338  O     c     4.410977   -8.817240    0.000000    0.000000    0.183000
   339  O     c    -8.817240    4.410977    0.000000    0.000000    0.183000
   340  O     c     0.001986   -4.397811    8.803598    0.000000    0.183000
   341  O     c     0.001986   -4.397811   -8.803598    0.000000    0.183000
   342  O     c    -4.397811    0.001986    8.803598    0.000000    0.183000
   343  O     c    -4.397811    0.001986   -8.803598    0.000000    0.183000
   344  O     c    -0.003977   -8.798457    0.000000    0.000000    0.183000
   345  O     c    -8.798457   -0.003977    0.000000    0.000000    0.183000
   346  Na    c     8.810514    8.810514    6.620320    0.000000    1.000000
   347  Na    c     8.810514    8.810514   -6.620320    0.000000    1.000000
   348  Na    c     4.402203   13.270337   -2.211035    0.000000    1.000000
   349  Na    c     4.402203   13.270337    2.211035    0.000000    1.000000
   350  Na    c    13.270337    4.402203   -2.211035    0.000000    1.000000
   351  Na    c    13.270337    4.402203    2.211035    0.000000    1.000000
   352  Na    c    13.248952   -0.014555   -2.208412    0.000000    1.000000
   353  Na    c    13.248952   -0.014555    2.208412    0.000000    1.000000
   354  Na    c    -0.014555   13.248952   -2.208412    0.000000    1.000000
   355  Na    c    -0.014555   13.248952    2.208412    0.000000    1.000000
   356  Na    c     4.421842    4.421842   11.044581    0.000000    1.000000
   357  Na    c     4.421842    4.421842  -11.044581    0.000000    1.000000
   358  Na    c     4.402716   -0.037964   11.026947    0.000000    1.000000
   359  Na    c     4.402716   -0.037964  -11.026947    0.000000    1.000000
   360  Na    c    -0.037964    4.402716   11.026947    0.000000    1.000000
   361  Na    c    -0.037964    4.402716  -11.026947    0.000000    1.000000
   362  Na    c     8.812039   -4.422035    6.615981    0.000000    1.000000
   363  Na    c     8.812039   -4.422035   -6.615981    0.000000    1.000000
   364  Na    c    -4.422035    8.812039    6.615981    0.000000    1.000000
[...]
    121 y          0.000000     -0.006216    -0.006216    Cartesian    0.00
    121 z         11.014756     11.019023     0.004267    Cartesian    0.04
    122 x          4.405902      4.402134    -0.003769    Cartesian   -0.09
    122 y         -8.811805     -8.843000    -0.031195    Cartesian    0.35
    122 z         -2.202951     -2.205499    -0.002548    Cartesian    0.12
    123 x          0.000000     -0.003981    -0.003981    Cartesian    0.00
    123 y         -8.811805     -8.828144    -0.016339    Cartesian    0.19
    123 z         -2.202951     -2.203100    -0.000149    Cartesian    0.01
    124 x         -4.405902     -4.411349    -0.005447    Cartesian    0.12
    124 y         -4.405902     -4.411349    -0.005447    Cartesian    0.12
    124 z          6.608853      6.609720     0.000866    Cartesian    0.01
    125 x          6.608853      6.617597     0.008744    Cartesian    0.13
    125 y         13.217707     13.282100     0.064393    Cartesian    0.49
    125 z          0.000000      0.000000     0.000000    Cartesian    0.00
    126 x         11.014756     11.028165     0.013409    Cartesian    0.12
    126 y          8.811805      8.833300     0.021495    Cartesian    0.24
    126 z          4.405902      4.426439     0.020537    Cartesian    0.47
    127 x          6.608853      6.600431    -0.008423    Cartesian   -0.13
    127 y         11.014756     10.989505    -0.025250    Cartesian   -0.23
    127 z          6.608853      6.584331    -0.024522    Cartesian   -0.37
    128 x          2.202951      2.198575    -0.004377    Cartesian   -0.20
    128 y         13.217707     13.253249     0.035542    Cartesian    0.27
    128 z          4.405902      4.419341     0.013439    Cartesian    0.31
    129 x          6.608853      6.613744     0.004891    Cartesian    0.07
    129 y          8.811805      8.820217     0.008413    Cartesian    0.10
    129 z          8.811805      8.847132     0.035327    Cartesian    0.40
    130 x         -2.202951     -2.212663    -0.009712    Cartesian    0.44
    130 y         13.217707     13.257414     0.039707    Cartesian    0.30
    130 z          0.000000      0.000000     0.000000    Cartesian    0.00
    131 x          2.202951      2.206614     0.003663    Cartesian    0.17
    131 y          6.608853      6.608875     0.000022    Cartesian    0.00
    131 z         11.014756     10.979651    -0.035104    Cartesian   -0.32
    132 x         11.014756     10.987824    -0.026932    Cartesian   -0.24
    132 y         -2.202951     -2.172726     0.030225    Cartesian   -1.37
    132 z          6.608853      6.584552    -0.024302    Cartesian   -0.37
    133 x         -2.202951     -2.209101    -0.006150    Cartesian    0.28
    133 y          8.811805      8.827267     0.015462    Cartesian    0.18
    133 z          8.811805      8.840805     0.029000    Cartesian    0.33
    134 x         11.014756     11.024202     0.009447    Cartesian    0.09
    134 y         -4.405902     -4.438806    -0.032903    Cartesian    0.75
    134 z          4.405902      4.424396     0.018494    Cartesian    0.42
    135 x          6.608853      6.611268     0.002414    Cartesian    0.04
    135 y         -4.405902     -4.426062    -0.020160    Cartesian    0.46
    135 z          8.811805      8.841266     0.029462    Cartesian    0.33
    136 x         -6.608853     -6.621831    -0.012977    Cartesian    0.20
    136 y          8.811805      8.829985     0.018181    Cartesian    0.21
    136 z          4.405902      4.419864     0.013962    Cartesian    0.32
    137 x          2.202951      2.208154     0.005203    Cartesian    0.24
    137 y         -2.202951     -2.186592     0.016359    Cartesian   -0.74
    137 z         11.014756     10.980522    -0.034234    Cartesian   -0.31
    138 x          6.608853      6.601217    -0.007637    Cartesian   -0.12
    138 y         -6.608853     -6.577200     0.031654    Cartesian   -0.48
    138 z          6.608853      6.596213    -0.012641    Cartesian   -0.19
    139 x          6.608853      6.615263     0.006410    Cartesian    0.10
    139 y         -8.811805     -8.864285    -0.052481    Cartesian    0.60
    139 z          0.000000      0.000000     0.000000    Cartesian    0.00
    140 x          2.202951      2.200777    -0.002175    Cartesian   -0.10
    140 y         -8.811805     -8.847924    -0.036119    Cartesian    0.41
    140 z          4.405902      4.419896     0.013993    Cartesian    0.32
    141 x         -2.202951     -2.205412    -0.002461    Cartesian    0.11
    141 y         -4.405902     -4.425922    -0.020020    Cartesian    0.45
    141 z          8.811805      8.832783     0.020979    Cartesian    0.24
    142 x         -2.202951     -2.191709     0.011242    Cartesian   -0.51
    142 y         -6.608853     -6.569579     0.039274    Cartesian   -0.59
    142 z          6.608853      6.585983    -0.022870    Cartesian   -0.35
    143 x         -2.202951     -2.208021    -0.005070    Cartesian    0.23
    143 y         -8.811805     -8.848821    -0.037017    Cartesian    0.42
    143 z          0.000000      0.000000     0.000000    Cartesian    0.00
    144 x         -6.608853     -6.614005    -0.005151    Cartesian    0.08
    144 y         -4.405902     -4.420659    -0.014756    Cartesian    0.33
    144 z          4.405902      4.413849     0.007947    Cartesian    0.18
    145 x          2.202951      2.672370     0.469419    Cartesian   21.31
    145 y          2.202951      2.672370     0.469419    Cartesian   21.31
    145 z         -2.202951     -1.850475     0.352476    Cartesian  -16.00
    146 x          0.360320      0.360320     0.000000    Cartesian    0.00
    146 y          0.360320      0.360320     0.000000    Cartesian    0.00
    146 z          0.000000      0.000000     0.000000    Cartesian    0.00
    147 x          4.405902      4.544190     0.138287    Cartesian    3.14
    147 y          0.000000     -0.121276    -0.121276    Cartesian    0.00
    147 z          0.000000      0.000000     0.000000    Cartesian    0.00
    148 x          2.202951      2.582716     0.379765    Cartesian   17.24
    148 y          6.608853      6.389824    -0.219030    Cartesian   -3.31
    148 z         -2.202951     -1.912520     0.290431    Cartesian  -13.18
    149 x          2.202951      2.251750     0.048798    Cartesian    2.22
    149 y         -2.202951     -2.116560     0.086391    Cartesian   -3.92
    149 z         -2.202951     -2.196380     0.006571    Cartesian   -0.30
    150 x          4.405902      4.428158     0.022255    Cartesian    0.51
    150 y          4.405902      4.428158     0.022255    Cartesian    0.51
    150 z          4.405902      4.573503     0.167601    Cartesian    3.80
    151 x          4.405902      4.437010     0.031107    Cartesian    0.71
    151 y          0.000000      0.011859     0.011859    Cartesian    0.00
    151 z          4.405902      4.408693     0.002791    Cartesian    0.06
    152 x          0.000000      0.058636     0.058636    Cartesian    0.00
    152 y          0.000000      0.058636     0.058636    Cartesian    0.00
    152 z          4.405902      4.378967    -0.026936    Cartesian   -0.61
    153 x          6.608853      6.333637    -0.275217    Cartesian   -4.16
    153 y          6.608853      6.333637    -0.275217    Cartesian   -4.16
    153 z         -2.202951     -1.867290     0.335662    Cartesian  -15.24
    154 x          2.202951      2.212798     0.009846    Cartesian    0.45
    154 y          2.202951      2.212798     0.009846    Cartesian    0.45
    154 z          6.608853      6.566515    -0.042338    Cartesian   -0.64
    155 x          6.608853      6.659959     0.051106    Cartesian    0.77
    155 y         -2.202951     -2.168559     0.034392    Cartesian   -1.56
    155 z         -2.202951     -2.229345    -0.026394    Cartesian    1.20
    156 x         -2.202951     -2.025855     0.177096    Cartesian   -8.04
    156 y         -2.202951     -2.025855     0.177096    Cartesian   -8.04
    156 z         -2.202951     -2.090668     0.112283    Cartesian   -5.10
    157 x          4.405902      4.419026     0.013123    Cartesian    0.30
    157 y          8.811805      8.986724     0.174920    Cartesian    1.99
    157 z          0.000000      0.000000     0.000000    Cartesian    0.00
    158 x          8.811805      8.862669     0.050864    Cartesian    0.58
    158 y          0.000000     -0.010680    -0.010680    Cartesian    0.00
    158 z          0.000000      0.000000     0.000000    Cartesian    0.00
    159 x          4.405902      4.426570     0.020668    Cartesian    0.47
    159 y         -4.405902     -4.439132    -0.033230    Cartesian    0.75
    159 z          0.000000      0.000000     0.000000    Cartesian    0.00
    160 x          0.000000      0.044410     0.044410    Cartesian    0.00
    160 y         -4.405902     -4.348375     0.057527    Cartesian   -1.31
    160 z          0.000000      0.000000     0.000000    Cartesian    0.00
    161 x          2.202951      2.197065    -0.005886    Cartesian   -0.27
    161 y          6.608853      6.635927     0.027074    Cartesian    0.41
    161 z          6.608853      6.569490    -0.039363    Cartesian   -0.60
    162 x          2.202951      2.233706     0.030755    Cartesian    1.40
    162 y         -2.202951     -2.152929     0.050022    Cartesian   -2.27
    162 z          6.608853      6.568874    -0.039979    Cartesian   -0.60
    163 x          4.405902      4.412499     0.006597    Cartesian    0.15
    163 y          8.811805      8.825090     0.013285    Cartesian    0.15
    163 z          4.405902      4.416954     0.011051    Cartesian    0.25
    164 x          8.811805      8.813431     0.001626    Cartesian    0.02
    164 y          0.000000      0.015482     0.015482    Cartesian    0.00
    164 z          4.405902      4.394685    -0.011217    Cartesian   -0.25
    165 x          4.405902      4.412050     0.006147    Cartesian    0.14
    165 y         -4.405902     -4.407241    -0.001339    Cartesian    0.03
    165 z          4.405902      4.405321    -0.000581    Cartesian   -0.01
    166 x          0.000000      0.006687     0.006687    Cartesian    0.00
    166 y         -4.405902     -4.378832     0.027070    Cartesian   -0.61
    166 z          4.405902      4.388354    -0.017549    Cartesian   -0.40
    167 x          2.202951      2.201392    -0.001559    Cartesian   -0.07
    167 y         11.014756     10.994386    -0.020370    Cartesian   -0.18
    167 z         -2.202951     -2.217934    -0.014983    Cartesian    0.68
    168 x          6.608853      6.638584     0.029730    Cartesian    0.45
    168 y          6.608853      6.638584     0.029730    Cartesian    0.45
    168 z          6.608853      6.573566    -0.035287    Cartesian   -0.53
    169 x          6.608853      6.605898    -0.002955    Cartesian   -0.04
    169 y         -2.202951     -2.160121     0.042830    Cartesian   -1.94
    169 z          6.608853      6.576726    -0.032127    Cartesian   -0.49
    170 x          2.202951      2.212456     0.009504    Cartesian    0.43
    170 y         -6.608853     -6.576515     0.032338    Cartesian   -0.49
    170 z         -2.202951     -2.198737     0.004214    Cartesian   -0.19
    171 x         -2.202951     -2.161602     0.041350    Cartesian   -1.88
    171 y         -2.202951     -2.161602     0.041350    Cartesian   -1.88
    171 z          6.608853      6.558552    -0.050302    Cartesian   -0.76
    172 x          8.811805      8.831154     0.019349    Cartesian    0.22
    172 y          8.811805      8.831154     0.019349    Cartesian    0.22
    172 z          0.000000      0.000000     0.000000    Cartesian    0.00
    173 x          4.405902      4.406230     0.000328    Cartesian    0.01
    173 y          4.405902      4.406230     0.000328    Cartesian    0.01
    173 z          8.811805      8.860006     0.048201    Cartesian    0.55
    174 x          4.405902      4.411260     0.005358    Cartesian    0.12
    174 y          0.000000      0.000594     0.000594    Cartesian    0.00
    174 z          8.811805      8.820308     0.008504    Cartesian    0.10
    175 x          8.811805      8.831703     0.019898    Cartesian    0.23
    175 y         -4.405902     -4.417549    -0.011647    Cartesian    0.26
    175 z          0.000000      0.000000     0.000000    Cartesian    0.00
    176 x          0.000000     -0.000715    -0.000715    Cartesian    0.00
    176 y          0.000000     -0.000715    -0.000715    Cartesian    0.00
    176 z          8.811805      8.805417    -0.006387    Cartesian   -0.07
    177 x         -4.405902     -4.373469     0.032433    Cartesian   -0.74
    177 y         -4.405902     -4.373469     0.032433    Cartesian   -0.74
    177 z          0.000000      0.000000     0.000000    Cartesian    0.00
    178 x          6.608853      6.640398     0.031544    Cartesian    0.48
    178 y         11.014756     10.984709    -0.030047    Cartesian   -0.27
    178 z         -2.202951     -2.218005    -0.015054    Cartesian    0.68
    179 x         11.014756     11.003217    -0.011539    Cartesian   -0.10
    179 y         -2.202951     -2.172638     0.030313    Cartesian   -1.38
    179 z         -2.202951     -2.193599     0.009352    Cartesian   -0.42
    180 x          6.608853      6.616303     0.007450    Cartesian    0.11
    180 y         -6.608853     -6.580065     0.028788    Cartesian   -0.44
    180 z         -2.202951     -2.200388     0.002563    Cartesian   -0.12
    181 x         -2.202951     -2.182585     0.020366    Cartesian   -0.92
    181 y         -6.608853     -6.563066     0.045788    Cartesian   -0.69
    181 z         -2.202951     -2.193149     0.009802    Cartesian   -0.44
    182 x          8.811805      8.808615    -0.003189    Cartesian   -0.04
    182 y          8.811805      8.808615    -0.003189    Cartesian   -0.04
    182 z          4.405902      4.394636    -0.011266    Cartesian   -0.26
    183 x          8.811805      8.822636     0.010831    Cartesian    0.12
    183 y         -4.405902     -4.413596    -0.007694    Cartesian    0.17
    183 z          4.405902      4.410100     0.004198    Cartesian    0.10
    184 x         -4.405902     -4.396974     0.008928    Cartesian   -0.20
    184 y         -4.405902     -4.396974     0.008928    Cartesian   -0.20
    184 z          4.405902      4.393300    -0.012602    Cartesian   -0.29
    185 x          2.202951      2.222607     0.019656    Cartesian    0.89
    185 y         11.014756     10.993965    -0.020791    Cartesian   -0.19
    185 z          6.608853      6.583129    -0.025724    Cartesian   -0.39
    186 x          2.202951      2.205806     0.002854    Cartesian    0.13
    186 y          2.202951      2.205806     0.002854    Cartesian    0.13
    186 z         11.014756     10.983113    -0.031643    Cartesian   -0.29
    187 x          2.202951      2.212062     0.009110    Cartesian    0.41
    187 y         -6.608853     -6.577902     0.030951    Cartesian   -0.47
    187 z          6.608853      6.591270    -0.017583    Cartesian   -0.27
    188 x          4.405902      4.407662     0.001760    Cartesian    0.04
    188 y         13.217707     13.255853     0.038146    Cartesian    0.29
    188 z          0.000000      0.000000     0.000000    Cartesian    0.00
    189 x          4.405902      4.409091     0.003189    Cartesian    0.07
    189 y          8.811805      8.810578    -0.001227    Cartesian   -0.01
    189 z          8.811805      8.811381    -0.000423    Cartesian   -0.00
    190 x         13.217707     13.232285     0.014578    Cartesian    0.11
    190 y          0.000000      0.002037     0.002037    Cartesian    0.00
    190 z          0.000000      0.000000     0.000000    Cartesian    0.00
    191 x          8.811805      8.812325     0.000521    Cartesian    0.01
    191 y          0.000000     -0.001094    -0.001094    Cartesian    0.00
    191 z          8.811805      8.809480    -0.002324    Cartesian   -0.03
    192 x          4.405902      4.406926     0.001023    Cartesian    0.02
    192 y         -4.405902     -4.402759     0.003143    Cartesian   -0.07
    192 z          8.811805      8.806291    -0.005513    Cartesian   -0.06
    193 x          4.405902      4.410990     0.005087    Cartesian    0.12
    193 y         -8.811805     -8.817236    -0.005431    Cartesian    0.06
    193 z          0.000000      0.000000     0.000000    Cartesian    0.00
    194 x          0.000000      0.001989     0.001989    Cartesian    0.00
    194 y         -4.405902     -4.397800     0.008102    Cartesian   -0.18
    194 z          8.811805      8.803603    -0.008201    Cartesian   -0.09
    195 x          0.000000     -0.003983    -0.003983    Cartesian    0.00
    195 y         -8.811805     -8.798468     0.013337    Cartesian   -0.15
    195 z          0.000000      0.000000     0.000000    Cartesian    0.00
    196 x          6.608853      6.598235    -0.010618    Cartesian   -0.16
    196 y         11.014756     10.983178    -0.031578    Cartesian   -0.29
    196 z          6.608853      6.578190    -0.030663    Cartesian   -0.46
    197 x          2.202951      2.208224     0.005273    Cartesian    0.24
    197 y          6.608853      6.607965    -0.000888    Cartesian   -0.01
    197 z         11.014756     10.973099    -0.041657    Cartesian   -0.38
    198 x         11.014756     10.984017    -0.030739    Cartesian   -0.28
    198 y         -2.202951     -2.167798     0.035153    Cartesian   -1.60
    198 z          6.608853      6.581107    -0.027747    Cartesian   -0.42
    199 x          2.202951      2.209567     0.006616    Cartesian    0.30
    199 y         -2.202951     -2.183580     0.019371    Cartesian   -0.88
    199 z         11.014756     10.976385    -0.038371    Cartesian   -0.35
    200 x          6.608853      6.599885    -0.008969    Cartesian   -0.14
    200 y         -6.608853     -6.572192     0.036662    Cartesian   -0.55
    200 z          6.608853      6.594264    -0.014589    Cartesian   -0.22
    201 x         -2.202951     -2.190973     0.011978    Cartesian   -0.54
    201 y         -6.608853     -6.564562     0.044291    Cartesian   -0.67
    201 z          6.608853      6.583150    -0.025704    Cartesian   -0.39
--------------------------------------------------------------------------------


  Time to end of optimisation  =       45.9320 seconds


  Peak dynamic memory used =      90.31 MB 


  Timing analysis for GULP :

--------------------------------------------------------------------------------
  Task / Subroutine                                          Time (Seconds)
--------------------------------------------------------------------------------
  Calculation of reciprocal space energy and derivatives          0.0006
  Calculation of reciprocal space energy using symmetry           0.0011
  Calculation of real space energy and derivatives                0.0038
  Calculation of real space energy using symmetry                 0.0118
  Calculation for region 1 energy and derivatives (2-b)          24.5099
  Calculation for region 2a energy                               16.4699
  Calculation for region 2b energy                                0.0102
  Calculation and manipulation of Hessian matrix                  4.1176
  Calculation of matrix inversion                                 0.6537
  Symmetry generation of equivalent positions                     0.0046
--------------------------------------------------------------------------------
  Total CPU time                                                 45.9321
--------------------------------------------------------------------------------


  Dump file written as Na3OCl.grs


  Job Finished at 15:18.25 19th January    2021                               

