********************************************************************************
*                       GENERAL UTILITY LATTICE PROGRAM                        *
*                                 Julian Gale                                  *
*                       Curtin Institute for Computation                       *
*                    School of Molecular and Life Sciences                     *
*                    Curtin University, Western Australia                      *
********************************************************************************
* Version = 5.2.0 * Last modified =  10th September 2020                       *
********************************************************************************
*  optimise     - perform optimisation run                                     *
*  conp         - constant pressure calculation                                *
*  property     - calculate properties for final geometry                      *
*  defect       - perform defect calculation after bulk run                    *
*  compare      - compare initial and final structures                         *
********************************************************************************

  Job Started  at 15:18.13 19th January    2021                               

  Number of CPUs =     1


  Total number of configurations input =      1

********************************************************************************
*  Input for Configuration =   1                                               *
********************************************************************************

  Formula = OClNa3                                                      

  Number of irreducible atoms/shells =       5


  Total number atoms/shells =       7

  Dimensionality = 3               :  Bulk   


  Symmetry :

  Crystal family                   :  Cubic       
  Crystal class  (Groth - 1921)    :  Cubic Hexakisoctahedral              

  Space group (centrosymmetric)    :  P M 3 M         

  Patterson group                  :  P m -3 m 

  Cartesian lattice vectors (Angstroms) :

        4.504000    0.000000    0.000000
        0.000000    4.504000    0.000000
        0.000000    0.000000    4.504000

  Cell parameters (Angstroms/Degrees):

  a =       4.5040    alpha =  90.0000
  b =       4.5040    beta  =  90.0000
  c =       4.5040    gamma =  90.0000

  Initial cell volume =          91.368216 Angs**3

  Temperature of configuration =   0.00     K 

  Pressure of configuration =         0.000 GPa 

  Fractional coordinates of asymmetric unit :

--------------------------------------------------------------------------------
   No.  Atomic       x           y          z         Charge      Occupancy
        Label      (Frac)      (Frac)     (Frac)        (e)         (Frac)  
--------------------------------------------------------------------------------
      1 O     c    0.000000    0.000000    0.000000     0.18300    1.000000    
      2 Cl    c    0.500000    0.500000    0.500000     1.48500    1.000000    
      3 Na    c    0.500000    0.000000    0.000000     1.00000    1.000000    
      4 O     s    0.000000    0.000000    0.000000    -2.18300    1.000000    
      5 Cl    s    0.500000    0.500000    0.500000    -2.48500    1.000000    
--------------------------------------------------------------------------------


  Constraints : 

--------------------------------------------------------------------------------
  Constraint no.      Unconstrained     Constrained    Coefficient    Offset
                         Variable         Variable
--------------------------------------------------------------------------------
           1              Strain 1        Strain 2       1.00000      0.0000
           2              Strain 1        Strain 3       1.00000      0.0000
--------------------------------------------------------------------------------


********************************************************************************
*  General input information                                                   *
********************************************************************************

  Species output for all configurations : 

--------------------------------------------------------------------------------
  Species    Type    Atomic    Atomic    Charge       Radii (Angs)     Library
                     Number     Mass       (e)     Cova   Ionic  VDW   Symbol
--------------------------------------------------------------------------------
    Na       Core       11      22.99   1.000000   0.970  0.000  2.300          
    O        Core        8      16.00   0.183000   0.730  0.000  1.360          
    O        Shell       8       0.00  -2.183000   0.730  0.000  1.360          
    Cl       Core       17      35.45   1.485000   0.990  0.000  1.650          
    Cl       Shell      17       0.00  -2.485000   0.990  0.000  1.650          
    Mg       Core       12      24.31   0.415000   1.100  0.000  0.000          
    Mg       Shell      12       0.00   1.585000   1.100  0.000  0.000          
    Ca       Core       20      40.08  -1.135000   0.990  0.000  0.000          
    Ca       Shell      20       0.00   3.135000   0.990  0.000  0.000          
    Sr       Core       38      87.62  -1.251000   1.120  0.000  0.000          
    Sr       Shell      38       0.00   3.251000   1.120  0.000  0.000          
    Ba       Core       56     137.33  -7.203000   1.340  0.000  0.000          
    Ba       Shell      56       0.00   9.203000   1.340  0.000  0.000          
--------------------------------------------------------------------------------


  Lattice summation method               =    Ewald          (3-D)
                                         =    Parry          (2-D)
                                         =    Saunders et al (1-D)
  Accuracy factor for lattice sums       =   12.000


  Analytic derivatives to be used

  Time limit = Infinity

  Maximum range for interatomic potentials =    100000.000000 Angstroms

  General interatomic potentials :

--------------------------------------------------------------------------------
Atom  Types   Potential      Parameter       Value         Units   Cutoffs(Ang)
  1     2                                                            Min /  Max 
--------------------------------------------------------------------------------
O    c O    s Spring (c-s)  Spring k 2       593.71600    eV*Ang^-2 0.000  0.800
                            Spring k 4       0.0000000    eV*Ang^-4 
--------------------------------------------------------------------------------
Cl   c Cl   s Spring (c-s)  Spring k 2       29.380000    eV*Ang^-2 0.000  0.800
                            Spring k 4       0.0000000    eV*Ang^-4 
--------------------------------------------------------------------------------
Mg   c Mg   s Spring (c-s)  Spring k 2       361.60000    eV*Ang^-2 0.000  0.800
                            Spring k 4       0.0000000    eV*Ang^-4 
--------------------------------------------------------------------------------
Ca   c Ca   s Spring (c-s)  Spring k 2       110.20000    eV*Ang^-2 0.000  0.800
                            Spring k 4       0.0000000    eV*Ang^-4 
--------------------------------------------------------------------------------
Sr   c Sr   s Spring (c-s)  Spring k 2       71.700000    eV*Ang^-2 0.000  0.800
                            Spring k 4       0.0000000    eV*Ang^-4 
--------------------------------------------------------------------------------
Ba   c Ba   s Spring (c-s)  Spring k 2       495.20000    eV*Ang^-2 0.000  0.800
                            Spring k 4       0.0000000    eV*Ang^-4 
--------------------------------------------------------------------------------
Na   c Na   c Buckingham    Buckingham A     1788.1900    eV        0.000 12.000
                            Buckingham rho  0.15900000    Ang       
                            Buckingham C     0.0000000    eV*Ang^6  
--------------------------------------------------------------------------------
Na   c O    s Buckingham    Buckingham A     588.38000    eV        0.000 12.000
                            Buckingham rho  0.33800000    Ang       
                            Buckingham C     0.0000000    eV*Ang^6  
--------------------------------------------------------------------------------
Na   c Cl   s Buckingham    Buckingham A     1170.4100    eV        0.000 12.000
                            Buckingham rho  0.31500000    Ang       
                            Buckingham C     0.0000000    eV*Ang^6  
--------------------------------------------------------------------------------
O    s O    s Buckingham    Buckingham A     22764.300    eV        0.000 12.000
                            Buckingham rho  0.14900000    Ang       
                            Buckingham C     13.190000    eV*Ang^6  
--------------------------------------------------------------------------------
O    s Cl   s Buckingham    Buckingham A     8286.9100    eV        0.000 12.000
                            Buckingham rho  0.25900000    Ang       
                            Buckingham C     62.200000    eV*Ang^6  
--------------------------------------------------------------------------------
Cl   s Cl   s Buckingham    Buckingham A     1227.2000    eV        0.000 12.000
                            Buckingham rho  0.32100000    Ang       
                            Buckingham C     14.530000    eV*Ang^6  
--------------------------------------------------------------------------------
O    s Mg   s Buckingham    Buckingham A     1428.5000    eV        0.000 12.000
                            Buckingham rho  0.29450000    Ang       
                            Buckingham C     0.0000000    eV*Ang^6  
--------------------------------------------------------------------------------
Mg   s Cl   s Buckingham    Buckingham A     4914.5400    eV        0.000 12.000
                            Buckingham rho  0.25700000    Ang       
                            Buckingham C     0.0000000    eV*Ang^6  
--------------------------------------------------------------------------------
O    s Ca   s Buckingham    Buckingham A     1090.4000    eV        0.000 12.000
                            Buckingham rho  0.34370000    Ang       
                            Buckingham C     0.0000000    eV*Ang^6  
--------------------------------------------------------------------------------
Cl   s Ca   s Buckingham    Buckingham A     2302.0000    eV        0.000 12.000
                            Buckingham rho  0.34020000    Ang       
                            Buckingham C     0.0000000    eV*Ang^6  
--------------------------------------------------------------------------------
O    s Sr   s Buckingham    Buckingham A     959.10000    eV        0.000 12.000
                            Buckingham rho  0.37210000    Ang       
                            Buckingham C     0.0000000    eV*Ang^6  
--------------------------------------------------------------------------------
Cl   s Sr   s Buckingham    Buckingham A     2191.0900    eV        0.000 12.000
                            Buckingham rho  0.34570000    Ang       
                            Buckingham C     0.0000000    eV*Ang^6  
--------------------------------------------------------------------------------
O    s Ba   s Buckingham    Buckingham A     905.70000    eV        0.000 12.000
                            Buckingham rho  0.39760000    Ang       
                            Buckingham C     0.0000000    eV*Ang^6  
--------------------------------------------------------------------------------
Cl   s Ba   s Buckingham    Buckingham A     2704.5500    eV        0.000 12.000
                            Buckingham rho  0.35280000    Ang       
                            Buckingham C     0.0000000    eV*Ang^6  
--------------------------------------------------------------------------------

********************************************************************************
*  Output for configuration   1                                                *
********************************************************************************


  Components of energy : 

--------------------------------------------------------------------------------
  Interatomic potentials     =           4.94315381 eV    
  Monopole - monopole (real) =         -10.03624526 eV    
  Monopole - monopole (recip)=         -29.53581274 eV    
  Monopole - monopole (total)=         -39.57205800 eV    
--------------------------------------------------------------------------------
  Total lattice energy       =         -34.62890419 eV    
--------------------------------------------------------------------------------
  Total lattice energy       =           -3341.1599 kJ/(mole unit cells)
--------------------------------------------------------------------------------


  Number of variables =        1

  Maximum number of calculations  =          1000
  Maximum Hessian update interval =            10
  Maximum step size               =   1.000000000
  Maximum parameter tolerance     =   0.000010000
  Maximum function  tolerance     =   0.000010000
  Maximum gradient  tolerance     =   0.001000000
  Maximum gradient  component     =   0.010000000

  Symmetry constrained optimisation

  Symmetry used for second derivatives

  Cell parameters to be optimised using strains

  Newton-Raphson optimiser to be used

  BFGS hessian update to be used

  Lower half triangular hessian to be used

  Start of bulk optimisation :

  Cycle:      0 Energy:       -34.628904  Gnorm:      4.328237  CPU:    0.014
  ** Hessian calculated **
  Cycle:      1 Energy:       -34.677667  Gnorm:      0.044008  CPU:    0.018
  Cycle:      2 Energy:       -34.677671  Gnorm:      0.003653  CPU:    0.021


  **** Optimisation achieved ****


  Final energy =     -34.67767136 eV
  Final Gnorm  =       0.00000010

  Components of energy : 

--------------------------------------------------------------------------------
  Interatomic potentials     =           5.77546103 eV    
  Monopole - monopole (real) =         -10.25970290 eV    
  Monopole - monopole (recip)=         -30.19342950 eV    
  Monopole - monopole (total)=         -40.45313239 eV    
--------------------------------------------------------------------------------
  Total lattice energy       =         -34.67767136 eV    
--------------------------------------------------------------------------------
  Total lattice energy       =           -3345.8652 kJ/(mole unit cells)
--------------------------------------------------------------------------------

  Final asymmetric unit coordinates :

--------------------------------------------------------------------------------
   No.  Atomic        x           y           z         Radius
        Label       (Frac)      (Frac)      (Frac)       (Angs) 
--------------------------------------------------------------------------------
     1  O     c     0.000000    0.000000    0.000000    0.000000
     2  Cl    c     0.500000    0.500000    0.500000    0.000000
     3  Na    c     0.500000    0.000000    0.000000    0.000000
     4  O     s     0.000000    0.000000    0.000000    0.000000
     5  Cl    s     0.500000    0.500000    0.500000    0.000000
--------------------------------------------------------------------------------

  Final Cartesian lattice vectors (Angstroms) :

        4.405902    0.000000    0.000000
        0.000000    4.405902    0.000000
        0.000000    0.000000    4.405902


  Final cell parameters and derivatives :

--------------------------------------------------------------------------------
       a            4.405902 Angstrom     dE/de1(xx)     0.000000 eV/strain
       b            4.405902 Angstrom     dE/de2(yy)     0.000000 eV/strain
       c            4.405902 Angstrom     dE/de3(zz)     0.000000 eV/strain
       alpha       90.000000 Degrees      dE/de4(yz)     0.000000 eV/strain
       beta        90.000000 Degrees      dE/de5(xz)     0.000000 eV/strain
       gamma       90.000000 Degrees      dE/de6(xy)     0.000000 eV/strain
--------------------------------------------------------------------------------

  Primitive cell volume =            85.527266 Angs**3

  Density of cell =      2.338030 g/cm**3

  Non-primitive cell volume =            85.527266 Angs**3


  Final internal derivatives :

--------------------------------------------------------------------------------
   No.  Atomic          a             b             c           Radius
        Label          (eV)          (eV)          (eV)        (eV/Angs)
--------------------------------------------------------------------------------
      1 O     c       0.000000      0.000000      0.000000      0.000000
      2 Cl    c       0.000000      0.000000      0.000000      0.000000
      3 Na    c       0.000000      0.000000      0.000000      0.000000
      4 O     s       0.000000      0.000000      0.000000      0.000000
      5 Cl    s       0.000000      0.000000      0.000000      0.000000
--------------------------------------------------------------------------------
  Maximum abs         0.000000      0.000000      0.000000      0.000000
--------------------------------------------------------------------------------

  Comparison of initial and final structures : 

--------------------------------------------------------------------------------
  Parameter   Initial value   Final value   Difference    Units      Percent
--------------------------------------------------------------------------------
    Volume        91.368216     85.527266    -5.840950    Angs**3     -6.39
    a              4.504000      4.405902    -0.098098    Angstroms   -2.18
    b              4.504000      4.405902    -0.098098    Angstroms   -2.18
    c              4.504000      4.405902    -0.098098    Angstroms   -2.18
    alpha         90.000000     90.000000     0.000000    Degrees      0.00
    beta          90.000000     90.000000     0.000000    Degrees      0.00
    gamma         90.000000     90.000000     0.000000    Degrees      0.00
      1 x          0.000000      0.000000     0.000000    Fractional   0.00
      1 y          0.000000      0.000000     0.000000    Fractional   0.00
      1 z          0.000000      0.000000     0.000000    Fractional   0.00
      2 x          0.500000      0.500000     0.000000    Fractional   0.00
      2 y          0.500000      0.500000     0.000000    Fractional   0.00
      2 z          0.500000      0.500000     0.000000    Fractional   0.00
      3 x          0.500000      0.500000     0.000000    Fractional   0.00
      3 y          0.000000      0.000000     0.000000    Fractional   0.00
      3 z          0.000000      0.000000     0.000000    Fractional   0.00
      4 x          0.000000      0.000000     0.000000    Fractional   0.00
      4 y          0.000000      0.000000     0.000000    Fractional   0.00
      4 z          0.000000      0.000000     0.000000    Fractional   0.00
      5 x          0.500000      0.500000     0.000000    Fractional   0.00
      5 y          0.500000      0.500000     0.000000    Fractional   0.00
      5 z          0.500000      0.500000     0.000000    Fractional   0.00
--------------------------------------------------------------------------------


  Born effective charge tensors : 

-------------------------------------------------------------------------------
  Atom             x           y             z
-------------------------------------------------------------------------------
    1 O     x      -2.2939      0.0000      0.0000
            y       0.0000     -2.2939      0.0000
            z       0.0000      0.0000     -2.2939
-------------------------------------------------------------------------------
    2 Cl    x      -0.9918     -0.0000      0.0000
            y      -0.0000     -0.9918      0.0000
            z       0.0000      0.0000     -0.9918
-------------------------------------------------------------------------------
    3 Na    x       0.8372     -0.0000     -0.0000
            y      -0.0000      1.2243     -0.0000
            z       0.0000     -0.0000      1.2243
-------------------------------------------------------------------------------




  Elastic Constant Matrix: (Units=GPa)

-------------------------------------------------------------------------------
  Indices      1         2         3         4         5         6    
-------------------------------------------------------------------------------
       1     82.7680   24.3534   24.3534   -0.0000    0.0000   -0.0000
       2     24.3534   82.7680   24.3534   -0.0000   -0.0000   -0.0000
       3     24.3534   24.3534   82.7680    0.0000   -0.0000    0.0000
       4     -0.0000   -0.0000    0.0000   24.3534   -0.0000   -0.0000
       5      0.0000   -0.0000   -0.0000   -0.0000   24.3534   -0.0000
       6     -0.0000   -0.0000    0.0000   -0.0000   -0.0000   24.3534
-------------------------------------------------------------------------------


  Elastic Compliance Matrix: (Units=1/GPa)

-------------------------------------------------------------------------------
  Indices      1         2         3         4         5         6    
-------------------------------------------------------------------------------
       1    0.013948 -0.003171 -0.003171 -0.000000 -0.000000  0.000000
       2   -0.003171  0.013948 -0.003171  0.000000 -0.000000  0.000000
       3   -0.003171 -0.003171  0.013948 -0.000000  0.000000 -0.000000
       4   -0.000000  0.000000 -0.000000  0.041062  0.000000  0.000000
       5   -0.000000 -0.000000  0.000000  0.000000  0.041062  0.000000
       6    0.000000  0.000000 -0.000000  0.000000  0.000000  0.041062
-------------------------------------------------------------------------------

  Mechanical properties :

-------------------------------------------------------------------------------
  Convention :                    Reuss         Voigt         Hill
-------------------------------------------------------------------------------
  Bulk  Modulus (GPa)     =      43.82493      43.82493      43.82493
  Shear Modulus (GPa)     =      26.08758      26.29496      26.19127
-------------------------------------------------------------------------------
  Velocity S-wave (km/s)  =       3.34035       3.35360       3.34698
  Velocity P-wave (km/s)  =       5.79842       5.80861       5.80351
-------------------------------------------------------------------------------
  Compressibility (1/GPa) =    0.02281806
-------------------------------------------------------------------------------
  Stress axis :                     x             y             z
-------------------------------------------------------------------------------
  Youngs Moduli (GPa)     =      71.69479      71.69479      71.69479
-------------------------------------------------------------------------------
  Poissons Ratio (x)      =                     0.22734       0.22734
  Poissons Ratio (y)      =       0.22734                     0.22734
  Poissons Ratio (z)      =       0.22734       0.22734
-------------------------------------------------------------------------------


  Piezoelectric Strain Matrix: (Units=C/m**2)

-------------------------------------------------------------------------------
  Indices      1         2         3         4         5         6    
-------------------------------------------------------------------------------
       x    -0.00000  -0.00000  -0.00000  -0.00000   0.00000   0.00000
       y    -0.00000   0.00000  -0.00000   0.00000  -0.00000   0.00000
       z     0.00000   0.00000   0.00000  -0.00000   0.00000  -0.00000
-------------------------------------------------------------------------------


  Piezoelectric Stress Matrix: (Units=10**-11 C/N)

-------------------------------------------------------------------------------
  Indices      1         2         3         4         5         6    
-------------------------------------------------------------------------------
       x    -0.00000  -0.00000  -0.00000  -0.00000   0.00000   0.00000
       y    -0.00000   0.00000  -0.00000   0.00000  -0.00000   0.00000
       z     0.00000   0.00000  -0.00000  -0.00000   0.00000  -0.00000
-------------------------------------------------------------------------------


  Static dielectric constant tensor : 

-------------------------------------------------------------------------------
              x         y         z
-------------------------------------------------------------------------------
       x    11.08357  -0.00000  -0.00000
       y    -0.00000  11.08357  -0.00000
       z    -0.00000  -0.00000  11.08357
--------------------------------------------------------------------------------

  High frequency dielectric constant tensor : 

-------------------------------------------------------------------------------
              x         y         z
-------------------------------------------------------------------------------
       x     1.50771  -0.00000  -0.00000
       y    -0.00000   1.50771  -0.00000
       z    -0.00000  -0.00000   1.50771
-------------------------------------------------------------------------------

  Static refractive indices : 

-------------------------------------------------------------------------------
    1 =    3.32920      2 =    3.32920      3 =    3.32920
-------------------------------------------------------------------------------

  High frequency refractive indices : 

-------------------------------------------------------------------------------
    1 =    1.22789      2 =    1.22789      3 =    1.22789
-------------------------------------------------------------------------------


  Time to end of optimisation =       0.0302 seconds

********************************************************************************
*  Defect calculation for configuration   1 :                                  *
********************************************************************************

  Total number of defects =      3

  Total charge on defect  =   2.00

  Defect centre is at   2.2520   2.2520   0.0000  Angs

  Region 1 radius =  12.0000      Number of ions =    622

  Number of symmetry inequivalent region 1 ions  =    201

  Region 2 radius =  16.0000      Number of ions =    762

  Number of symmetry inequivalent region 2a ions =    224

  Region 2a mode = 4 : screened electrostatics due to region 1 
                       neglect correction to region 1 forces from 2a
                       region 2a displacements based on defects only

  Region 2a ions will only interact with defects in region 1

  Vacancies:

--------------------------------------------------------------------------------
    Specification type     Symbol/Number         x          y          z
--------------------------------------------------------------------------------
    Cartesian                                0.000000   0.000000   0.000000
    Cartesian                                4.504000   4.504000   0.000000
--------------------------------------------------------------------------------

  Interstitials:

--------------------------------------------------------------------------------
    Specification type     Symbol/Number         x          y          z
--------------------------------------------------------------------------------
    Atom/Cartesian          O                3.873440   3.873440   0.000000
--------------------------------------------------------------------------------


  Symmetry reduced region 1 (Relative to defect centre) :

--------------------------------------------------------------------------------
   No.   Atomic       x            y             z       Radius  Multiplicity   
         Label      (Angs)       (Angs)        (Angs)    (Angs)     
--------------------------------------------------------------------------------
     1  Na    c     -0.0490 *     2.1539 *     0.0000    0.0000     2          
     2  Cl    c     -0.0490 *    -0.0490      -2.2030 *  0.0000     2          
     3  Na    c     -0.0490 *    -2.2520 *     0.0000    0.0000     2          
     4  O     c      1.6214       1.6214       0.0000    0.0000     1    Defect
     5  O     c      2.1539 *    -2.2520 *     0.0000    0.0000     2          
     6  Na    c      2.1539 *     2.1539      -2.2030 *  0.0000     2          
     7  Na    c      2.1539 *    -2.2520 *    -2.2030 *  0.0000     4          
     8  Na    c     -2.2520 *    -2.2520      -2.2030 *  0.0000     2          
     9  Na    c      4.3569 *     2.1539 *     0.0000    0.0000     2          
    10  Cl    c     -0.0490 *     4.3569 *    -2.2030 *  0.0000     4          
    11  Na    c     -0.0490 *     2.1539 *     4.4059 *  0.0000     4          
    12  Na    c      4.3569 *    -2.2520 *     0.0000    0.0000     2          
    13  Na    c     -0.0490 *    -2.2520 *     4.4059 *  0.0000     4          
    14  Na    c     -4.4550 *     2.1539 *     0.0000    0.0000     2          
    15  Cl    c     -0.0490 *    -4.4550 *    -2.2030 *  0.0000     4          
    16  Na    c     -4.4550 *    -2.2520 *     0.0000    0.0000     2          
    17  O     c      2.1539 *     2.1539       4.4059 *  0.0000     2          
    18  O     c      2.1539 *    -2.2520 *     4.4059 *  0.0000     4          
    19  O     c     -2.2520 *    -2.2520       4.4059 *  0.0000     2          
    20  Cl    c      4.3569 *     4.3569      -2.2030 *  0.0000     2          
    21  Na    c     -0.0490 *     6.5598 *     0.0000    0.0000     2          
    22  Na    c      4.3569 *     2.1539 *     4.4059 *  0.0000     4          
    23  Na    c      4.3569 *    -2.2520 *     4.4059 *  0.0000     4          
    24  Cl    c     -0.0490 *    -0.0490       6.6089 *  0.0000     2          
    25  Cl    c      4.3569 *    -4.4550 *    -2.2030 *  0.0000     4          
    26  Na    c     -4.4550 *     2.1539 *     4.4059 *  0.0000     4          
    27  Na    c     -0.0490 *    -6.6579 *     0.0000    0.0000     2          
    28  Na    c     -4.4550 *    -2.2520 *     4.4059 *  0.0000     4          
    29  Cl    c     -4.4550 *    -4.4550      -2.2030 *  0.0000     2          
    30  O     c      2.1539 *     6.5598 *     0.0000    0.0000     2          
    31  O     c      6.5598 *    -2.2520 *     0.0000    0.0000     2          
    32  O     c      2.1539 *    -6.6579 *     0.0000    0.0000     2          
    33  O     c     -2.2520 *    -6.6579 *     0.0000    0.0000     2          
    34  Na    c      2.1539 *     6.5598 *    -2.2030 *  0.0000     4          
    35  Na    c      2.1539 *     2.1539       6.6089 *  0.0000     2          
    36  Na    c      6.5598 *    -2.2520 *    -2.2030 *  0.0000     4          
    37  Na    c      2.1539 *    -2.2520 *     6.6089 *  0.0000     4          
    38  Na    c      2.1539 *    -6.6579 *    -2.2030 *  0.0000     4          
    39  Na    c     -2.2520 *    -2.2520       6.6089 *  0.0000     2          
    40  Na    c     -2.2520 *    -6.6579 *    -2.2030 *  0.0000     4          
    41  Na    c      4.3569 *     6.5598 *     0.0000    0.0000     2          
    42  Na    c     -0.0490 *     6.5598 *     4.4059 *  0.0000     4          
    43  Cl    c     -0.0490 *     4.3569 *     6.6089 *  0.0000     4          
    44  Na    c     -4.4550 *     6.5598 *     0.0000    0.0000     2          
    45  Na    c      4.3569 *    -6.6579 *     0.0000    0.0000     2          
    46  Cl    c     -0.0490 *    -4.4550 *     6.6089 *  0.0000     4          
    47  Na    c     -0.0490 *    -6.6579 *     4.4059 *  0.0000     4          
    48  Na    c     -4.4550 *    -6.6579 *     0.0000    0.0000     2          
    49  O     c      2.1539 *     6.5598 *     4.4059 *  0.0000     4          
    50  O     c      6.5598 *    -2.2520 *     4.4059 *  0.0000     4          
    51  O     c      2.1539 *    -6.6579 *     4.4059 *  0.0000     4          
    52  O     c     -2.2520 *    -6.6579 *     4.4059 *  0.0000     4          
    53  Na    c      4.3569 *     6.5598 *     4.4059 *  0.0000     4          
    54  Na    c      8.7628 *     2.1539 *     0.0000    0.0000     2          
    55  Cl    c     -0.0490 *     8.7628 *    -2.2030 *  0.0000     4          
    56  Cl    c      4.3569 *     4.3569       6.6089 *  0.0000     2          
    57  Na    c      8.7628 *    -2.2520 *     0.0000    0.0000     2          
    58  Na    c     -0.0490 *     2.1539 *     8.8118 *  0.0000     4          
    59  Na    c     -4.4550 *     6.5598 *     4.4059 *  0.0000     4          
    60  Cl    c      4.3569 *    -4.4550 *     6.6089 *  0.0000     4          
    61  Na    c     -0.0490 *    -2.2520 *     8.8118 *  0.0000     4          
    62  Na    c      4.3569 *    -6.6579 *     4.4059 *  0.0000     4          
    63  Na    c     -8.8609 *     2.1539 *     0.0000    0.0000     2          
    64  Cl    c     -0.0490 *    -8.8609 *    -2.2030 *  0.0000     4          
    65  Cl    c     -4.4550 *    -4.4550       6.6089 *  0.0000     2          
    66  Na    c     -8.8609 *    -2.2520 *     0.0000    0.0000     2          
    67  Na    c     -4.4550 *    -6.6579 *     4.4059 *  0.0000     4          
    68  O     c      6.5598 *     6.5598       0.0000    0.0000     1          
    69  O     c      2.1539 *     2.1539       8.8118 *  0.0000     2          
    70  O     c      2.1539 *    -2.2520 *     8.8118 *  0.0000     4          
    71  O     c      6.5598 *    -6.6579 *     0.0000    0.0000     2          
    72  O     c     -2.2520 *    -2.2520       8.8118 *  0.0000     2          
    73  O     c     -6.6579 *    -6.6579       0.0000    0.0000     1          
    74  Na    c      6.5598 *     6.5598      -2.2030 *  0.0000     2          
    75  Na    c      2.1539 *     6.5598 *     6.6089 *  0.0000     4          
    76  Na    c      6.5598 *    -2.2520 *     6.6089 *  0.0000     4          
    77  Na    c      6.5598 *    -6.6579 *    -2.2030 *  0.0000     4          
    78  Na    c      2.1539 *    -6.6579 *     6.6089 *  0.0000     4          
    79  Na    c     -2.2520 *    -6.6579 *     6.6089 *  0.0000     4          
    80  Na    c     -6.6579 *    -6.6579      -2.2030 *  0.0000     2          
    81  Cl    c      4.3569 *     8.7628 *    -2.2030 *  0.0000     4          
    82  Na    c      8.7628 *     2.1539 *     4.4059 *  0.0000     4          
    83  Na    c      4.3569 *     2.1539 *     8.8118 *  0.0000     4          
    84  Na    c      8.7628 *    -2.2520 *     4.4059 *  0.0000     4          
    85  Cl    c      8.7628 *    -4.4550 *    -2.2030 *  0.0000     4          
    86  Na    c      4.3569 *    -2.2520 *     8.8118 *  0.0000     4          
    87  Na    c     -4.4550 *     2.1539 *     8.8118 *  0.0000     4          
    88  Cl    c      4.3569 *    -8.8609 *    -2.2030 *  0.0000     4          
    89  Na    c     -8.8609 *     2.1539 *     4.4059 *  0.0000     4          
    90  Na    c     -4.4550 *    -2.2520 *     8.8118 *  0.0000     4          
    91  Na    c     -8.8609 *    -2.2520 *     4.4059 *  0.0000     4          
    92  Cl    c     -4.4550 *    -8.8609 *    -2.2030 *  0.0000     4          
    93  O     c      6.5598 *     6.5598       4.4059 *  0.0000     2          
    94  O     c      6.5598 *    -6.6579 *     4.4059 *  0.0000     4          
    95  O     c     -6.6579 *    -6.6579       4.4059 *  0.0000     2          
    96  Na    c      8.7628 *     6.5598 *     0.0000    0.0000     2          
    97  Na    c     -0.0490 *    10.9657 *     0.0000    0.0000     2          
    98  Cl    c     -0.0490 *     8.7628 *     6.6089 *  0.0000     4          
    99  Na    c     -0.0490 *     6.5598 *     8.8118 *  0.0000     4          
   100  Na    c      8.7628 *    -6.6579 *     0.0000    0.0000     2          
   101  Cl    c     -0.0490 *    -0.0490      11.0148 *  0.0000     2          
   102  Na    c     -8.8609 *     6.5598 *     0.0000    0.0000     2          
   103  Na    c     -0.0490 *    -6.6579 *     8.8118 *  0.0000     4          
   104  Cl    c     -0.0490 *    -8.8609 *     6.6089 *  0.0000     4          
   105  Na    c     -0.0490 *   -11.0638 *     0.0000    0.0000     2          
   106  Na    c     -8.8609 *    -6.6579 *     0.0000    0.0000     2          
   107  O     c      2.1539 *    10.9657 *     0.0000    0.0000     2          
   108  O     c      2.1539 *     6.5598 *     8.8118 *  0.0000     4          
   109  O     c     10.9657 *    -2.2520 *     0.0000    0.0000     2          
   110  O     c      6.5598 *    -2.2520 *     8.8118 *  0.0000     4          
   111  O     c      2.1539 *    -6.6579 *     8.8118 *  0.0000     4          
   112  O     c      2.1539 *   -11.0638 *     0.0000    0.0000     2          
   113  O     c     -2.2520 *    -6.6579 *     8.8118 *  0.0000     4          
   114  O     c     -2.2520 *   -11.0638 *     0.0000    0.0000     2          
   115  Na    c      6.5598 *     6.5598       6.6089 *  0.0000     2          
   116  Na    c      2.1539 *    10.9657 *    -2.2030 *  0.0000     4          
   117  Na    c     10.9657 *    -2.2520 *    -2.2030 *  0.0000     4          
   118  Na    c      2.1539 *     2.1539      11.0148 *  0.0000     2          
   119  Na    c      2.1539 *    -2.2520 *    11.0148 *  0.0000     4          
   120  Na    c      6.5598 *    -6.6579 *     6.6089 *  0.0000     4          
   121  Na    c     -2.2520 *    -2.2520      11.0148 *  0.0000     2          
   122  Na    c      2.1539 *   -11.0638 *    -2.2030 *  0.0000     4          
   123  Na    c     -2.2520 *   -11.0638 *    -2.2030 *  0.0000     4          
   124  Na    c     -6.6579 *    -6.6579       6.6089 *  0.0000     2          
   125  Na    c      4.3569 *    10.9657 *     0.0000    0.0000     2          
   126  Na    c      8.7628 *     6.5598 *     4.4059 *  0.0000     4          
   127  Cl    c      4.3569 *     8.7628 *     6.6089 *  0.0000     4          
   128  Na    c     -0.0490 *    10.9657 *     4.4059 *  0.0000     4          
   129  Na    c      4.3569 *     6.5598 *     8.8118 *  0.0000     4          
   130  Na    c     -4.4550 *    10.9657 *     0.0000    0.0000     2          
   131  Cl    c     -0.0490 *     4.3569 *    11.0148 *  0.0000     4          
   132  Cl    c      8.7628 *    -4.4550 *     6.6089 *  0.0000     4          
   133  Na    c     -4.4550 *     6.5598 *     8.8118 *  0.0000     4          
   134  Na    c      8.7628 *    -6.6579 *     4.4059 *  0.0000     4          
   135  Na    c      4.3569 *    -6.6579 *     8.8118 *  0.0000     4          
   136  Na    c     -8.8609 *     6.5598 *     4.4059 *  0.0000     4          
   137  Cl    c     -0.0490 *    -4.4550 *    11.0148 *  0.0000     4          
   138  Cl    c      4.3569 *    -8.8609 *     6.6089 *  0.0000     4          
   139  Na    c      4.3569 *   -11.0638 *     0.0000    0.0000     2          
   140  Na    c     -0.0490 *   -11.0638 *     4.4059 *  0.0000     4          
   141  Na    c     -4.4550 *    -6.6579 *     8.8118 *  0.0000     4          
   142  Cl    c     -4.4550 *    -8.8609 *     6.6089 *  0.0000     4          
   143  Na    c     -4.4550 *   -11.0638 *     0.0000    0.0000     2          
   144  Na    c     -8.8609 *    -6.6579 *     4.4059 *  0.0000     4          
   145  Cl    s     -0.0490 *    -0.0490      -2.2030 *  0.0000     2          
   146  O     s      1.6214       1.6214       0.0000    0.0000     1    Defect
   147  O     s      2.1539 *    -2.2520 *     0.0000    0.0000     2          
   148  Cl    s     -0.0490 *     4.3569 *    -2.2030 *  0.0000     4          
   149  Cl    s     -0.0490 *    -4.4550 *    -2.2030 *  0.0000     4          
   150  O     s      2.1539 *     2.1539       4.4059 *  0.0000     2          
   151  O     s      2.1539 *    -2.2520 *     4.4059 *  0.0000     4          
   152  O     s     -2.2520 *    -2.2520       4.4059 *  0.0000     2          
   153  Cl    s      4.3569 *     4.3569      -2.2030 *  0.0000     2          
   154  Cl    s     -0.0490 *    -0.0490       6.6089 *  0.0000     2          
   155  Cl    s      4.3569 *    -4.4550 *    -2.2030 *  0.0000     4          
   156  Cl    s     -4.4550 *    -4.4550      -2.2030 *  0.0000     2          
   157  O     s      2.1539 *     6.5598 *     0.0000    0.0000     2          
   158  O     s      6.5598 *    -2.2520 *     0.0000    0.0000     2          
   159  O     s      2.1539 *    -6.6579 *     0.0000    0.0000     2          
   160  O     s     -2.2520 *    -6.6579 *     0.0000    0.0000     2          
   161  Cl    s     -0.0490 *     4.3569 *     6.6089 *  0.0000     4          
   162  Cl    s     -0.0490 *    -4.4550 *     6.6089 *  0.0000     4          
   163  O     s      2.1539 *     6.5598 *     4.4059 *  0.0000     4          
   164  O     s      6.5598 *    -2.2520 *     4.4059 *  0.0000     4          
   165  O     s      2.1539 *    -6.6579 *     4.4059 *  0.0000     4          
   166  O     s     -2.2520 *    -6.6579 *     4.4059 *  0.0000     4          
   167  Cl    s     -0.0490 *     8.7628 *    -2.2030 *  0.0000     4          
   168  Cl    s      4.3569 *     4.3569       6.6089 *  0.0000     2          
   169  Cl    s      4.3569 *    -4.4550 *     6.6089 *  0.0000     4          
   170  Cl    s     -0.0490 *    -8.8609 *    -2.2030 *  0.0000     4          
   171  Cl    s     -4.4550 *    -4.4550       6.6089 *  0.0000     2          
   172  O     s      6.5598 *     6.5598       0.0000    0.0000     1          
   173  O     s      2.1539 *     2.1539       8.8118 *  0.0000     2          
   174  O     s      2.1539 *    -2.2520 *     8.8118 *  0.0000     4          
   175  O     s      6.5598 *    -6.6579 *     0.0000    0.0000     2          
   176  O     s     -2.2520 *    -2.2520       8.8118 *  0.0000     2          
   177  O     s     -6.6579 *    -6.6579       0.0000    0.0000     1          
   178  Cl    s      4.3569 *     8.7628 *    -2.2030 *  0.0000     4          
   179  Cl    s      8.7628 *    -4.4550 *    -2.2030 *  0.0000     4          
   180  Cl    s      4.3569 *    -8.8609 *    -2.2030 *  0.0000     4          
   181  Cl    s     -4.4550 *    -8.8609 *    -2.2030 *  0.0000     4          
   182  O     s      6.5598 *     6.5598       4.4059 *  0.0000     2          
   183  O     s      6.5598 *    -6.6579 *     4.4059 *  0.0000     4          
   184  O     s     -6.6579 *    -6.6579       4.4059 *  0.0000     2          
   185  Cl    s     -0.0490 *     8.7628 *     6.6089 *  0.0000     4          
   186  Cl    s     -0.0490 *    -0.0490      11.0148 *  0.0000     2          
   187  Cl    s     -0.0490 *    -8.8609 *     6.6089 *  0.0000     4          
   188  O     s      2.1539 *    10.9657 *     0.0000    0.0000     2          
   189  O     s      2.1539 *     6.5598 *     8.8118 *  0.0000     4          
   190  O     s     10.9657 *    -2.2520 *     0.0000    0.0000     2          
   191  O     s      6.5598 *    -2.2520 *     8.8118 *  0.0000     4          
   192  O     s      2.1539 *    -6.6579 *     8.8118 *  0.0000     4          
   193  O     s      2.1539 *   -11.0638 *     0.0000    0.0000     2          
   194  O     s     -2.2520 *    -6.6579 *     8.8118 *  0.0000     4          
   195  O     s     -2.2520 *   -11.0638 *     0.0000    0.0000     2          
   196  Cl    s      4.3569 *     8.7628 *     6.6089 *  0.0000     4          
   197  Cl    s     -0.0490 *     4.3569 *    11.0148 *  0.0000     4          
   198  Cl    s      8.7628 *    -4.4550 *     6.6089 *  0.0000     4          
   199  Cl    s     -0.0490 *    -4.4550 *    11.0148 *  0.0000     4          
   200  Cl    s      4.3569 *    -8.8609 *     6.6089 *  0.0000     4          
   201  Cl    s     -4.4550 *    -8.8609 *     6.6089 *  0.0000     4          
--------------------------------------------------------------------------------


  Constraints on symmetry reduced coordinates :

--------------------------------------------------------------------------------
  Constraint no.      Unconstrained     Constrained    Coefficient    
                         Variable         Variable
--------------------------------------------------------------------------------
           1                 2 x             2 y         1.00000
           2                 6 x             6 y         1.00000
           3                 8 x             8 y         1.00000
           4                17 x            17 y         1.00000
           5                19 x            19 y         1.00000
           6                20 x            20 y         1.00000
           7                24 x            24 y         1.00000
           8                29 x            29 y         1.00000
           9                35 x            35 y         1.00000
          10                39 x            39 y         1.00000
          11                56 x            56 y         1.00000
          12                65 x            65 y         1.00000
          13                68 x            68 y         1.00000
          14                69 x            69 y         1.00000
          15                72 x            72 y         1.00000
          16                73 x            73 y         1.00000
          17                74 x            74 y         1.00000
          18                80 x            80 y         1.00000
          19                93 x            93 y         1.00000
          20                95 x            95 y         1.00000
          21               101 x           101 y         1.00000
          22               115 x           115 y         1.00000
          23               118 x           118 y         1.00000
          24               121 x           121 y         1.00000
          25               124 x           124 y         1.00000
          26               145 x           145 y         1.00000
          27               150 x           150 y         1.00000
          28               152 x           152 y         1.00000
          29               153 x           153 y         1.00000
          30               154 x           154 y         1.00000
          31               156 x           156 y         1.00000
          32               168 x           168 y         1.00000
          33               171 x           171 y         1.00000
          34               172 x           172 y         1.00000
          35               173 x           173 y         1.00000
          36               176 x           176 y         1.00000
          37               177 x           177 y         1.00000
          38               182 x           182 y         1.00000
          39               184 x           184 y         1.00000
          40               186 x           186 y         1.00000
--------------------------------------------------------------------------------


  Components of defect energy : 

--------------------------------------------------------------------------------
  Region 1 - region 1                   =     91.71614452 eV
  Region 1 - region 2a (unrelaxed)      =    -54.53150129 eV
  Region 1 - 2a (relaxed - correction)  =     -1.03085839 eV
  Region 1 (Total)                      =     36.15378485 eV
  Region 2a                             =      0.51586486 eV
  Region 2b                             =     -1.67415444 eV
--------------------------------------------------------------------------------
  Total defect energy                   =     34.99549527 eV
--------------------------------------------------------------------------------

  Largest displacement in region 2 =   0.0493 Angstroms


  Number of variables =      507

  Maximum number of calculations  =        1000
  Maximum Hessian update interval =          10
  Maximum step size               =   1.0000000
  Maximum parameter tolerance     =   0.0000100
  Maximum function  tolerance     =   0.0000100
  Maximum gradient  tolerance     =   0.0010000

  Symmetry adapted optimisation

  Symmetry to be used for second derivatives

  Newton-Raphson optimiser to be used

  BFGS hessian update to be used

  Lower half triangular hessian to be used

  Start of defect optimisation :

  Cycle:      0 Defect Energy:  34.995495  Gnorm:     0.086758  CPU:    1.993
  ** Hessian calculated **
  Cycle:      1 Defect Energy:  32.262314  Gnorm:     0.076703  CPU:   10.572
  ** Hessian calculated **
  Cycle:      2 Defect Energy:  28.666678  Gnorm:     0.061768  CPU:   16.521
  ** Hessian calculated **
  Cycle:      3 Defect Energy:  26.985408  Gnorm:     0.047920  CPU:   21.305
  ** Hessian calculated **
  Cycle:      4 Defect Energy:  24.186719  Gnorm:     0.020031  CPU:   25.307
  Cycle:      5 Defect Energy:  23.837434  Gnorm:     0.009677  CPU:   27.465
  Cycle:      6 Defect Energy:  23.727741  Gnorm:     0.008264  CPU:   29.593
  Cycle:      7 Defect Energy:  23.637835  Gnorm:     0.006846  CPU:   32.405
  Cycle:      8 Defect Energy:  23.608583  Gnorm:     0.005873  CPU:   32.998
  Cycle:      9 Defect Energy:  23.566782  Gnorm:     0.005353  CPU:   33.596
  Cycle:     10 Defect Energy:  23.512032  Gnorm:     0.004728  CPU:   34.190
  Cycle:     11 Defect Energy:  23.441967  Gnorm:     0.004503  CPU:   34.881
  Cycle:     12 Defect Energy:  23.381721  Gnorm:     0.004326  CPU:   35.490
  Cycle:     13 Defect Energy:  23.336969  Gnorm:     0.004289  CPU:   36.078
  ** Hessian calculated **
  Cycle:     14 Defect Energy:  23.191194  Gnorm:     0.003610  CPU:   38.067
  Cycle:     15 Defect Energy:  23.031829  Gnorm:     0.002618  CPU:   38.582
  Cycle:     16 Defect Energy:  22.942950  Gnorm:     0.001822  CPU:   39.159
  Cycle:     17 Defect Energy:  22.901226  Gnorm:     0.001263  CPU:   39.834
  Cycle:     18 Defect Energy:  22.883876  Gnorm:     0.000956  CPU:   40.417
  Cycle:     19 Defect Energy:  22.870802  Gnorm:     0.000488  CPU:   40.779
  Cycle:     20 Defect Energy:  22.867766  Gnorm:     0.000340  CPU:   43.184
  Cycle:     21 Defect Energy:  22.866477  Gnorm:     0.000219  CPU:   46.156
  Cycle:     22 Defect Energy:  22.865938  Gnorm:     0.000121  CPU:   46.872
  Cycle:     23 Defect Energy:  22.865875  Gnorm:     0.000086  CPU:   47.709
  ** Hessian calculated **
  Cycle:     24 Defect Energy:  22.865834  Gnorm:     0.000060  CPU:   50.628
  Cycle:     25 Defect Energy:  22.865821  Gnorm:     0.000042  CPU:   51.572


  **** Optimisation achieved ****


  Final defect energy  =       22.86582123
  Final defect Gnorm   =        0.00002941

  Components of defect energy : 

--------------------------------------------------------------------------------
  Region 1 - region 1                   =     71.99388215 eV
  Region 1 - region 2a (unrelaxed)      =    -47.10822725 eV
  Region 1 - 2a (relaxed - correction)  =     -0.74208674 eV
  Region 1 (Total)                      =     24.14356816 eV
  Region 2a                             =      0.37034544 eV
  Region 2b                             =     -1.64809236 eV
--------------------------------------------------------------------------------
  Total defect energy                   =     22.86582123 eV
--------------------------------------------------------------------------------

  Largest displacement in region 2 =   0.0493 Angstroms

  Final coordinates of region 1 :

--------------------------------------------------------------------------------
   No.  Atomic        x           y           z          Radius      Charge
        Label       (Angs)      (Angs)      (Angs)       (Angs)       (e) 
--------------------------------------------------------------------------------
     1  Na    c     1.899749    4.251304    0.000000    0.000000    1.000000
     2  Na    c     4.251304    1.899749    0.000000    0.000000    1.000000
     3  Cl    c     1.703720    1.703720   -1.877971    0.000000    1.485000
     4  Cl    c     1.703720    1.703720    1.877971    0.000000    1.485000
     5  Na    c     2.424592   -0.232705    0.000000    0.000000    1.000000
     6  Na    c    -0.232705    2.424592    0.000000    0.000000    1.000000
     7  O     c     3.873440    3.873440    0.000000    0.000000    0.183000
     8  O     c     4.517287   -0.205828    0.000000    0.000000    0.183000
     9  O     c    -0.205828    4.517287    0.000000    0.000000    0.183000
    10  Na    c     4.174359    4.174359   -2.154707    0.000000    1.000000
    11  Na    c     4.174359    4.174359    2.154707    0.000000    1.000000
    12  Na    c     4.551184   -0.137823   -2.230221    0.000000    1.000000
    13  Na    c     4.551184   -0.137823    2.230221    0.000000    1.000000
    14  Na    c    -0.137823    4.551184   -2.230221    0.000000    1.000000
    15  Na    c    -0.137823    4.551184    2.230221    0.000000    1.000000
    16  Na    c    -0.117147   -0.117147   -2.516910    0.000000    1.000000
    17  Na    c    -0.117147   -0.117147    2.516910    0.000000    1.000000
    18  Na    c     6.498481    4.169481    0.000000    0.000000    1.000000
    19  Na    c     4.169481    6.498481    0.000000    0.000000    1.000000
    20  Cl    c     2.134174    6.519570   -2.181307    0.000000    1.485000
    21  Cl    c     2.134174    6.519570    2.181307    0.000000    1.485000
    22  Cl    c     6.519570    2.134174   -2.181307    0.000000    1.485000
    23  Cl    c     6.519570    2.134174    2.181307    0.000000    1.485000
    24  Na    c     2.153782    4.463900    4.523828    0.000000    1.000000
    25  Na    c     2.153782    4.463900   -4.523828    0.000000    1.000000
    26  Na    c     4.463900    2.153782    4.523828    0.000000    1.000000
    27  Na    c     4.463900    2.153782   -4.523828    0.000000    1.000000
    28  Na    c     6.681566    0.006023    0.000000    0.000000    1.000000
    29  Na    c     0.006023    6.681566    0.000000    0.000000    1.000000
    30  Na    c     2.190413   -0.025972    4.458147    0.000000    1.000000
    31  Na    c     2.190413   -0.025972   -4.458147    0.000000    1.000000
    32  Na    c    -0.025972    2.190413    4.458147    0.000000    1.000000
    33  Na    c    -0.025972    2.190413   -4.458147    0.000000    1.000000
    34  Na    c    -2.344181    4.633846    0.000000    0.000000    1.000000
    35  Na    c     4.633846   -2.344181    0.000000    0.000000    1.000000
    36  Cl    c     1.844168   -2.052567   -1.960132    0.000000    1.485000
    37  Cl    c     1.844168   -2.052567    1.960132    0.000000    1.485000
    38  Cl    c    -2.052567    1.844168   -1.960132    0.000000    1.485000
    39  Cl    c    -2.052567    1.844168    1.960132    0.000000    1.485000
    40  Na    c    -2.537943   -0.052984    0.000000    0.000000    1.000000
    41  Na    c    -0.052984   -2.537943    0.000000    0.000000    1.000000
    42  O     c     4.326741    4.326741    4.361426    0.000000    0.183000
    43  O     c     4.326741    4.326741   -4.361426    0.000000    0.183000
    44  O     c     4.386320   -0.044398    4.406173    0.000000    0.183000
    45  O     c     4.386320   -0.044398   -4.406173    0.000000    0.183000
    46  O     c    -0.044398    4.386320    4.406173    0.000000    0.183000
    47  O     c    -0.044398    4.386320   -4.406173    0.000000    0.183000
    48  O     c    -0.035494   -0.035494    4.581279    0.000000    0.183000
    49  O     c    -0.035494   -0.035494   -4.581279    0.000000    0.183000
    50  Cl    c     6.382115    6.382115   -2.040914    0.000000    1.485000
    51  Cl    c     6.382115    6.382115    2.040914    0.000000    1.485000
    52  Na    c     2.167409    8.921628    0.000000    0.000000    1.000000
    53  Na    c     8.921628    2.167409    0.000000    0.000000    1.000000
    54  Na    c     6.559372    4.399034    4.294143    0.000000    1.000000
    55  Na    c     6.559372    4.399034   -4.294143    0.000000    1.000000
    56  Na    c     4.399034    6.559372    4.294143    0.000000    1.000000
    57  Na    c     4.399034    6.559372   -4.294143    0.000000    1.000000
    58  Na    c     6.622917   -0.026737    4.463831    0.000000    1.000000
    59  Na    c     6.622917   -0.026737   -4.463831    0.000000    1.000000
    60  Na    c    -0.026737    6.622917    4.463831    0.000000    1.000000
    61  Na    c    -0.026737    6.622917   -4.463831    0.000000    1.000000
    62  Cl    c     2.190561    2.190561    6.572590    0.000000    1.485000
    63  Cl    c     2.190561    2.190561   -6.572590    0.000000    1.485000
    64  Cl    c     6.591911   -2.269051   -2.236893    0.000000    1.485000
    65  Cl    c     6.591911   -2.269051    2.236893    0.000000    1.485000
    66  Cl    c    -2.269051    6.591911   -2.236893    0.000000    1.485000
    67  Cl    c    -2.269051    6.591911    2.236893    0.000000    1.485000
    68  Na    c    -2.239141    4.471517    4.508640    0.000000    1.000000
    69  Na    c    -2.239141    4.471517   -4.508640    0.000000    1.000000
    70  Na    c     4.471517   -2.239141    4.508640    0.000000    1.000000
    71  Na    c     4.471517   -2.239141   -4.508640    0.000000    1.000000
    72  Na    c     2.214353   -4.549105    0.000000    0.000000    1.000000
    73  Na    c    -4.549105    2.214353    0.000000    0.000000    1.000000
    74  Na    c    -2.246033   -0.011082    4.617169    0.000000    1.000000
    75  Na    c    -2.246033   -0.011082   -4.617169    0.000000    1.000000
    76  Na    c    -0.011082   -2.246033    4.617169    0.000000    1.000000
    77  Na    c    -0.011082   -2.246033   -4.617169    0.000000    1.000000
    78  Cl    c    -1.981714   -1.981714   -1.892744    0.000000    1.485000
    79  Cl    c    -1.981714   -1.981714    1.892744    0.000000    1.485000
    80  O     c     4.344624    8.752195    0.000000    0.000000    0.183000
    81  O     c     8.752195    4.344624    0.000000    0.000000    0.183000
    82  O     c     8.842609   -0.032743    0.000000    0.000000    0.183000
    83  O     c    -0.032743    8.842609    0.000000    0.000000    0.183000
    84  O     c     4.416973   -4.481983    0.000000    0.000000    0.183000
    85  O     c    -4.481983    4.416973    0.000000    0.000000    0.183000
    86  O     c    -0.018016   -4.589745    0.000000    0.000000    0.183000
    87  O     c    -4.589745   -0.018016    0.000000    0.000000    0.183000
    88  Na    c     4.383186    8.790170   -2.186867    0.000000    1.000000
    89  Na    c     4.383186    8.790170    2.186867    0.000000    1.000000
    90  Na    c     8.790170    4.383186   -2.186867    0.000000    1.000000
    91  Na    c     8.790170    4.383186    2.186867    0.000000    1.000000
    92  Na    c     4.432928    4.432928    6.592685    0.000000    1.000000
    93  Na    c     4.432928    4.432928   -6.592685    0.000000    1.000000
    94  Na    c     8.857981   -0.021167   -2.210124    0.000000    1.000000
    95  Na    c     8.857981   -0.021167    2.210124    0.000000    1.000000
    96  Na    c    -0.021167    8.857981   -2.210124    0.000000    1.000000
    97  Na    c    -0.021167    8.857981    2.210124    0.000000    1.000000
    98  Na    c     4.379006   -0.037347    6.635194    0.000000    1.000000
    99  Na    c     4.379006   -0.037347   -6.635194    0.000000    1.000000
   100  Na    c    -0.037347    4.379006    6.635194    0.000000    1.000000
   101  Na    c    -0.037347    4.379006   -6.635194    0.000000    1.000000
   102  Na    c     4.467708   -4.520836   -2.211494    0.000000    1.000000
   103  Na    c     4.467708   -4.520836    2.211494    0.000000    1.000000
   104  Na    c    -4.520836    4.467708   -2.211494    0.000000    1.000000
   105  Na    c    -4.520836    4.467708    2.211494    0.000000    1.000000
   106  Na    c     0.060573    0.060573    6.713914    0.000000    1.000000
   107  Na    c     0.060573    0.060573   -6.713914    0.000000    1.000000
   108  Na    c     0.007804   -4.523566   -2.229033    0.000000    1.000000
   109  Na    c     0.007804   -4.523566    2.229033    0.000000    1.000000
   110  Na    c    -4.523566    0.007804   -2.229033    0.000000    1.000000
   111  Na    c    -4.523566    0.007804    2.229033    0.000000    1.000000
   112  Na    c     6.553565    8.695541    0.000000    0.000000    1.000000
   113  Na    c     8.695541    6.553565    0.000000    0.000000    1.000000
   114  Na    c     2.196934    8.809394    4.420569    0.000000    1.000000
   115  Na    c     2.196934    8.809394   -4.420569    0.000000    1.000000
   116  Na    c     8.809394    2.196934    4.420569    0.000000    1.000000
   117  Na    c     8.809394    2.196934   -4.420569    0.000000    1.000000
   118  Cl    c     2.172164    6.563242    6.570724    0.000000    1.485000
   119  Cl    c     2.172164    6.563242   -6.570724    0.000000    1.485000
   120  Cl    c     6.563242    2.172164    6.570724    0.000000    1.485000
   121  Cl    c     6.563242    2.172164   -6.570724    0.000000    1.485000
   122  Na    c    -2.235955    8.829563    0.000000    0.000000    1.000000
   123  Na    c     8.829563   -2.235955    0.000000    0.000000    1.000000
   124  Na    c     6.647023   -4.559101    0.000000    0.000000    1.000000
   125  Na    c    -4.559101    6.647023    0.000000    0.000000    1.000000
   126  Cl    c     2.211801   -2.234643    6.582849    0.000000    1.485000
   127  Cl    c     2.211801   -2.234643   -6.582849    0.000000    1.485000
   128  Cl    c    -2.234643    2.211801    6.582849    0.000000    1.485000
   129  Cl    c    -2.234643    2.211801   -6.582849    0.000000    1.485000
   130  Na    c     2.199364   -4.468134    4.471773    0.000000    1.000000
   131  Na    c     2.199364   -4.468134   -4.471773    0.000000    1.000000
   132  Na    c    -4.468134    2.199364    4.471773    0.000000    1.000000
   133  Na    c    -4.468134    2.199364   -4.471773    0.000000    1.000000
   134  Na    c    -2.238408   -4.564483    0.000000    0.000000    1.000000
   135  Na    c    -4.564483   -2.238408    0.000000    0.000000    1.000000
   136  O     c     4.395723    8.773549    4.380220    0.000000    0.183000
   137  O     c     4.395723    8.773549   -4.380220    0.000000    0.183000
   138  O     c     8.773549    4.395723    4.380220    0.000000    0.183000
   139  O     c     8.773549    4.395723   -4.380220    0.000000    0.183000
   140  O     c     8.809731   -0.008777    4.405582    0.000000    0.183000
   141  O     c     8.809731   -0.008777   -4.405582    0.000000    0.183000
   142  O     c    -0.008777    8.809731    4.405582    0.000000    0.183000
   143  O     c    -0.008777    8.809731   -4.405582    0.000000    0.183000
   144  O     c     4.388641   -4.414522    4.396674    0.000000    0.183000
   145  O     c     4.388641   -4.414522   -4.396674    0.000000    0.183000
   146  O     c    -4.414522    4.388641    4.396674    0.000000    0.183000
   147  O     c    -4.414522    4.388641   -4.396674    0.000000    0.183000
   148  O     c    -0.010094   -4.424858    4.422118    0.000000    0.183000
   149  O     c    -0.010094   -4.424858   -4.422118    0.000000    0.183000
   150  O     c    -4.424858   -0.010094    4.422118    0.000000    0.183000
   151  O     c    -4.424858   -0.010094   -4.422118    0.000000    0.183000
   152  Na    c     6.597820    8.839591    4.431381    0.000000    1.000000
   153  Na    c     6.597820    8.839591   -4.431381    0.000000    1.000000
   154  Na    c     8.839591    6.597820    4.431381    0.000000    1.000000
   155  Na    c     8.839591    6.597820   -4.431381    0.000000    1.000000
   156  Na    c    10.995819    4.454976    0.000000    0.000000    1.000000
   157  Na    c     4.454976   10.995819    0.000000    0.000000    1.000000
   158  Cl    c     2.193164   10.987219   -2.201239    0.000000    1.485000
   159  Cl    c     2.193164   10.987219    2.201239    0.000000    1.485000
   160  Cl    c    10.987219    2.193164   -2.201239    0.000000    1.485000
   161  Cl    c    10.987219    2.193164    2.201239    0.000000    1.485000
   162  Cl    c     6.569347    6.569347    6.552023    0.000000    1.485000
   163  Cl    c     6.569347    6.569347   -6.552023    0.000000    1.485000
   164  Na    c    11.041337   -0.065560    0.000000    0.000000    1.000000
   165  Na    c    -0.065560   11.041337    0.000000    0.000000    1.000000
   166  Na    c     2.204215    4.412579    8.815087    0.000000    1.000000
   167  Na    c     2.204215    4.412579   -8.815087    0.000000    1.000000
   168  Na    c     4.412579    2.204215    8.815087    0.000000    1.000000
   169  Na    c     4.412579    2.204215   -8.815087    0.000000    1.000000
   170  Na    c    -2.216548    8.846874    4.412829    0.000000    1.000000
   171  Na    c    -2.216548    8.846874   -4.412829    0.000000    1.000000
   172  Na    c     8.846874   -2.216548    4.412829    0.000000    1.000000
   173  Na    c     8.846874   -2.216548   -4.412829    0.000000    1.000000
   174  Cl    c     6.573823   -2.203780    6.585990    0.000000    1.485000
   175  Cl    c     6.573823   -2.203780   -6.585990    0.000000    1.485000
   176  Cl    c    -2.203780    6.573823    6.585990    0.000000    1.485000
   177  Cl    c    -2.203780    6.573823   -6.585990    0.000000    1.485000
   178  Na    c     2.209921   -0.002046    8.923885    0.000000    1.000000
   179  Na    c     2.209921   -0.002046   -8.923885    0.000000    1.000000
   180  Na    c    -0.002046    2.209921    8.923885    0.000000    1.000000
   181  Na    c    -0.002046    2.209921   -8.923885    0.000000    1.000000
   182  Na    c     6.622753   -4.432880    4.413678    0.000000    1.000000
   183  Na    c     6.622753   -4.432880   -4.413678    0.000000    1.000000
   184  Na    c    -4.432880    6.622753    4.413678    0.000000    1.000000
   185  Na    c    -4.432880    6.622753   -4.413678    0.000000    1.000000
   186  Na    c    -6.669230    4.419870    0.000000    0.000000    1.000000
   187  Na    c     4.419870   -6.669230    0.000000    0.000000    1.000000
   188  Cl    c     2.204657   -6.603044   -2.221417    0.000000    1.485000
   189  Cl    c     2.204657   -6.603044    2.221417    0.000000    1.485000
   190  Cl    c    -6.603044    2.204657   -2.221417    0.000000    1.485000
   191  Cl    c    -6.603044    2.204657    2.221417    0.000000    1.485000
   192  Cl    c    -2.238493   -2.238493    6.591687    0.000000    1.485000
   193  Cl    c    -2.238493   -2.238493   -6.591687    0.000000    1.485000
   194  Na    c    -6.711379   -0.004857    0.000000    0.000000    1.000000
   195  Na    c    -0.004857   -6.711379    0.000000    0.000000    1.000000
   196  Na    c    -2.213424   -4.490880    4.470097    0.000000    1.000000
   197  Na    c    -2.213424   -4.490880   -4.470097    0.000000    1.000000
   198  Na    c    -4.490880   -2.213424    4.470097    0.000000    1.000000
   199  Na    c    -4.490880   -2.213424   -4.470097    0.000000    1.000000
   200  O     c     8.768566    8.768566    0.000000    0.000000    0.183000
   201  O     c     4.405769    4.405769    8.798910    0.000000    0.183000
   202  O     c     4.405769    4.405769   -8.798910    0.000000    0.183000
   203  O     c     4.402999   -0.006617    8.819438    0.000000    0.183000
   204  O     c     4.402999   -0.006617   -8.819438    0.000000    0.183000
   205  O     c    -0.006617    4.402999    8.819438    0.000000    0.183000
   206  O     c    -0.006617    4.402999   -8.819438    0.000000    0.183000
   207  O     c     8.823808   -4.432706    0.000000    0.000000    0.183000
   208  O     c    -4.432706    8.823808    0.000000    0.000000    0.183000
   209  O     c    -0.000407   -0.000407    8.862366    0.000000    0.183000
   210  O     c    -0.000407   -0.000407   -8.862366    0.000000    0.183000
   211  O     c    -4.429543   -4.429543    0.000000    0.000000    0.183000
   212  Na    c     8.836464    8.836464   -2.194240    0.000000    1.000000
   213  Na    c     8.836464    8.836464    2.194240    0.000000    1.000000
   214  Na    c     4.415940    8.769228    6.593982    0.000000    1.000000
   215  Na    c     4.415940    8.769228   -6.593982    0.000000    1.000000
   216  Na    c     8.769228    4.415940    6.593982    0.000000    1.000000
   217  Na    c     8.769228    4.415940   -6.593982    0.000000    1.000000
   218  Na    c     8.850409   -0.016137    6.611625    0.000000    1.000000
   219  Na    c     8.850409   -0.016137   -6.611625    0.000000    1.000000
   220  Na    c    -0.016137    8.850409    6.611625    0.000000    1.000000
   221  Na    c    -0.016137    8.850409   -6.611625    0.000000    1.000000
   222  Na    c     8.844491   -4.419123   -2.210984    0.000000    1.000000
   223  Na    c     8.844491   -4.419123    2.210984    0.000000    1.000000
   224  Na    c    -4.419123    8.844491   -2.210984    0.000000    1.000000
   225  Na    c    -4.419123    8.844491    2.210984    0.000000    1.000000
   226  Na    c     4.429357   -4.432854    6.620375    0.000000    1.000000
   227  Na    c     4.429357   -4.432854   -6.620375    0.000000    1.000000
   228  Na    c    -4.432854    4.429357    6.620375    0.000000    1.000000
   229  Na    c    -4.432854    4.429357   -6.620375    0.000000    1.000000
   230  Na    c    -0.010191   -4.470007    6.636398    0.000000    1.000000
   231  Na    c    -0.010191   -4.470007   -6.636398    0.000000    1.000000
   232  Na    c    -4.470007   -0.010191    6.636398    0.000000    1.000000
   233  Na    c    -4.470007   -0.010191   -6.636398    0.000000    1.000000
   234  Na    c    -4.474078   -4.474078   -2.207445    0.000000    1.000000
   235  Na    c    -4.474078   -4.474078    2.207445    0.000000    1.000000
   236  Cl    c     6.588685   10.965782   -2.193105    0.000000    1.485000
   237  Cl    c     6.588685   10.965782    2.193105    0.000000    1.485000
   238  Cl    c    10.965782    6.588685   -2.193105    0.000000    1.485000
   239  Cl    c    10.965782    6.588685    2.193105    0.000000    1.485000
   240  Na    c    11.004777    4.390833    4.395492    0.000000    1.000000
   241  Na    c    11.004777    4.390833   -4.395492    0.000000    1.000000
   242  Na    c     4.390833   11.004777    4.395492    0.000000    1.000000
   243  Na    c     4.390833   11.004777   -4.395492    0.000000    1.000000
   244  Na    c     6.607272    4.410054    8.827729    0.000000    1.000000
   245  Na    c     6.607272    4.410054   -8.827729    0.000000    1.000000
   246  Na    c     4.410054    6.607272    8.827729    0.000000    1.000000
   247  Na    c     4.410054    6.607272   -8.827729    0.000000    1.000000
   248  Na    c    11.023232    0.015892    4.408216    0.000000    1.000000
   249  Na    c    11.023232    0.015892   -4.408216    0.000000    1.000000
   250  Na    c     0.015892   11.023232    4.408216    0.000000    1.000000
   251  Na    c     0.015892   11.023232   -4.408216    0.000000    1.000000
   252  Cl    c    10.992686   -2.212200   -2.201636    0.000000    1.485000
   253  Cl    c    10.992686   -2.212200    2.201636    0.000000    1.485000
   254  Cl    c    -2.212200   10.992686   -2.201636    0.000000    1.485000
   255  Cl    c    -2.212200   10.992686    2.201636    0.000000    1.485000
   256  Na    c     6.612838    0.009267    8.806964    0.000000    1.000000
   257  Na    c     6.612838    0.009267   -8.806964    0.000000    1.000000
   258  Na    c     0.009267    6.612838    8.806964    0.000000    1.000000
   259  Na    c     0.009267    6.612838   -8.806964    0.000000    1.000000
   260  Na    c    -2.210021    4.421282    8.837533    0.000000    1.000000
   261  Na    c    -2.210021    4.421282   -8.837533    0.000000    1.000000
   262  Na    c     4.421282   -2.210021    8.837533    0.000000    1.000000
   263  Na    c     4.421282   -2.210021   -8.837533    0.000000    1.000000
   264  Cl    c     6.588789   -6.609720   -2.198649    0.000000    1.485000
   265  Cl    c     6.588789   -6.609720    2.198649    0.000000    1.485000
   266  Cl    c    -6.609720    6.588789   -2.198649    0.000000    1.485000
   267  Cl    c    -6.609720    6.588789    2.198649    0.000000    1.485000
   268  Na    c    -6.625572    4.410704    4.424453    0.000000    1.000000
   269  Na    c    -6.625572    4.410704   -4.424453    0.000000    1.000000
   270  Na    c     4.410704   -6.625572    4.424453    0.000000    1.000000
   271  Na    c     4.410704   -6.625572   -4.424453    0.000000    1.000000
   272  Na    c    -2.207699    0.002188    8.840593    0.000000    1.000000
   273  Na    c    -2.207699    0.002188   -8.840593    0.000000    1.000000
   274  Na    c     0.002188   -2.207699    8.840593    0.000000    1.000000
   275  Na    c     0.002188   -2.207699   -8.840593    0.000000    1.000000
   276  Na    c    -6.634589    0.013333    4.425832    0.000000    1.000000
   277  Na    c    -6.634589    0.013333   -4.425832    0.000000    1.000000
   278  Na    c     0.013333   -6.634589    4.425832    0.000000    1.000000
   279  Na    c     0.013333   -6.634589   -4.425832    0.000000    1.000000
   280  Cl    c    -2.234484   -6.590118   -2.220807    0.000000    1.485000
   281  Cl    c    -2.234484   -6.590118    2.220807    0.000000    1.485000
   282  Cl    c    -6.590118   -2.234484   -2.220807    0.000000    1.485000
   283  Cl    c    -6.590118   -2.234484    2.220807    0.000000    1.485000
   284  O     c     8.797957    8.797957    4.390013    0.000000    0.183000
   285  O     c     8.797957    8.797957   -4.390013    0.000000    0.183000
   286  O     c     8.819853   -4.418781    4.411355    0.000000    0.183000
   287  O     c     8.819853   -4.418781   -4.411355    0.000000    0.183000
   288  O     c    -4.418781    8.819853    4.411355    0.000000    0.183000
   289  O     c    -4.418781    8.819853   -4.411355    0.000000    0.183000
   290  O     c    -4.404188   -4.404188    4.394940    0.000000    0.183000
   291  O     c    -4.404188   -4.404188   -4.394940    0.000000    0.183000
   292  Na    c    11.002918    8.772619    0.000000    0.000000    1.000000
   293  Na    c     8.772619   11.002918    0.000000    0.000000    1.000000
   294  Na    c     2.204558   13.206240    0.000000    0.000000    1.000000
   295  Na    c    13.206240    2.204558    0.000000    0.000000    1.000000
   296  Cl    c     2.197399   10.985278    6.589836    0.000000    1.485000
   297  Cl    c     2.197399   10.985278   -6.589836    0.000000    1.485000
   298  Cl    c    10.985278    2.197399    6.589836    0.000000    1.485000
   299  Cl    c    10.985278    2.197399   -6.589836    0.000000    1.485000
   300  Na    c     2.203792    8.829859    8.818793    0.000000    1.000000
   301  Na    c     2.203792    8.829859   -8.818793    0.000000    1.000000
   302  Na    c     8.829859    2.203792    8.818793    0.000000    1.000000
   303  Na    c     8.829859    2.203792   -8.818793    0.000000    1.000000
   304  Na    c    11.031976   -4.402852    0.000000    0.000000    1.000000
   305  Na    c    -4.402852   11.031976    0.000000    0.000000    1.000000
   306  Cl    c     2.203622    2.203622   10.989042    0.000000    1.485000
   307  Cl    c     2.203622    2.203622  -10.989042    0.000000    1.485000
   308  Na    c    -6.628869    8.884516    0.000000    0.000000    1.000000
   309  Na    c     8.884516   -6.628869    0.000000    0.000000    1.000000
   310  Na    c     2.206261   -4.402893    8.834431    0.000000    1.000000
   311  Na    c     2.206261   -4.402893   -8.834431    0.000000    1.000000
   312  Na    c    -4.402893    2.206261    8.834431    0.000000    1.000000
   313  Na    c    -4.402893    2.206261   -8.834431    0.000000    1.000000
   314  Cl    c     2.186864   -6.594772    6.591081    0.000000    1.485000
   315  Cl    c     2.186864   -6.594772   -6.591081    0.000000    1.485000
   316  Cl    c    -6.594772    2.186864    6.591081    0.000000    1.485000
   317  Cl    c    -6.594772    2.186864   -6.591081    0.000000    1.485000
   318  Na    c     2.207176   -8.873447    0.000000    0.000000    1.000000
   319  Na    c    -8.873447    2.207176    0.000000    0.000000    1.000000
   320  Na    c    -6.638253   -4.441814    0.000000    0.000000    1.000000
   321  Na    c    -4.441814   -6.638253    0.000000    0.000000    1.000000
   322  O     c     4.409720   13.203097    0.000000    0.000000    0.183000
   323  O     c    13.203097    4.409720    0.000000    0.000000    0.183000
   324  O     c     4.403434    8.801253    8.801717    0.000000    0.183000
   325  O     c     4.403434    8.801253   -8.801717    0.000000    0.183000
   326  O     c     8.801253    4.403434    8.801717    0.000000    0.183000
   327  O     c     8.801253    4.403434   -8.801717    0.000000    0.183000
   328  O     c    13.222362   -0.006645    0.000000    0.000000    0.183000
   329  O     c    -0.006645   13.222362    0.000000    0.000000    0.183000
   330  O     c     8.808403   -0.000588    8.805523    0.000000    0.183000
   331  O     c     8.808403   -0.000588   -8.805523    0.000000    0.183000
   332  O     c    -0.000588    8.808403    8.805523    0.000000    0.183000
   333  O     c    -0.000588    8.808403   -8.805523    0.000000    0.183000
   334  O     c     4.407264   -4.407224    8.810457    0.000000    0.183000
   335  O     c     4.407264   -4.407224   -8.810457    0.000000    0.183000
   336  O     c    -4.407224    4.407264    8.810457    0.000000    0.183000
   337  O     c    -4.407224    4.407264   -8.810457    0.000000    0.183000
   338  O     c     4.402916   -8.832018    0.000000    0.000000    0.183000
   339  O     c    -8.832018    4.402916    0.000000    0.000000    0.183000
   340  O     c    -0.003252   -4.405929    8.811812    0.000000    0.183000
   341  O     c    -0.003252   -4.405929   -8.811812    0.000000    0.183000
   342  O     c    -4.405929   -0.003252    8.811812    0.000000    0.183000
   343  O     c    -4.405929   -0.003252   -8.811812    0.000000    0.183000
   344  O     c    -0.002742   -8.852727    0.000000    0.000000    0.183000
   345  O     c    -8.852727   -0.002742    0.000000    0.000000    0.183000
   346  Na    c     8.816600    8.816600    6.609097    0.000000    1.000000
   347  Na    c     8.816600    8.816600   -6.609097    0.000000    1.000000
   348  Na    c     4.408107   13.233051   -2.203503    0.000000    1.000000
   349  Na    c     4.408107   13.233051    2.203503    0.000000    1.000000
   350  Na    c    13.233051    4.408107   -2.203503    0.000000    1.000000
   351  Na    c    13.233051    4.408107    2.203503    0.000000    1.000000
   352  Na    c    13.248333    0.003253   -2.205530    0.000000    1.000000
   353  Na    c    13.248333    0.003253    2.205530    0.000000    1.000000
   354  Na    c     0.003253   13.248333   -2.205530    0.000000    1.000000
   355  Na    c     0.003253   13.248333    2.205530    0.000000    1.000000
   356  Na    c     4.406754    4.406754   11.016729    0.000000    1.000000
   357  Na    c     4.406754    4.406754  -11.016729    0.000000    1.000000
   358  Na    c     4.447803    0.005264   11.026434    0.000000    1.000000
   359  Na    c     4.447803    0.005264  -11.026434    0.000000    1.000000
   360  Na    c     0.005264    4.447803   11.026434    0.000000    1.000000
   361  Na    c     0.005264    4.447803  -11.026434    0.000000    1.000000
   362  Na    c     8.827518   -4.407387    6.616369    0.000000    1.000000
   363  Na    c     8.827518   -4.407387   -6.616369    0.000000    1.000000
[...]
    121 y          0.000000     -0.022874    -0.022874    Cartesian    0.00
    121 z         11.014756     11.045609     0.030854    Cartesian    0.28
    122 x          4.405902      4.420231     0.014329    Cartesian    0.33
    122 y         -8.811805     -8.846677    -0.034872    Cartesian    0.40
    122 z         -2.202951     -2.209150    -0.006199    Cartesian    0.28
    123 x          0.000000      0.002863     0.002863    Cartesian    0.00
    123 y         -8.811805     -8.865389    -0.053585    Cartesian    0.61
    123 z         -2.202951     -2.211124    -0.008172    Cartesian    0.37
    124 x         -4.405902     -4.404578     0.001324    Cartesian   -0.03
    124 y         -4.405902     -4.404578     0.001324    Cartesian   -0.03
    124 z          6.608853      6.620736     0.011882    Cartesian    0.18
    125 x          6.608853      6.613238     0.004385    Cartesian    0.07
    125 y         13.217707     13.256867     0.039160    Cartesian    0.30
    125 z          0.000000      0.000000     0.000000    Cartesian    0.00
    126 x         11.014756     11.018426     0.003671    Cartesian    0.03
    126 y          8.811805      8.823253     0.011449    Cartesian    0.13
    126 z          4.405902      4.413399     0.007497    Cartesian    0.17
    127 x          6.608853      6.598382    -0.010471    Cartesian   -0.16
    127 y         11.014756     10.972102    -0.042654    Cartesian   -0.39
    127 z          6.608853      6.581565    -0.027288    Cartesian   -0.41
    128 x          2.202951      2.204731     0.001779    Cartesian    0.08
    128 y         13.217707     13.253857     0.036150    Cartesian    0.27
    128 z          4.405902      4.420209     0.014307    Cartesian    0.32
    129 x          6.608853      6.610205     0.001352    Cartesian    0.02
    129 y          8.811805      8.831334     0.019529    Cartesian    0.22
    129 z          8.811805      8.831121     0.019317    Cartesian    0.22
    130 x         -2.202951     -2.210492    -0.007541    Cartesian    0.34
    130 y         13.217707     13.273234     0.055527    Cartesian    0.42
    130 z          0.000000      0.000000     0.000000    Cartesian    0.00
    131 x          2.202951      2.199098    -0.003853    Cartesian   -0.17
    131 y          6.608853      6.591925    -0.016929    Cartesian   -0.26
    131 z         11.014756     10.979093    -0.035662    Cartesian   -0.32
    132 x         11.014756     10.983145    -0.031611    Cartesian   -0.29
    132 y         -2.202951     -2.194089     0.008862    Cartesian   -0.40
    132 z          6.608853      6.596369    -0.012484    Cartesian   -0.19
    133 x         -2.202951     -2.205411    -0.002460    Cartesian    0.11
    133 y          8.811805      8.830349     0.018544    Cartesian    0.21
    133 z          8.811805      8.842372     0.030567    Cartesian    0.35
    134 x         11.014756     11.027663     0.012908    Cartesian    0.12
    134 y         -4.405902     -4.425265    -0.019363    Cartesian    0.44
    134 z          4.405902      4.419938     0.014035    Cartesian    0.32
    135 x          6.608853      6.614958     0.006105    Cartesian    0.09
    135 y         -4.405902     -4.422670    -0.016768    Cartesian    0.38
    135 z          8.811805      8.840320     0.028516    Cartesian    0.32
    136 x         -6.608853     -6.619323    -0.010470    Cartesian    0.16
    136 y          8.811805      8.844307     0.032502    Cartesian    0.37
    136 z          4.405902      4.424976     0.019074    Cartesian    0.43
    137 x          2.202951      2.199535    -0.003417    Cartesian   -0.16
    137 y         -2.202951     -2.203065    -0.000114    Cartesian    0.01
    137 z         11.014756     10.980758    -0.033998    Cartesian   -0.31
    138 x          6.608853      6.578784    -0.030070    Cartesian   -0.45
    138 y         -6.608853     -6.583304     0.025549    Cartesian   -0.39
    138 z          6.608853      6.586518    -0.022335    Cartesian   -0.34
    139 x          6.608853      6.618760     0.009907    Cartesian    0.15
    139 y         -8.811805     -8.853005    -0.041201    Cartesian    0.47
    139 z          0.000000      0.000000     0.000000    Cartesian    0.00
    140 x          2.202951      2.206855     0.003904    Cartesian    0.18
    140 y         -8.811805     -8.846922    -0.035117    Cartesian    0.40
    140 z          4.405902      4.418467     0.012565    Cartesian    0.29
    141 x         -2.202951     -2.208410    -0.005459    Cartesian    0.25
    141 y         -4.405902     -4.413664    -0.007762    Cartesian    0.18
    141 z          8.811805      8.847418     0.035613    Cartesian    0.40
    142 x         -2.202951     -2.194612     0.008339    Cartesian   -0.38
    142 y         -6.608853     -6.586252     0.022601    Cartesian   -0.34
    142 z          6.608853      6.586425    -0.022429    Cartesian   -0.34
    143 x         -2.202951     -2.212693    -0.009742    Cartesian    0.44
    143 y         -8.811805     -8.878015    -0.066211    Cartesian    0.75
    143 z          0.000000      0.000000     0.000000    Cartesian    0.00
    144 x         -6.608853     -6.622976    -0.014122    Cartesian    0.21
    144 y         -4.405902     -4.428831    -0.022929    Cartesian    0.52
    144 z          4.405902      4.425770     0.019867    Cartesian    0.45
    145 x          2.202951      1.664582    -0.538369    Cartesian  -24.44
    145 y          2.202951      1.664582    -0.538369    Cartesian  -24.44
    145 z         -2.202951     -1.859030     0.343922    Cartesian  -15.61
    146 x          3.873440      3.873440     0.000000    Cartesian    0.00
    146 y          3.873440      3.873440     0.000000    Cartesian    0.00
    146 z          0.000000      0.000000     0.000000    Cartesian    0.00
    147 x          4.405902      4.517147     0.111244    Cartesian    2.52
    147 y          0.000000     -0.205749    -0.205749    Cartesian    0.00
    147 z          0.000000      0.000000     0.000000    Cartesian    0.00
    148 x          2.202951      2.133265    -0.069686    Cartesian   -3.16
    148 y          6.608853      6.512167    -0.096687    Cartesian   -1.46
    148 z         -2.202951     -2.177467     0.025484    Cartesian   -1.16
    149 x          2.202951      1.811810    -0.391141    Cartesian  -17.76
    149 y         -2.202951     -2.026983     0.175968    Cartesian   -7.99
    149 z         -2.202951     -1.926990     0.275961    Cartesian  -12.53
    150 x          4.405902      4.326711    -0.079192    Cartesian   -1.80
    150 y          4.405902      4.326711    -0.079192    Cartesian   -1.80
    150 z          4.405902      4.361445    -0.044457    Cartesian   -1.01
    151 x          4.405902      4.386335    -0.019568    Cartesian   -0.44
    151 y          0.000000     -0.044413    -0.044413    Cartesian    0.00
    151 z          4.405902      4.406182     0.000280    Cartesian    0.01
    152 x          0.000000     -0.035511    -0.035511    Cartesian    0.00
    152 y          0.000000     -0.035511    -0.035511    Cartesian    0.00
    152 z          4.405902      4.581146     0.175244    Cartesian    3.98
    153 x          6.608853      6.371598    -0.237255    Cartesian   -3.59
    153 y          6.608853      6.371598    -0.237255    Cartesian   -3.59
    153 z         -2.202951     -2.034787     0.168164    Cartesian   -7.63
    154 x          2.202951      2.187971    -0.014980    Cartesian   -0.68
    154 y          2.202951      2.187971    -0.014980    Cartesian   -0.68
    154 z          6.608853      6.564177    -0.044676    Cartesian   -0.68
    155 x          6.608853      6.581376    -0.027477    Cartesian   -0.42
    155 y         -2.202951     -2.267820    -0.064869    Cartesian    2.94
    155 z         -2.202951     -2.236286    -0.033335    Cartesian    1.51
    156 x         -2.202951     -1.947907     0.255045    Cartesian  -11.58
    156 y         -2.202951     -1.947907     0.255045    Cartesian  -11.58
    156 z         -2.202951     -1.859239     0.343712    Cartesian  -15.60
    157 x          4.405902      4.344600    -0.061302    Cartesian   -1.39
    157 y          8.811805      8.752247    -0.059558    Cartesian   -0.68
    157 z          0.000000      0.000000     0.000000    Cartesian    0.00
    158 x          8.811805      8.842580     0.030775    Cartesian    0.35
    158 y          0.000000     -0.032735    -0.032735    Cartesian    0.00
    158 z          0.000000      0.000000     0.000000    Cartesian    0.00
    159 x          4.405902      4.417007     0.011104    Cartesian    0.25
    159 y         -4.405902     -4.481974    -0.076071    Cartesian    1.73
    159 z          0.000000      0.000000     0.000000    Cartesian    0.00
    160 x          0.000000     -0.018028    -0.018028    Cartesian    0.00
    160 y         -4.405902     -4.589601    -0.183699    Cartesian    4.17
    160 z          0.000000      0.000000     0.000000    Cartesian    0.00
    161 x          2.202951      2.168211    -0.034740    Cartesian   -1.58
    161 y          6.608853      6.554572    -0.054282    Cartesian   -0.82
    161 z          6.608853      6.562861    -0.045992    Cartesian   -0.70
    162 x          2.202951      2.210480     0.007529    Cartesian    0.34
    162 y         -2.202951     -2.235228    -0.032277    Cartesian    1.47
    162 z          6.608853      6.573155    -0.035698    Cartesian   -0.54
    163 x          4.405902      4.395719    -0.010183    Cartesian   -0.23
    163 y          8.811805      8.773553    -0.038252    Cartesian   -0.43
    163 z          4.405902      4.380200    -0.025702    Cartesian   -0.58
    164 x          8.811805      8.809723    -0.002081    Cartesian   -0.02
    164 y          0.000000     -0.008776    -0.008776    Cartesian    0.00
    164 z          4.405902      4.405586    -0.000317    Cartesian   -0.01
    165 x          4.405902      4.388633    -0.017269    Cartesian   -0.39
    165 y         -4.405902     -4.414521    -0.008619    Cartesian    0.20
    165 z          4.405902      4.396677    -0.009225    Cartesian   -0.21
    166 x          0.000000     -0.010094    -0.010094    Cartesian    0.00
    166 y         -4.405902     -4.424879    -0.018976    Cartesian    0.43
    166 z          4.405902      4.422151     0.016249    Cartesian    0.37
    167 x          2.202951      2.192023    -0.010928    Cartesian   -0.50
    167 y         11.014756     10.981119    -0.033637    Cartesian   -0.31
    167 z         -2.202951     -2.200052     0.002899    Cartesian   -0.13
    168 x          6.608853      6.565588    -0.043266    Cartesian   -0.65
    168 y          6.608853      6.565588    -0.043266    Cartesian   -0.65
    168 z          6.608853      6.548799    -0.060055    Cartesian   -0.91
    169 x          6.608853      6.564703    -0.044150    Cartesian   -0.67
    169 y         -2.202951     -2.201570     0.001381    Cartesian   -0.06
    169 z          6.608853      6.577655    -0.031199    Cartesian   -0.47
    170 x          2.202951      2.203183     0.000232    Cartesian    0.01
    170 y         -6.608853     -6.595386     0.013468    Cartesian   -0.20
    170 z         -2.202951     -2.220828    -0.017877    Cartesian    0.81
    171 x         -2.202951     -2.238964    -0.036012    Cartesian    1.63
    171 y         -2.202951     -2.238964    -0.036012    Cartesian    1.63
    171 z          6.608853      6.581891    -0.026962    Cartesian   -0.41
    172 x          8.811805      8.768559    -0.043246    Cartesian   -0.49
    172 y          8.811805      8.768559    -0.043246    Cartesian   -0.49
    172 z          0.000000      0.000000     0.000000    Cartesian    0.00
    173 x          4.405902      4.405776    -0.000126    Cartesian   -0.00
    173 y          4.405902      4.405776    -0.000126    Cartesian   -0.00
    173 z          8.811805      8.798914    -0.012891    Cartesian   -0.15
    174 x          4.405902      4.402991    -0.002911    Cartesian   -0.07
    174 y          0.000000     -0.006626    -0.006626    Cartesian    0.00
    174 z          8.811805      8.819430     0.007626    Cartesian    0.09
    175 x          8.811805      8.823794     0.011990    Cartesian    0.14
    175 y         -4.405902     -4.432720    -0.026818    Cartesian    0.61
    175 z          0.000000      0.000000     0.000000    Cartesian    0.00
    176 x          0.000000     -0.000403    -0.000403    Cartesian    0.00
    176 y          0.000000     -0.000403    -0.000403    Cartesian    0.00
    176 z          8.811805      8.862336     0.050532    Cartesian    0.57
    177 x         -4.405902     -4.429572    -0.023670    Cartesian    0.54
    177 y         -4.405902     -4.429572    -0.023670    Cartesian    0.54
    177 z          0.000000      0.000000     0.000000    Cartesian    0.00
    178 x          6.608853      6.586960    -0.021894    Cartesian   -0.33
    178 y         11.014756     10.962540    -0.052216    Cartesian   -0.47
    178 z         -2.202951     -2.192665     0.010286    Cartesian   -0.47
    179 x         11.014756     10.987151    -0.027605    Cartesian   -0.25
    179 y         -2.202951     -2.211813    -0.008862    Cartesian    0.40
    179 z         -2.202951     -2.200520     0.002431    Cartesian   -0.11
    180 x          6.608853      6.581472    -0.027382    Cartesian   -0.41
    180 y         -6.608853     -6.603050     0.005803    Cartesian   -0.09
    180 z         -2.202951     -2.195968     0.006983    Cartesian   -0.32
    181 x         -2.202951     -2.236147    -0.033196    Cartesian    1.51
    181 y         -6.608853     -6.583016     0.025838    Cartesian   -0.39
    181 z         -2.202951     -2.220406    -0.017455    Cartesian    0.79
    182 x          8.811805      8.797956    -0.013848    Cartesian   -0.16
    182 y          8.811805      8.797956    -0.013848    Cartesian   -0.16
    182 z          4.405902      4.390009    -0.015893    Cartesian   -0.36
    183 x          8.811805      8.819856     0.008051    Cartesian    0.09
    183 y         -4.405902     -4.418786    -0.012883    Cartesian    0.29
    183 z          4.405902      4.411354     0.005452    Cartesian    0.12
    184 x         -4.405902     -4.404192     0.001710    Cartesian   -0.04
    184 y         -4.405902     -4.404192     0.001710    Cartesian   -0.04
    184 z          4.405902      4.394937    -0.010965    Cartesian   -0.25
    185 x          2.202951      2.195087    -0.007864    Cartesian   -0.36
    185 y         11.014756     10.981947    -0.032808    Cartesian   -0.30
    185 z          6.608853      6.587723    -0.021130    Cartesian   -0.32
    186 x          2.202951      2.202128    -0.000823    Cartesian   -0.04
    186 y          2.202951      2.202128    -0.000823    Cartesian   -0.04
    186 z         11.014756     10.982819    -0.031937    Cartesian   -0.29
    187 x          2.202951      2.183779    -0.019172    Cartesian   -0.87
    187 y         -6.608853     -6.590015     0.018839    Cartesian   -0.29
    187 z          6.608853      6.585908    -0.022945    Cartesian   -0.35
    188 x          4.405902      4.409728     0.003826    Cartesian    0.09
    188 y         13.217707     13.203107    -0.014600    Cartesian   -0.11
    188 z          0.000000      0.000000     0.000000    Cartesian    0.00
    189 x          4.405902      4.403430    -0.002472    Cartesian   -0.06
    189 y          8.811805      8.801236    -0.010568    Cartesian   -0.12
    189 z          8.811805      8.801726    -0.010079    Cartesian   -0.11
    190 x         13.217707     13.222358     0.004651    Cartesian    0.04
    190 y          0.000000     -0.006660    -0.006660    Cartesian    0.00
    190 z          0.000000      0.000000     0.000000    Cartesian    0.00
    191 x          8.811805      8.808407    -0.003398    Cartesian   -0.04
    191 y          0.000000     -0.000588    -0.000588    Cartesian    0.00
    191 z          8.811805      8.805516    -0.006288    Cartesian   -0.07
    192 x          4.405902      4.407262     0.001360    Cartesian    0.03
    192 y         -4.405902     -4.407226    -0.001323    Cartesian    0.03
    192 z          8.811805      8.810456    -0.001349    Cartesian   -0.02
    193 x          4.405902      4.402903    -0.002999    Cartesian   -0.07
    193 y         -8.811805     -8.832009    -0.020204    Cartesian    0.23
    193 z          0.000000      0.000000     0.000000    Cartesian    0.00
    194 x          0.000000     -0.003256    -0.003256    Cartesian    0.00
    194 y         -4.405902     -4.405937    -0.000035    Cartesian    0.00
    194 z          8.811805      8.811796    -0.000009    Cartesian   -0.00
    195 x          0.000000     -0.002740    -0.002740    Cartesian    0.00
    195 y         -8.811805     -8.852712    -0.040907    Cartesian    0.46
    195 z          0.000000      0.000000     0.000000    Cartesian    0.00
    196 x          6.608853      6.598307    -0.010546    Cartesian   -0.16
    196 y         11.014756     10.966962    -0.047794    Cartesian   -0.43
    196 z          6.608853      6.578056    -0.030797    Cartesian   -0.47
    197 x          2.202951      2.197951    -0.005000    Cartesian   -0.23
    197 y          6.608853      6.588975    -0.019878    Cartesian   -0.30
    197 z         11.014756     10.975073    -0.039683    Cartesian   -0.36
    198 x         11.014756     10.978132    -0.036624    Cartesian   -0.33
    198 y         -2.202951     -2.192513     0.010438    Cartesian   -0.47
    198 z          6.608853      6.594471    -0.014383    Cartesian   -0.22
    199 x          2.202951      2.198081    -0.004870    Cartesian   -0.22
    199 y         -2.202951     -2.201954     0.000997    Cartesian   -0.05
    199 z         11.014756     10.974138    -0.040618    Cartesian   -0.37
    200 x          6.608853      6.573773    -0.035080    Cartesian   -0.53
    200 y         -6.608853     -6.579538     0.029315    Cartesian   -0.44
    200 z          6.608853      6.583235    -0.025619    Cartesian   -0.39
    201 x         -2.202951     -2.192051     0.010901    Cartesian   -0.49
    201 y         -6.608853     -6.579880     0.028974    Cartesian   -0.44
    201 z          6.608853      6.580492    -0.028362    Cartesian   -0.43
--------------------------------------------------------------------------------


  Time to end of optimisation  =       52.3125 seconds


  Peak dynamic memory used =      90.31 MB 


  Timing analysis for GULP :

--------------------------------------------------------------------------------
  Task / Subroutine                                          Time (Seconds)
--------------------------------------------------------------------------------
  Calculation of reciprocal space energy and derivatives          0.0006
  Calculation of reciprocal space energy using symmetry           0.0011
  Calculation of real space energy and derivatives                0.0038
  Calculation of real space energy using symmetry                 0.0113
  Calculation for region 1 energy and derivatives (2-b)          27.5619
  Calculation for region 2a energy                               18.8813
  Calculation for region 2b energy                                0.0114
  Calculation and manipulation of Hessian matrix                  5.1932
  Calculation of matrix inversion                                 0.4887
  Symmetry generation of equivalent positions                     0.0044
--------------------------------------------------------------------------------
  Total CPU time                                                 52.3126
--------------------------------------------------------------------------------


  Dump file written as Na3OCl.grs


  Job Finished at 15:19.07 19th January    2021                               

