********************************************************************************
*                       GENERAL UTILITY LATTICE PROGRAM                        *
*                                 Julian Gale                                  *
*                       Curtin Institute for Computation                       *
*                    School of Molecular and Life Sciences                     *
*                    Curtin University, Western Australia                      *
********************************************************************************
* Version = 5.2.0 * Last modified =  10th September 2020                       *
********************************************************************************
*  optimise     - perform optimisation run                                     *
*  conp         - constant pressure calculation                                *
*  property     - calculate properties for final geometry                      *
*  defect       - perform defect calculation after bulk run                    *
*  compare      - compare initial and final structures                         *
********************************************************************************

  Job Started  at 15:18.26 19th January    2021                               

  Number of CPUs =     1


  Total number of configurations input =      1

********************************************************************************
*  Input for Configuration =   1                                               *
********************************************************************************

  Formula = OClNa3                                                      

  Number of irreducible atoms/shells =       5


  Total number atoms/shells =       7

  Dimensionality = 3               :  Bulk   


  Symmetry :

  Crystal family                   :  Cubic       
  Crystal class  (Groth - 1921)    :  Cubic Hexakisoctahedral              

  Space group (centrosymmetric)    :  P M 3 M         

  Patterson group                  :  P m -3 m 

  Cartesian lattice vectors (Angstroms) :

        4.504000    0.000000    0.000000
        0.000000    4.504000    0.000000
        0.000000    0.000000    4.504000

  Cell parameters (Angstroms/Degrees):

  a =       4.5040    alpha =  90.0000
  b =       4.5040    beta  =  90.0000
  c =       4.5040    gamma =  90.0000

  Initial cell volume =          91.368216 Angs**3

  Temperature of configuration =   0.00     K 

  Pressure of configuration =         0.000 GPa 

  Fractional coordinates of asymmetric unit :

--------------------------------------------------------------------------------
   No.  Atomic       x           y          z         Charge      Occupancy
        Label      (Frac)      (Frac)     (Frac)        (e)         (Frac)  
--------------------------------------------------------------------------------
      1 O     c    0.000000    0.000000    0.000000     0.18300    1.000000    
      2 Cl    c    0.500000    0.500000    0.500000     1.48500    1.000000    
      3 Na    c    0.500000    0.000000    0.000000     1.00000    1.000000    
      4 O     s    0.000000    0.000000    0.000000    -2.18300    1.000000    
      5 Cl    s    0.500000    0.500000    0.500000    -2.48500    1.000000    
--------------------------------------------------------------------------------


  Constraints : 

--------------------------------------------------------------------------------
  Constraint no.      Unconstrained     Constrained    Coefficient    Offset
                         Variable         Variable
--------------------------------------------------------------------------------
           1              Strain 1        Strain 2       1.00000      0.0000
           2              Strain 1        Strain 3       1.00000      0.0000
--------------------------------------------------------------------------------


********************************************************************************
*  General input information                                                   *
********************************************************************************

  Species output for all configurations : 

--------------------------------------------------------------------------------
  Species    Type    Atomic    Atomic    Charge       Radii (Angs)     Library
                     Number     Mass       (e)     Cova   Ionic  VDW   Symbol
--------------------------------------------------------------------------------
    Na       Core       11      22.99   1.000000   0.970  0.000  2.300          
    O        Core        8      16.00   0.183000   0.730  0.000  1.360          
    O        Shell       8       0.00  -2.183000   0.730  0.000  1.360          
    Cl       Core       17      35.45   1.485000   0.990  0.000  1.650          
    Cl       Shell      17       0.00  -2.485000   0.990  0.000  1.650          
    Mg       Core       12      24.31   0.415000   1.100  0.000  0.000          
    Mg       Shell      12       0.00   1.585000   1.100  0.000  0.000          
    Ca       Core       20      40.08  -1.135000   0.990  0.000  0.000          
    Ca       Shell      20       0.00   3.135000   0.990  0.000  0.000          
    Sr       Core       38      87.62  -1.251000   1.120  0.000  0.000          
    Sr       Shell      38       0.00   3.251000   1.120  0.000  0.000          
    Ba       Core       56     137.33  -7.203000   1.340  0.000  0.000          
    Ba       Shell      56       0.00   9.203000   1.340  0.000  0.000          
--------------------------------------------------------------------------------


  Lattice summation method               =    Ewald          (3-D)
                                         =    Parry          (2-D)
                                         =    Saunders et al (1-D)
  Accuracy factor for lattice sums       =   12.000


  Analytic derivatives to be used

  Time limit = Infinity

  Maximum range for interatomic potentials =    100000.000000 Angstroms

  General interatomic potentials :

--------------------------------------------------------------------------------
Atom  Types   Potential      Parameter       Value         Units   Cutoffs(Ang)
  1     2                                                            Min /  Max 
--------------------------------------------------------------------------------
O    c O    s Spring (c-s)  Spring k 2       593.71600    eV*Ang^-2 0.000  0.800
                            Spring k 4       0.0000000    eV*Ang^-4 
--------------------------------------------------------------------------------
Cl   c Cl   s Spring (c-s)  Spring k 2       29.380000    eV*Ang^-2 0.000  0.800
                            Spring k 4       0.0000000    eV*Ang^-4 
--------------------------------------------------------------------------------
Mg   c Mg   s Spring (c-s)  Spring k 2       361.60000    eV*Ang^-2 0.000  0.800
                            Spring k 4       0.0000000    eV*Ang^-4 
--------------------------------------------------------------------------------
Ca   c Ca   s Spring (c-s)  Spring k 2       110.20000    eV*Ang^-2 0.000  0.800
                            Spring k 4       0.0000000    eV*Ang^-4 
--------------------------------------------------------------------------------
Sr   c Sr   s Spring (c-s)  Spring k 2       71.700000    eV*Ang^-2 0.000  0.800
                            Spring k 4       0.0000000    eV*Ang^-4 
--------------------------------------------------------------------------------
Ba   c Ba   s Spring (c-s)  Spring k 2       495.20000    eV*Ang^-2 0.000  0.800
                            Spring k 4       0.0000000    eV*Ang^-4 
--------------------------------------------------------------------------------
Na   c Na   c Buckingham    Buckingham A     1788.1900    eV        0.000 12.000
                            Buckingham rho  0.15900000    Ang       
                            Buckingham C     0.0000000    eV*Ang^6  
--------------------------------------------------------------------------------
Na   c O    s Buckingham    Buckingham A     588.38000    eV        0.000 12.000
                            Buckingham rho  0.33800000    Ang       
                            Buckingham C     0.0000000    eV*Ang^6  
--------------------------------------------------------------------------------
Na   c Cl   s Buckingham    Buckingham A     1170.4100    eV        0.000 12.000
                            Buckingham rho  0.31500000    Ang       
                            Buckingham C     0.0000000    eV*Ang^6  
--------------------------------------------------------------------------------
O    s O    s Buckingham    Buckingham A     22764.300    eV        0.000 12.000
                            Buckingham rho  0.14900000    Ang       
                            Buckingham C     13.190000    eV*Ang^6  
--------------------------------------------------------------------------------
O    s Cl   s Buckingham    Buckingham A     8286.9100    eV        0.000 12.000
                            Buckingham rho  0.25900000    Ang       
                            Buckingham C     62.200000    eV*Ang^6  
--------------------------------------------------------------------------------
Cl   s Cl   s Buckingham    Buckingham A     1227.2000    eV        0.000 12.000
                            Buckingham rho  0.32100000    Ang       
                            Buckingham C     14.530000    eV*Ang^6  
--------------------------------------------------------------------------------
O    s Mg   s Buckingham    Buckingham A     1428.5000    eV        0.000 12.000
                            Buckingham rho  0.29450000    Ang       
                            Buckingham C     0.0000000    eV*Ang^6  
--------------------------------------------------------------------------------
Mg   s Cl   s Buckingham    Buckingham A     4914.5400    eV        0.000 12.000
                            Buckingham rho  0.25700000    Ang       
                            Buckingham C     0.0000000    eV*Ang^6  
--------------------------------------------------------------------------------
O    s Ca   s Buckingham    Buckingham A     1090.4000    eV        0.000 12.000
                            Buckingham rho  0.34370000    Ang       
                            Buckingham C     0.0000000    eV*Ang^6  
--------------------------------------------------------------------------------
Cl   s Ca   s Buckingham    Buckingham A     2302.0000    eV        0.000 12.000
                            Buckingham rho  0.34020000    Ang       
                            Buckingham C     0.0000000    eV*Ang^6  
--------------------------------------------------------------------------------
O    s Sr   s Buckingham    Buckingham A     959.10000    eV        0.000 12.000
                            Buckingham rho  0.37210000    Ang       
                            Buckingham C     0.0000000    eV*Ang^6  
--------------------------------------------------------------------------------
Cl   s Sr   s Buckingham    Buckingham A     2191.0900    eV        0.000 12.000
                            Buckingham rho  0.34570000    Ang       
                            Buckingham C     0.0000000    eV*Ang^6  
--------------------------------------------------------------------------------
O    s Ba   s Buckingham    Buckingham A     905.70000    eV        0.000 12.000
                            Buckingham rho  0.39760000    Ang       
                            Buckingham C     0.0000000    eV*Ang^6  
--------------------------------------------------------------------------------
Cl   s Ba   s Buckingham    Buckingham A     2704.5500    eV        0.000 12.000
                            Buckingham rho  0.35280000    Ang       
                            Buckingham C     0.0000000    eV*Ang^6  
--------------------------------------------------------------------------------

********************************************************************************
*  Output for configuration   1                                                *
********************************************************************************


  Components of energy : 

--------------------------------------------------------------------------------
  Interatomic potentials     =           4.94315381 eV    
  Monopole - monopole (real) =         -10.03624526 eV    
  Monopole - monopole (recip)=         -29.53581274 eV    
  Monopole - monopole (total)=         -39.57205800 eV    
--------------------------------------------------------------------------------
  Total lattice energy       =         -34.62890419 eV    
--------------------------------------------------------------------------------
  Total lattice energy       =           -3341.1599 kJ/(mole unit cells)
--------------------------------------------------------------------------------


  Number of variables =        1

  Maximum number of calculations  =          1000
  Maximum Hessian update interval =            10
  Maximum step size               =   1.000000000
  Maximum parameter tolerance     =   0.000010000
  Maximum function  tolerance     =   0.000010000
  Maximum gradient  tolerance     =   0.001000000
  Maximum gradient  component     =   0.010000000

  Symmetry constrained optimisation

  Symmetry used for second derivatives

  Cell parameters to be optimised using strains

  Newton-Raphson optimiser to be used

  BFGS hessian update to be used

  Lower half triangular hessian to be used

  Start of bulk optimisation :

  Cycle:      0 Energy:       -34.628904  Gnorm:      4.328237  CPU:    0.017
  ** Hessian calculated **
  Cycle:      1 Energy:       -34.677667  Gnorm:      0.044008  CPU:    0.021
  Cycle:      2 Energy:       -34.677671  Gnorm:      0.003653  CPU:    0.025


  **** Optimisation achieved ****


  Final energy =     -34.67767136 eV
  Final Gnorm  =       0.00000010

  Components of energy : 

--------------------------------------------------------------------------------
  Interatomic potentials     =           5.77546103 eV    
  Monopole - monopole (real) =         -10.25970290 eV    
  Monopole - monopole (recip)=         -30.19342950 eV    
  Monopole - monopole (total)=         -40.45313239 eV    
--------------------------------------------------------------------------------
  Total lattice energy       =         -34.67767136 eV    
--------------------------------------------------------------------------------
  Total lattice energy       =           -3345.8652 kJ/(mole unit cells)
--------------------------------------------------------------------------------

  Final asymmetric unit coordinates :

--------------------------------------------------------------------------------
   No.  Atomic        x           y           z         Radius
        Label       (Frac)      (Frac)      (Frac)       (Angs) 
--------------------------------------------------------------------------------
     1  O     c     0.000000    0.000000    0.000000    0.000000
     2  Cl    c     0.500000    0.500000    0.500000    0.000000
     3  Na    c     0.500000    0.000000    0.000000    0.000000
     4  O     s     0.000000    0.000000    0.000000    0.000000
     5  Cl    s     0.500000    0.500000    0.500000    0.000000
--------------------------------------------------------------------------------

  Final Cartesian lattice vectors (Angstroms) :

        4.405902    0.000000    0.000000
        0.000000    4.405902    0.000000
        0.000000    0.000000    4.405902


  Final cell parameters and derivatives :

--------------------------------------------------------------------------------
       a            4.405902 Angstrom     dE/de1(xx)     0.000000 eV/strain
       b            4.405902 Angstrom     dE/de2(yy)     0.000000 eV/strain
       c            4.405902 Angstrom     dE/de3(zz)     0.000000 eV/strain
       alpha       90.000000 Degrees      dE/de4(yz)     0.000000 eV/strain
       beta        90.000000 Degrees      dE/de5(xz)     0.000000 eV/strain
       gamma       90.000000 Degrees      dE/de6(xy)     0.000000 eV/strain
--------------------------------------------------------------------------------

  Primitive cell volume =            85.527266 Angs**3

  Density of cell =      2.338030 g/cm**3

  Non-primitive cell volume =            85.527266 Angs**3


  Final internal derivatives :

--------------------------------------------------------------------------------
   No.  Atomic          a             b             c           Radius
        Label          (eV)          (eV)          (eV)        (eV/Angs)
--------------------------------------------------------------------------------
      1 O     c       0.000000      0.000000      0.000000      0.000000
      2 Cl    c       0.000000      0.000000      0.000000      0.000000
      3 Na    c       0.000000      0.000000      0.000000      0.000000
      4 O     s       0.000000      0.000000      0.000000      0.000000
      5 Cl    s       0.000000      0.000000      0.000000      0.000000
--------------------------------------------------------------------------------
  Maximum abs         0.000000      0.000000      0.000000      0.000000
--------------------------------------------------------------------------------

  Comparison of initial and final structures : 

--------------------------------------------------------------------------------
  Parameter   Initial value   Final value   Difference    Units      Percent
--------------------------------------------------------------------------------
    Volume        91.368216     85.527266    -5.840950    Angs**3     -6.39
    a              4.504000      4.405902    -0.098098    Angstroms   -2.18
    b              4.504000      4.405902    -0.098098    Angstroms   -2.18
    c              4.504000      4.405902    -0.098098    Angstroms   -2.18
    alpha         90.000000     90.000000     0.000000    Degrees      0.00
    beta          90.000000     90.000000     0.000000    Degrees      0.00
    gamma         90.000000     90.000000     0.000000    Degrees      0.00
      1 x          0.000000      0.000000     0.000000    Fractional   0.00
      1 y          0.000000      0.000000     0.000000    Fractional   0.00
      1 z          0.000000      0.000000     0.000000    Fractional   0.00
      2 x          0.500000      0.500000     0.000000    Fractional   0.00
      2 y          0.500000      0.500000     0.000000    Fractional   0.00
      2 z          0.500000      0.500000     0.000000    Fractional   0.00
      3 x          0.500000      0.500000     0.000000    Fractional   0.00
      3 y          0.000000      0.000000     0.000000    Fractional   0.00
      3 z          0.000000      0.000000     0.000000    Fractional   0.00
      4 x          0.000000      0.000000     0.000000    Fractional   0.00
      4 y          0.000000      0.000000     0.000000    Fractional   0.00
      4 z          0.000000      0.000000     0.000000    Fractional   0.00
      5 x          0.500000      0.500000     0.000000    Fractional   0.00
      5 y          0.500000      0.500000     0.000000    Fractional   0.00
      5 z          0.500000      0.500000     0.000000    Fractional   0.00
--------------------------------------------------------------------------------


  Born effective charge tensors : 

-------------------------------------------------------------------------------
  Atom             x           y             z
-------------------------------------------------------------------------------
    1 O     x      -2.2939      0.0000      0.0000
            y       0.0000     -2.2939      0.0000
            z       0.0000      0.0000     -2.2939
-------------------------------------------------------------------------------
    2 Cl    x      -0.9918     -0.0000      0.0000
            y      -0.0000     -0.9918      0.0000
            z       0.0000      0.0000     -0.9918
-------------------------------------------------------------------------------
    3 Na    x       0.8372     -0.0000     -0.0000
            y      -0.0000      1.2243     -0.0000
            z       0.0000     -0.0000      1.2243
-------------------------------------------------------------------------------




  Elastic Constant Matrix: (Units=GPa)

-------------------------------------------------------------------------------
  Indices      1         2         3         4         5         6    
-------------------------------------------------------------------------------
       1     82.7680   24.3534   24.3534   -0.0000    0.0000   -0.0000
       2     24.3534   82.7680   24.3534   -0.0000   -0.0000   -0.0000
       3     24.3534   24.3534   82.7680    0.0000   -0.0000    0.0000
       4     -0.0000   -0.0000    0.0000   24.3534   -0.0000   -0.0000
       5      0.0000   -0.0000   -0.0000   -0.0000   24.3534   -0.0000
       6     -0.0000   -0.0000    0.0000   -0.0000   -0.0000   24.3534
-------------------------------------------------------------------------------


  Elastic Compliance Matrix: (Units=1/GPa)

-------------------------------------------------------------------------------
  Indices      1         2         3         4         5         6    
-------------------------------------------------------------------------------
       1    0.013948 -0.003171 -0.003171 -0.000000 -0.000000  0.000000
       2   -0.003171  0.013948 -0.003171  0.000000 -0.000000  0.000000
       3   -0.003171 -0.003171  0.013948 -0.000000  0.000000 -0.000000
       4   -0.000000  0.000000 -0.000000  0.041062  0.000000  0.000000
       5   -0.000000 -0.000000  0.000000  0.000000  0.041062  0.000000
       6    0.000000  0.000000 -0.000000  0.000000  0.000000  0.041062
-------------------------------------------------------------------------------

  Mechanical properties :

-------------------------------------------------------------------------------
  Convention :                    Reuss         Voigt         Hill
-------------------------------------------------------------------------------
  Bulk  Modulus (GPa)     =      43.82493      43.82493      43.82493
  Shear Modulus (GPa)     =      26.08758      26.29496      26.19127
-------------------------------------------------------------------------------
  Velocity S-wave (km/s)  =       3.34035       3.35360       3.34698
  Velocity P-wave (km/s)  =       5.79842       5.80861       5.80351
-------------------------------------------------------------------------------
  Compressibility (1/GPa) =    0.02281806
-------------------------------------------------------------------------------
  Stress axis :                     x             y             z
-------------------------------------------------------------------------------
  Youngs Moduli (GPa)     =      71.69479      71.69479      71.69479
-------------------------------------------------------------------------------
  Poissons Ratio (x)      =                     0.22734       0.22734
  Poissons Ratio (y)      =       0.22734                     0.22734
  Poissons Ratio (z)      =       0.22734       0.22734
-------------------------------------------------------------------------------


  Piezoelectric Strain Matrix: (Units=C/m**2)

-------------------------------------------------------------------------------
  Indices      1         2         3         4         5         6    
-------------------------------------------------------------------------------
       x    -0.00000  -0.00000  -0.00000  -0.00000   0.00000   0.00000
       y    -0.00000   0.00000  -0.00000   0.00000  -0.00000   0.00000
       z     0.00000   0.00000   0.00000  -0.00000   0.00000  -0.00000
-------------------------------------------------------------------------------


  Piezoelectric Stress Matrix: (Units=10**-11 C/N)

-------------------------------------------------------------------------------
  Indices      1         2         3         4         5         6    
-------------------------------------------------------------------------------
       x    -0.00000  -0.00000  -0.00000  -0.00000   0.00000   0.00000
       y    -0.00000   0.00000  -0.00000   0.00000  -0.00000   0.00000
       z     0.00000   0.00000  -0.00000  -0.00000   0.00000  -0.00000
-------------------------------------------------------------------------------


  Static dielectric constant tensor : 

-------------------------------------------------------------------------------
              x         y         z
-------------------------------------------------------------------------------
       x    11.08357  -0.00000  -0.00000
       y    -0.00000  11.08357  -0.00000
       z    -0.00000  -0.00000  11.08357
--------------------------------------------------------------------------------

  High frequency dielectric constant tensor : 

-------------------------------------------------------------------------------
              x         y         z
-------------------------------------------------------------------------------
       x     1.50771  -0.00000  -0.00000
       y    -0.00000   1.50771  -0.00000
       z    -0.00000  -0.00000   1.50771
-------------------------------------------------------------------------------

  Static refractive indices : 

-------------------------------------------------------------------------------
    1 =    3.32920      2 =    3.32920      3 =    3.32920
-------------------------------------------------------------------------------

  High frequency refractive indices : 

-------------------------------------------------------------------------------
    1 =    1.22789      2 =    1.22789      3 =    1.22789
-------------------------------------------------------------------------------


  Time to end of optimisation =       0.0350 seconds

********************************************************************************
*  Defect calculation for configuration   1 :                                  *
********************************************************************************

  Total number of defects =      3

  Total charge on defect  =   2.00

  Defect centre is at   2.2520   2.2520   0.0000  Angs

  Region 1 radius =  12.0000      Number of ions =    622

  Number of symmetry inequivalent region 1 ions  =    201

  Region 2 radius =  16.0000      Number of ions =    762

  Number of symmetry inequivalent region 2a ions =    224

  Region 2a mode = 4 : screened electrostatics due to region 1 
                       neglect correction to region 1 forces from 2a
                       region 2a displacements based on defects only

  Region 2a ions will only interact with defects in region 1

  Vacancies:

--------------------------------------------------------------------------------
    Specification type     Symbol/Number         x          y          z
--------------------------------------------------------------------------------
    Cartesian                                0.000000   0.000000   0.000000
    Cartesian                                4.504000   4.504000   0.000000
--------------------------------------------------------------------------------

  Interstitials:

--------------------------------------------------------------------------------
    Specification type     Symbol/Number         x          y          z
--------------------------------------------------------------------------------
    Atom/Cartesian          O                4.053600   4.053600   0.000000
--------------------------------------------------------------------------------


  Symmetry reduced region 1 (Relative to defect centre) :

--------------------------------------------------------------------------------
   No.   Atomic       x            y             z       Radius  Multiplicity   
         Label      (Angs)       (Angs)        (Angs)    (Angs)     
--------------------------------------------------------------------------------
     1  Na    c     -0.0490 *     2.1539 *     0.0000    0.0000     2          
     2  Cl    c     -0.0490 *    -0.0490      -2.2030 *  0.0000     2          
     3  Na    c     -0.0490 *    -2.2520 *     0.0000    0.0000     2          
     4  O     c      1.8016       1.8016       0.0000    0.0000     1    Defect
     5  O     c      2.1539 *    -2.2520 *     0.0000    0.0000     2          
     6  Na    c      2.1539 *     2.1539      -2.2030 *  0.0000     2          
     7  Na    c      2.1539 *    -2.2520 *    -2.2030 *  0.0000     4          
     8  Na    c     -2.2520 *    -2.2520      -2.2030 *  0.0000     2          
     9  Na    c      4.3569 *     2.1539 *     0.0000    0.0000     2          
    10  Cl    c     -0.0490 *     4.3569 *    -2.2030 *  0.0000     4          
    11  Na    c     -0.0490 *     2.1539 *     4.4059 *  0.0000     4          
    12  Na    c      4.3569 *    -2.2520 *     0.0000    0.0000     2          
    13  Na    c     -0.0490 *    -2.2520 *     4.4059 *  0.0000     4          
    14  Na    c     -4.4550 *     2.1539 *     0.0000    0.0000     2          
    15  Cl    c     -0.0490 *    -4.4550 *    -2.2030 *  0.0000     4          
    16  Na    c     -4.4550 *    -2.2520 *     0.0000    0.0000     2          
    17  O     c      2.1539 *     2.1539       4.4059 *  0.0000     2          
    18  O     c      2.1539 *    -2.2520 *     4.4059 *  0.0000     4          
    19  O     c     -2.2520 *    -2.2520       4.4059 *  0.0000     2          
    20  Cl    c      4.3569 *     4.3569      -2.2030 *  0.0000     2          
    21  Na    c     -0.0490 *     6.5598 *     0.0000    0.0000     2          
    22  Na    c      4.3569 *     2.1539 *     4.4059 *  0.0000     4          
    23  Na    c      4.3569 *    -2.2520 *     4.4059 *  0.0000     4          
    24  Cl    c     -0.0490 *    -0.0490       6.6089 *  0.0000     2          
    25  Cl    c      4.3569 *    -4.4550 *    -2.2030 *  0.0000     4          
    26  Na    c     -4.4550 *     2.1539 *     4.4059 *  0.0000     4          
    27  Na    c     -0.0490 *    -6.6579 *     0.0000    0.0000     2          
    28  Na    c     -4.4550 *    -2.2520 *     4.4059 *  0.0000     4          
    29  Cl    c     -4.4550 *    -4.4550      -2.2030 *  0.0000     2          
    30  O     c      2.1539 *     6.5598 *     0.0000    0.0000     2          
    31  O     c      6.5598 *    -2.2520 *     0.0000    0.0000     2          
    32  O     c      2.1539 *    -6.6579 *     0.0000    0.0000     2          
    33  O     c     -2.2520 *    -6.6579 *     0.0000    0.0000     2          
    34  Na    c      2.1539 *     6.5598 *    -2.2030 *  0.0000     4          
    35  Na    c      2.1539 *     2.1539       6.6089 *  0.0000     2          
    36  Na    c      6.5598 *    -2.2520 *    -2.2030 *  0.0000     4          
    37  Na    c      2.1539 *    -2.2520 *     6.6089 *  0.0000     4          
    38  Na    c      2.1539 *    -6.6579 *    -2.2030 *  0.0000     4          
    39  Na    c     -2.2520 *    -2.2520       6.6089 *  0.0000     2          
    40  Na    c     -2.2520 *    -6.6579 *    -2.2030 *  0.0000     4          
    41  Na    c      4.3569 *     6.5598 *     0.0000    0.0000     2          
    42  Na    c     -0.0490 *     6.5598 *     4.4059 *  0.0000     4          
    43  Cl    c     -0.0490 *     4.3569 *     6.6089 *  0.0000     4          
    44  Na    c     -4.4550 *     6.5598 *     0.0000    0.0000     2          
    45  Na    c      4.3569 *    -6.6579 *     0.0000    0.0000     2          
    46  Cl    c     -0.0490 *    -4.4550 *     6.6089 *  0.0000     4          
    47  Na    c     -0.0490 *    -6.6579 *     4.4059 *  0.0000     4          
    48  Na    c     -4.4550 *    -6.6579 *     0.0000    0.0000     2          
    49  O     c      2.1539 *     6.5598 *     4.4059 *  0.0000     4          
    50  O     c      6.5598 *    -2.2520 *     4.4059 *  0.0000     4          
    51  O     c      2.1539 *    -6.6579 *     4.4059 *  0.0000     4          
    52  O     c     -2.2520 *    -6.6579 *     4.4059 *  0.0000     4          
    53  Na    c      4.3569 *     6.5598 *     4.4059 *  0.0000     4          
    54  Na    c      8.7628 *     2.1539 *     0.0000    0.0000     2          
    55  Cl    c     -0.0490 *     8.7628 *    -2.2030 *  0.0000     4          
    56  Cl    c      4.3569 *     4.3569       6.6089 *  0.0000     2          
    57  Na    c      8.7628 *    -2.2520 *     0.0000    0.0000     2          
    58  Na    c     -0.0490 *     2.1539 *     8.8118 *  0.0000     4          
    59  Na    c     -4.4550 *     6.5598 *     4.4059 *  0.0000     4          
    60  Cl    c      4.3569 *    -4.4550 *     6.6089 *  0.0000     4          
    61  Na    c     -0.0490 *    -2.2520 *     8.8118 *  0.0000     4          
    62  Na    c      4.3569 *    -6.6579 *     4.4059 *  0.0000     4          
    63  Na    c     -8.8609 *     2.1539 *     0.0000    0.0000     2          
    64  Cl    c     -0.0490 *    -8.8609 *    -2.2030 *  0.0000     4          
    65  Cl    c     -4.4550 *    -4.4550       6.6089 *  0.0000     2          
    66  Na    c     -8.8609 *    -2.2520 *     0.0000    0.0000     2          
    67  Na    c     -4.4550 *    -6.6579 *     4.4059 *  0.0000     4          
    68  O     c      6.5598 *     6.5598       0.0000    0.0000     1          
    69  O     c      2.1539 *     2.1539       8.8118 *  0.0000     2          
    70  O     c      2.1539 *    -2.2520 *     8.8118 *  0.0000     4          
    71  O     c      6.5598 *    -6.6579 *     0.0000    0.0000     2          
    72  O     c     -2.2520 *    -2.2520       8.8118 *  0.0000     2          
    73  O     c     -6.6579 *    -6.6579       0.0000    0.0000     1          
    74  Na    c      6.5598 *     6.5598      -2.2030 *  0.0000     2          
    75  Na    c      2.1539 *     6.5598 *     6.6089 *  0.0000     4          
    76  Na    c      6.5598 *    -2.2520 *     6.6089 *  0.0000     4          
    77  Na    c      6.5598 *    -6.6579 *    -2.2030 *  0.0000     4          
    78  Na    c      2.1539 *    -6.6579 *     6.6089 *  0.0000     4          
    79  Na    c     -2.2520 *    -6.6579 *     6.6089 *  0.0000     4          
    80  Na    c     -6.6579 *    -6.6579      -2.2030 *  0.0000     2          
    81  Cl    c      4.3569 *     8.7628 *    -2.2030 *  0.0000     4          
    82  Na    c      8.7628 *     2.1539 *     4.4059 *  0.0000     4          
    83  Na    c      4.3569 *     2.1539 *     8.8118 *  0.0000     4          
    84  Na    c      8.7628 *    -2.2520 *     4.4059 *  0.0000     4          
    85  Cl    c      8.7628 *    -4.4550 *    -2.2030 *  0.0000     4          
    86  Na    c      4.3569 *    -2.2520 *     8.8118 *  0.0000     4          
    87  Na    c     -4.4550 *     2.1539 *     8.8118 *  0.0000     4          
    88  Cl    c      4.3569 *    -8.8609 *    -2.2030 *  0.0000     4          
    89  Na    c     -8.8609 *     2.1539 *     4.4059 *  0.0000     4          
    90  Na    c     -4.4550 *    -2.2520 *     8.8118 *  0.0000     4          
    91  Na    c     -8.8609 *    -2.2520 *     4.4059 *  0.0000     4          
    92  Cl    c     -4.4550 *    -8.8609 *    -2.2030 *  0.0000     4          
    93  O     c      6.5598 *     6.5598       4.4059 *  0.0000     2          
    94  O     c      6.5598 *    -6.6579 *     4.4059 *  0.0000     4          
    95  O     c     -6.6579 *    -6.6579       4.4059 *  0.0000     2          
    96  Na    c      8.7628 *     6.5598 *     0.0000    0.0000     2          
    97  Na    c     -0.0490 *    10.9657 *     0.0000    0.0000     2          
    98  Cl    c     -0.0490 *     8.7628 *     6.6089 *  0.0000     4          
    99  Na    c     -0.0490 *     6.5598 *     8.8118 *  0.0000     4          
   100  Na    c      8.7628 *    -6.6579 *     0.0000    0.0000     2          
   101  Cl    c     -0.0490 *    -0.0490      11.0148 *  0.0000     2          
   102  Na    c     -8.8609 *     6.5598 *     0.0000    0.0000     2          
   103  Na    c     -0.0490 *    -6.6579 *     8.8118 *  0.0000     4          
   104  Cl    c     -0.0490 *    -8.8609 *     6.6089 *  0.0000     4          
   105  Na    c     -0.0490 *   -11.0638 *     0.0000    0.0000     2          
   106  Na    c     -8.8609 *    -6.6579 *     0.0000    0.0000     2          
   107  O     c      2.1539 *    10.9657 *     0.0000    0.0000     2          
   108  O     c      2.1539 *     6.5598 *     8.8118 *  0.0000     4          
   109  O     c     10.9657 *    -2.2520 *     0.0000    0.0000     2          
   110  O     c      6.5598 *    -2.2520 *     8.8118 *  0.0000     4          
   111  O     c      2.1539 *    -6.6579 *     8.8118 *  0.0000     4          
   112  O     c      2.1539 *   -11.0638 *     0.0000    0.0000     2          
   113  O     c     -2.2520 *    -6.6579 *     8.8118 *  0.0000     4          
   114  O     c     -2.2520 *   -11.0638 *     0.0000    0.0000     2          
   115  Na    c      6.5598 *     6.5598       6.6089 *  0.0000     2          
   116  Na    c      2.1539 *    10.9657 *    -2.2030 *  0.0000     4          
   117  Na    c     10.9657 *    -2.2520 *    -2.2030 *  0.0000     4          
   118  Na    c      2.1539 *     2.1539      11.0148 *  0.0000     2          
   119  Na    c      2.1539 *    -2.2520 *    11.0148 *  0.0000     4          
   120  Na    c      6.5598 *    -6.6579 *     6.6089 *  0.0000     4          
   121  Na    c     -2.2520 *    -2.2520      11.0148 *  0.0000     2          
   122  Na    c      2.1539 *   -11.0638 *    -2.2030 *  0.0000     4          
   123  Na    c     -2.2520 *   -11.0638 *    -2.2030 *  0.0000     4          
   124  Na    c     -6.6579 *    -6.6579       6.6089 *  0.0000     2          
   125  Na    c      4.3569 *    10.9657 *     0.0000    0.0000     2          
   126  Na    c      8.7628 *     6.5598 *     4.4059 *  0.0000     4          
   127  Cl    c      4.3569 *     8.7628 *     6.6089 *  0.0000     4          
   128  Na    c     -0.0490 *    10.9657 *     4.4059 *  0.0000     4          
   129  Na    c      4.3569 *     6.5598 *     8.8118 *  0.0000     4          
   130  Na    c     -4.4550 *    10.9657 *     0.0000    0.0000     2          
   131  Cl    c     -0.0490 *     4.3569 *    11.0148 *  0.0000     4          
   132  Cl    c      8.7628 *    -4.4550 *     6.6089 *  0.0000     4          
   133  Na    c     -4.4550 *     6.5598 *     8.8118 *  0.0000     4          
   134  Na    c      8.7628 *    -6.6579 *     4.4059 *  0.0000     4          
   135  Na    c      4.3569 *    -6.6579 *     8.8118 *  0.0000     4          
   136  Na    c     -8.8609 *     6.5598 *     4.4059 *  0.0000     4          
   137  Cl    c     -0.0490 *    -4.4550 *    11.0148 *  0.0000     4          
   138  Cl    c      4.3569 *    -8.8609 *     6.6089 *  0.0000     4          
   139  Na    c      4.3569 *   -11.0638 *     0.0000    0.0000     2          
   140  Na    c     -0.0490 *   -11.0638 *     4.4059 *  0.0000     4          
   141  Na    c     -4.4550 *    -6.6579 *     8.8118 *  0.0000     4          
   142  Cl    c     -4.4550 *    -8.8609 *     6.6089 *  0.0000     4          
   143  Na    c     -4.4550 *   -11.0638 *     0.0000    0.0000     2          
   144  Na    c     -8.8609 *    -6.6579 *     4.4059 *  0.0000     4          
   145  Cl    s     -0.0490 *    -0.0490      -2.2030 *  0.0000     2          
   146  O     s      1.8016       1.8016       0.0000    0.0000     1    Defect
   147  O     s      2.1539 *    -2.2520 *     0.0000    0.0000     2          
   148  Cl    s     -0.0490 *     4.3569 *    -2.2030 *  0.0000     4          
   149  Cl    s     -0.0490 *    -4.4550 *    -2.2030 *  0.0000     4          
   150  O     s      2.1539 *     2.1539       4.4059 *  0.0000     2          
   151  O     s      2.1539 *    -2.2520 *     4.4059 *  0.0000     4          
   152  O     s     -2.2520 *    -2.2520       4.4059 *  0.0000     2          
   153  Cl    s      4.3569 *     4.3569      -2.2030 *  0.0000     2          
   154  Cl    s     -0.0490 *    -0.0490       6.6089 *  0.0000     2          
   155  Cl    s      4.3569 *    -4.4550 *    -2.2030 *  0.0000     4          
   156  Cl    s     -4.4550 *    -4.4550      -2.2030 *  0.0000     2          
   157  O     s      2.1539 *     6.5598 *     0.0000    0.0000     2          
   158  O     s      6.5598 *    -2.2520 *     0.0000    0.0000     2          
   159  O     s      2.1539 *    -6.6579 *     0.0000    0.0000     2          
   160  O     s     -2.2520 *    -6.6579 *     0.0000    0.0000     2          
   161  Cl    s     -0.0490 *     4.3569 *     6.6089 *  0.0000     4          
   162  Cl    s     -0.0490 *    -4.4550 *     6.6089 *  0.0000     4          
   163  O     s      2.1539 *     6.5598 *     4.4059 *  0.0000     4          
   164  O     s      6.5598 *    -2.2520 *     4.4059 *  0.0000     4          
   165  O     s      2.1539 *    -6.6579 *     4.4059 *  0.0000     4          
   166  O     s     -2.2520 *    -6.6579 *     4.4059 *  0.0000     4          
   167  Cl    s     -0.0490 *     8.7628 *    -2.2030 *  0.0000     4          
   168  Cl    s      4.3569 *     4.3569       6.6089 *  0.0000     2          
   169  Cl    s      4.3569 *    -4.4550 *     6.6089 *  0.0000     4          
   170  Cl    s     -0.0490 *    -8.8609 *    -2.2030 *  0.0000     4          
   171  Cl    s     -4.4550 *    -4.4550       6.6089 *  0.0000     2          
   172  O     s      6.5598 *     6.5598       0.0000    0.0000     1          
   173  O     s      2.1539 *     2.1539       8.8118 *  0.0000     2          
   174  O     s      2.1539 *    -2.2520 *     8.8118 *  0.0000     4          
   175  O     s      6.5598 *    -6.6579 *     0.0000    0.0000     2          
   176  O     s     -2.2520 *    -2.2520       8.8118 *  0.0000     2          
   177  O     s     -6.6579 *    -6.6579       0.0000    0.0000     1          
   178  Cl    s      4.3569 *     8.7628 *    -2.2030 *  0.0000     4          
   179  Cl    s      8.7628 *    -4.4550 *    -2.2030 *  0.0000     4          
   180  Cl    s      4.3569 *    -8.8609 *    -2.2030 *  0.0000     4          
   181  Cl    s     -4.4550 *    -8.8609 *    -2.2030 *  0.0000     4          
   182  O     s      6.5598 *     6.5598       4.4059 *  0.0000     2          
   183  O     s      6.5598 *    -6.6579 *     4.4059 *  0.0000     4          
   184  O     s     -6.6579 *    -6.6579       4.4059 *  0.0000     2          
   185  Cl    s     -0.0490 *     8.7628 *     6.6089 *  0.0000     4          
   186  Cl    s     -0.0490 *    -0.0490      11.0148 *  0.0000     2          
   187  Cl    s     -0.0490 *    -8.8609 *     6.6089 *  0.0000     4          
   188  O     s      2.1539 *    10.9657 *     0.0000    0.0000     2          
   189  O     s      2.1539 *     6.5598 *     8.8118 *  0.0000     4          
   190  O     s     10.9657 *    -2.2520 *     0.0000    0.0000     2          
   191  O     s      6.5598 *    -2.2520 *     8.8118 *  0.0000     4          
   192  O     s      2.1539 *    -6.6579 *     8.8118 *  0.0000     4          
   193  O     s      2.1539 *   -11.0638 *     0.0000    0.0000     2          
   194  O     s     -2.2520 *    -6.6579 *     8.8118 *  0.0000     4          
   195  O     s     -2.2520 *   -11.0638 *     0.0000    0.0000     2          
   196  Cl    s      4.3569 *     8.7628 *     6.6089 *  0.0000     4          
   197  Cl    s     -0.0490 *     4.3569 *    11.0148 *  0.0000     4          
   198  Cl    s      8.7628 *    -4.4550 *     6.6089 *  0.0000     4          
   199  Cl    s     -0.0490 *    -4.4550 *    11.0148 *  0.0000     4          
   200  Cl    s      4.3569 *    -8.8609 *     6.6089 *  0.0000     4          
   201  Cl    s     -4.4550 *    -8.8609 *     6.6089 *  0.0000     4          
--------------------------------------------------------------------------------


  Constraints on symmetry reduced coordinates :

--------------------------------------------------------------------------------
  Constraint no.      Unconstrained     Constrained    Coefficient    
                         Variable         Variable
--------------------------------------------------------------------------------
           1                 2 x             2 y         1.00000
           2                 6 x             6 y         1.00000
           3                 8 x             8 y         1.00000
           4                17 x            17 y         1.00000
           5                19 x            19 y         1.00000
           6                20 x            20 y         1.00000
           7                24 x            24 y         1.00000
           8                29 x            29 y         1.00000
           9                35 x            35 y         1.00000
          10                39 x            39 y         1.00000
          11                56 x            56 y         1.00000
          12                65 x            65 y         1.00000
          13                68 x            68 y         1.00000
          14                69 x            69 y         1.00000
          15                72 x            72 y         1.00000
          16                73 x            73 y         1.00000
          17                74 x            74 y         1.00000
          18                80 x            80 y         1.00000
          19                93 x            93 y         1.00000
          20                95 x            95 y         1.00000
          21               101 x           101 y         1.00000
          22               115 x           115 y         1.00000
          23               118 x           118 y         1.00000
          24               121 x           121 y         1.00000
          25               124 x           124 y         1.00000
          26               145 x           145 y         1.00000
          27               150 x           150 y         1.00000
          28               152 x           152 y         1.00000
          29               153 x           153 y         1.00000
          30               154 x           154 y         1.00000
          31               156 x           156 y         1.00000
          32               168 x           168 y         1.00000
          33               171 x           171 y         1.00000
          34               172 x           172 y         1.00000
          35               173 x           173 y         1.00000
          36               176 x           176 y         1.00000
          37               177 x           177 y         1.00000
          38               182 x           182 y         1.00000
          39               184 x           184 y         1.00000
          40               186 x           186 y         1.00000
--------------------------------------------------------------------------------


  Components of defect energy : 

--------------------------------------------------------------------------------
  Region 1 - region 1                   =     90.32429741 eV
  Region 1 - region 2a (unrelaxed)      =    -54.40033004 eV
  Region 1 - 2a (relaxed - correction)  =     -1.03927096 eV
  Region 1 (Total)                      =     34.88469642 eV
  Region 2a                             =      0.52008207 eV
  Region 2b                             =     -1.68033063 eV
--------------------------------------------------------------------------------
  Total defect energy                   =     33.72444786 eV
--------------------------------------------------------------------------------

  Largest displacement in region 2 =   0.0500 Angstroms


  Number of variables =      507

  Maximum number of calculations  =        1000
  Maximum Hessian update interval =          10
  Maximum step size               =   1.0000000
  Maximum parameter tolerance     =   0.0000100
  Maximum function  tolerance     =   0.0000100
  Maximum gradient  tolerance     =   0.0010000

  Symmetry adapted optimisation

  Symmetry to be used for second derivatives

  Newton-Raphson optimiser to be used

  BFGS hessian update to be used

  Lower half triangular hessian to be used

  Start of defect optimisation :

  Cycle:      0 Defect Energy:  33.724448  Gnorm:     0.086095  CPU:    2.506
  ** Hessian calculated **
  Cycle:      1 Defect Energy:  28.543444  Gnorm:     0.067170  CPU:    8.937
  Cycle:      2 Defect Energy:  24.719997  Gnorm:     0.032052  CPU:   12.283
  ** Hessian calculated **
  Cycle:      3 Defect Energy:  23.233259  Gnorm:     0.016538  CPU:   16.377
  Cycle:      4 Defect Energy:  22.975898  Gnorm:     0.008227  CPU:   18.697
  Cycle:      5 Defect Energy:  22.920367  Gnorm:     0.005796  CPU:   20.869
  Cycle:      6 Defect Energy:  22.900690  Gnorm:     0.004721  CPU:   21.475
  Cycle:      7 Defect Energy:  22.878012  Gnorm:     0.003940  CPU:   22.079
  Cycle:      8 Defect Energy:  22.853551  Gnorm:     0.003604  CPU:   22.772
  Cycle:      9 Defect Energy:  22.830335  Gnorm:     0.003375  CPU:   23.390
  Cycle:     10 Defect Energy:  22.806618  Gnorm:     0.003462  CPU:   23.990
  Cycle:     11 Defect Energy:  22.781624  Gnorm:     0.003652  CPU:   24.578
  Cycle:     12 Defect Energy:  22.754945  Gnorm:     0.003822  CPU:   25.099
  ** Hessian calculated **
  Cycle:     13 Defect Energy:  22.672900  Gnorm:     0.003447  CPU:   27.112
  Cycle:     14 Defect Energy:  22.564302  Gnorm:     0.002867  CPU:   27.796
  Cycle:     15 Defect Energy:  22.448744  Gnorm:     0.002037  CPU:   28.376
  Cycle:     16 Defect Energy:  22.395126  Gnorm:     0.001461  CPU:   28.743
  Cycle:     17 Defect Energy:  22.368839  Gnorm:     0.001007  CPU:   31.352
  Cycle:     18 Defect Energy:  22.354189  Gnorm:     0.000661  CPU:   34.169
  Cycle:     19 Defect Energy:  22.348935  Gnorm:     0.000388  CPU:   34.886
  Cycle:     20 Defect Energy:  22.347446  Gnorm:     0.000269  CPU:   35.763
  Cycle:     21 Defect Energy:  22.346754  Gnorm:     0.000188  CPU:   36.576
  Cycle:     22 Defect Energy:  22.346452  Gnorm:     0.000130  CPU:   37.219
  ** Hessian calculated **
  Cycle:     23 Defect Energy:  22.346305  Gnorm:     0.000091  CPU:   40.333
  Cycle:     24 Defect Energy:  22.346243  Gnorm:     0.000064  CPU:   41.054
  Cycle:     25 Defect Energy:  22.346220  Gnorm:     0.000045  CPU:   41.760


  **** Optimisation achieved ****


  Final defect energy  =       22.34621301
  Final defect Gnorm   =        0.00003130

  Components of defect energy : 

--------------------------------------------------------------------------------
  Region 1 - region 1                   =     71.49116885 eV
  Region 1 - region 2a (unrelaxed)      =    -47.12311841 eV
  Region 1 - 2a (relaxed - correction)  =     -0.74492611 eV
  Region 1 (Total)                      =     23.62312433 eV
  Region 2a                             =      0.37180131 eV
  Region 2b                             =     -1.64871263 eV
--------------------------------------------------------------------------------
  Total defect energy                   =     22.34621301 eV
--------------------------------------------------------------------------------

  Largest displacement in region 2 =   0.0500 Angstroms

  Final coordinates of region 1 :

--------------------------------------------------------------------------------
   No.  Atomic        x           y           z          Radius      Charge
        Label       (Angs)      (Angs)      (Angs)       (Angs)       (e) 
--------------------------------------------------------------------------------
     1  Na    c     2.007643    4.306099    0.000000    0.000000    1.000000
     2  Na    c     4.306099    2.007643    0.000000    0.000000    1.000000
     3  Cl    c     1.772098    1.772098   -1.875661    0.000000    1.485000
     4  Cl    c     1.772098    1.772098    1.875661    0.000000    1.485000
     5  Na    c     2.445711   -0.175560    0.000000    0.000000    1.000000
     6  Na    c    -0.175560    2.445711    0.000000    0.000000    1.000000
     7  O     c     4.053600    4.053600    0.000000    0.000000    0.183000
     8  O     c     4.527998   -0.135167    0.000000    0.000000    0.183000
     9  O     c    -0.135167    4.527998    0.000000    0.000000    0.183000
    10  Na    c     4.278019    4.278019   -2.180922    0.000000    1.000000
    11  Na    c     4.278019    4.278019    2.180922    0.000000    1.000000
    12  Na    c     4.550091   -0.088173   -2.228932    0.000000    1.000000
    13  Na    c     4.550091   -0.088173    2.228932    0.000000    1.000000
    14  Na    c    -0.088173    4.550091   -2.228932    0.000000    1.000000
    15  Na    c    -0.088173    4.550091    2.228932    0.000000    1.000000
    16  Na    c    -0.073570   -0.073570   -2.508113    0.000000    1.000000
    17  Na    c    -0.073570   -0.073570    2.508113    0.000000    1.000000
    18  Na    c     6.503129    4.232455    0.000000    0.000000    1.000000
    19  Na    c     4.232455    6.503129    0.000000    0.000000    1.000000
    20  Cl    c     2.156986    6.531507   -2.199235    0.000000    1.485000
    21  Cl    c     2.156986    6.531507    2.199235    0.000000    1.485000
    22  Cl    c     6.531507    2.156986   -2.199235    0.000000    1.485000
    23  Cl    c     6.531507    2.156986    2.199235    0.000000    1.485000
    24  Na    c     2.170383    4.472444    4.513670    0.000000    1.000000
    25  Na    c     2.170383    4.472444   -4.513670    0.000000    1.000000
    26  Na    c     4.472444    2.170383    4.513670    0.000000    1.000000
    27  Na    c     4.472444    2.170383   -4.513670    0.000000    1.000000
    28  Na    c     6.687364    0.028360    0.000000    0.000000    1.000000
    29  Na    c     0.028360    6.687364    0.000000    0.000000    1.000000
    30  Na    c     2.203569   -0.017539    4.490616    0.000000    1.000000
    31  Na    c     2.203569   -0.017539   -4.490616    0.000000    1.000000
    32  Na    c    -0.017539    2.203569    4.490616    0.000000    1.000000
    33  Na    c    -0.017539    2.203569   -4.490616    0.000000    1.000000
    34  Na    c    -2.300824    4.620374    0.000000    0.000000    1.000000
    35  Na    c     4.620374   -2.300824    0.000000    0.000000    1.000000
    36  Cl    c     1.856731   -2.009402   -1.944880    0.000000    1.485000
    37  Cl    c     1.856731   -2.009402    1.944880    0.000000    1.485000
    38  Cl    c    -2.009402    1.856731   -1.944880    0.000000    1.485000
    39  Cl    c    -2.009402    1.856731    1.944880    0.000000    1.485000
    40  Na    c    -2.524850   -0.042288    0.000000    0.000000    1.000000
    41  Na    c    -0.042288   -2.524850    0.000000    0.000000    1.000000
    42  O     c     4.348297    4.348297    4.379559    0.000000    0.183000
    43  O     c     4.348297    4.348297   -4.379559    0.000000    0.183000
    44  O     c     4.394423   -0.030436    4.408749    0.000000    0.183000
    45  O     c     4.394423   -0.030436   -4.408749    0.000000    0.183000
    46  O     c    -0.030436    4.394423    4.408749    0.000000    0.183000
    47  O     c    -0.030436    4.394423   -4.408749    0.000000    0.183000
    48  O     c    -0.021656   -0.021656    4.573338    0.000000    0.183000
    49  O     c    -0.021656   -0.021656   -4.573338    0.000000    0.183000
    50  Cl    c     6.444588    6.444588   -2.097624    0.000000    1.485000
    51  Cl    c     6.444588    6.444588    2.097624    0.000000    1.485000
    52  Na    c     2.183784    8.913157    0.000000    0.000000    1.000000
    53  Na    c     8.913157    2.183784    0.000000    0.000000    1.000000
    54  Na    c     6.579537    4.411632    4.346297    0.000000    1.000000
    55  Na    c     6.579537    4.411632   -4.346297    0.000000    1.000000
    56  Na    c     4.411632    6.579537    4.346297    0.000000    1.000000
    57  Na    c     4.411632    6.579537   -4.346297    0.000000    1.000000
    58  Na    c     6.628340   -0.016974    4.456432    0.000000    1.000000
    59  Na    c     6.628340   -0.016974   -4.456432    0.000000    1.000000
    60  Na    c    -0.016974    6.628340    4.456432    0.000000    1.000000
    61  Na    c    -0.016974    6.628340   -4.456432    0.000000    1.000000
    62  Cl    c     2.195920    2.195920    6.575510    0.000000    1.485000
    63  Cl    c     2.195920    2.195920   -6.575510    0.000000    1.485000
    64  Cl    c     6.585032   -2.254009   -2.229894    0.000000    1.485000
    65  Cl    c     6.585032   -2.254009    2.229894    0.000000    1.485000
    66  Cl    c    -2.254009    6.585032   -2.229894    0.000000    1.485000
    67  Cl    c    -2.254009    6.585032    2.229894    0.000000    1.485000
    68  Na    c    -2.227754    4.478874    4.497731    0.000000    1.000000
    69  Na    c    -2.227754    4.478874   -4.497731    0.000000    1.000000
    70  Na    c     4.478874   -2.227754    4.497731    0.000000    1.000000
    71  Na    c     4.478874   -2.227754   -4.497731    0.000000    1.000000
    72  Na    c     2.218994   -4.537759    0.000000    0.000000    1.000000
    73  Na    c    -4.537759    2.218994    0.000000    0.000000    1.000000
    74  Na    c    -2.236559   -0.007349    4.586753    0.000000    1.000000
    75  Na    c    -2.236559   -0.007349   -4.586753    0.000000    1.000000
    76  Na    c    -0.007349   -2.236559    4.586753    0.000000    1.000000
    77  Na    c    -0.007349   -2.236559   -4.586753    0.000000    1.000000
    78  Cl    c    -1.959206   -1.959206   -1.900991    0.000000    1.485000
    79  Cl    c    -1.959206   -1.959206    1.900991    0.000000    1.485000
    80  O     c     4.362480    8.754908    0.000000    0.000000    0.183000
    81  O     c     8.754908    4.362480    0.000000    0.000000    0.183000
    82  O     c     8.845347   -0.020173    0.000000    0.000000    0.183000
    83  O     c    -0.020173    8.845347    0.000000    0.000000    0.183000
    84  O     c     4.416496   -4.455647    0.000000    0.000000    0.183000
    85  O     c    -4.455647    4.416496    0.000000    0.000000    0.183000
    86  O     c    -0.012842   -4.580491    0.000000    0.000000    0.183000
    87  O     c    -4.580491   -0.012842    0.000000    0.000000    0.183000
    88  Na    c     4.394903    8.784690   -2.191528    0.000000    1.000000
    89  Na    c     4.394903    8.784690    2.191528    0.000000    1.000000
    90  Na    c     8.784690    4.394903   -2.191528    0.000000    1.000000
    91  Na    c     8.784690    4.394903    2.191528    0.000000    1.000000
    92  Na    c     4.426488    4.426488    6.605746    0.000000    1.000000
    93  Na    c     4.426488    4.426488   -6.605746    0.000000    1.000000
    94  Na    c     8.865103   -0.012798   -2.209632    0.000000    1.000000
    95  Na    c     8.865103   -0.012798    2.209632    0.000000    1.000000
    96  Na    c    -0.012798    8.865103   -2.209632    0.000000    1.000000
    97  Na    c    -0.012798    8.865103    2.209632    0.000000    1.000000
    98  Na    c     4.402750   -0.024248    6.636341    0.000000    1.000000
    99  Na    c     4.402750   -0.024248   -6.636341    0.000000    1.000000
   100  Na    c    -0.024248    4.402750    6.636341    0.000000    1.000000
   101  Na    c    -0.024248    4.402750   -6.636341    0.000000    1.000000
   102  Na    c     4.473446   -4.502765   -2.209234    0.000000    1.000000
   103  Na    c     4.473446   -4.502765    2.209234    0.000000    1.000000
   104  Na    c    -4.502765    4.473446   -2.209234    0.000000    1.000000
   105  Na    c    -4.502765    4.473446    2.209234    0.000000    1.000000
   106  Na    c     0.043270    0.043270    6.710733    0.000000    1.000000
   107  Na    c     0.043270    0.043270   -6.710733    0.000000    1.000000
   108  Na    c     0.009333   -4.524423   -2.226515    0.000000    1.000000
   109  Na    c     0.009333   -4.524423    2.226515    0.000000    1.000000
   110  Na    c    -4.524423    0.009333   -2.226515    0.000000    1.000000
   111  Na    c    -4.524423    0.009333    2.226515    0.000000    1.000000
   112  Na    c     6.569585    8.724343    0.000000    0.000000    1.000000
   113  Na    c     8.724343    6.569585    0.000000    0.000000    1.000000
   114  Na    c     2.200979    8.817311    4.418597    0.000000    1.000000
   115  Na    c     2.200979    8.817311   -4.418597    0.000000    1.000000
   116  Na    c     8.817311    2.200979    4.418597    0.000000    1.000000
   117  Na    c     8.817311    2.200979   -4.418597    0.000000    1.000000
   118  Cl    c     2.176251    6.567945    6.576795    0.000000    1.485000
   119  Cl    c     2.176251    6.567945   -6.576795    0.000000    1.485000
   120  Cl    c     6.567945    2.176251    6.576795    0.000000    1.485000
   121  Cl    c     6.567945    2.176251   -6.576795    0.000000    1.485000
   122  Na    c    -2.225668    8.836312    0.000000    0.000000    1.000000
   123  Na    c     8.836312   -2.225668    0.000000    0.000000    1.000000
   124  Na    c     6.645255   -4.525553    0.000000    0.000000    1.000000
   125  Na    c    -4.525553    6.645255    0.000000    0.000000    1.000000
   126  Cl    c     2.210576   -2.229433    6.579074    0.000000    1.485000
   127  Cl    c     2.210576   -2.229433   -6.579074    0.000000    1.485000
   128  Cl    c    -2.229433    2.210576    6.579074    0.000000    1.485000
   129  Cl    c    -2.229433    2.210576   -6.579074    0.000000    1.485000
   130  Na    c     2.202930   -4.465749    4.476866    0.000000    1.000000
   131  Na    c     2.202930   -4.465749   -4.476866    0.000000    1.000000
   132  Na    c    -4.465749    2.202930    4.476866    0.000000    1.000000
   133  Na    c    -4.465749    2.202930   -4.476866    0.000000    1.000000
   134  Na    c    -2.233628   -4.558012    0.000000    0.000000    1.000000
   135  Na    c    -4.558012   -2.233628    0.000000    0.000000    1.000000
   136  O     c     4.399405    8.785314    4.388740    0.000000    0.183000
   137  O     c     4.399405    8.785314   -4.388740    0.000000    0.183000
   138  O     c     8.785314    4.399405    4.388740    0.000000    0.183000
   139  O     c     8.785314    4.399405   -4.388740    0.000000    0.183000
   140  O     c     8.813312   -0.006007    4.405296    0.000000    0.183000
   141  O     c     8.813312   -0.006007   -4.405296    0.000000    0.183000
   142  O     c    -0.006007    8.813312    4.405296    0.000000    0.183000
   143  O     c    -0.006007    8.813312   -4.405296    0.000000    0.183000
   144  O     c     4.390521   -4.407194    4.394586    0.000000    0.183000
   145  O     c     4.390521   -4.407194   -4.394586    0.000000    0.183000
   146  O     c    -4.407194    4.390521    4.394586    0.000000    0.183000
   147  O     c    -4.407194    4.390521   -4.394586    0.000000    0.183000
   148  O     c    -0.006422   -4.418871    4.416679    0.000000    0.183000
   149  O     c    -0.006422   -4.418871   -4.416679    0.000000    0.183000
   150  O     c    -4.418871   -0.006422    4.416679    0.000000    0.183000
   151  O     c    -4.418871   -0.006422   -4.416679    0.000000    0.183000
   152  Na    c     6.603704    8.840490    4.422394    0.000000    1.000000
   153  Na    c     6.603704    8.840490   -4.422394    0.000000    1.000000
   154  Na    c     8.840490    6.603704    4.422394    0.000000    1.000000
   155  Na    c     8.840490    6.603704   -4.422394    0.000000    1.000000
   156  Na    c    10.997508    4.455096    0.000000    0.000000    1.000000
   157  Na    c     4.455096   10.997508    0.000000    0.000000    1.000000
   158  Cl    c     2.195209   10.988558   -2.199898    0.000000    1.485000
   159  Cl    c     2.195209   10.988558    2.199898    0.000000    1.485000
   160  Cl    c    10.988558    2.195209   -2.199898    0.000000    1.485000
   161  Cl    c    10.988558    2.195209    2.199898    0.000000    1.485000
   162  Cl    c     6.572146    6.572146    6.562818    0.000000    1.485000
   163  Cl    c     6.572146    6.572146   -6.562818    0.000000    1.485000
   164  Na    c    11.042817   -0.048817    0.000000    0.000000    1.000000
   165  Na    c    -0.048817   11.042817    0.000000    0.000000    1.000000
   166  Na    c     2.205403    4.415787    8.826628    0.000000    1.000000
   167  Na    c     2.205403    4.415787   -8.826628    0.000000    1.000000
   168  Na    c     4.415787    2.205403    8.826628    0.000000    1.000000
   169  Na    c     4.415787    2.205403   -8.826628    0.000000    1.000000
   170  Na    c    -2.213455    8.848509    4.412990    0.000000    1.000000
   171  Na    c    -2.213455    8.848509   -4.412990    0.000000    1.000000
   172  Na    c     8.848509   -2.213455    4.412990    0.000000    1.000000
   173  Na    c     8.848509   -2.213455   -4.412990    0.000000    1.000000
   174  Cl    c     6.575301   -2.201877    6.584839    0.000000    1.485000
   175  Cl    c     6.575301   -2.201877   -6.584839    0.000000    1.485000
   176  Cl    c    -2.201877    6.575301    6.584839    0.000000    1.485000
   177  Cl    c    -2.201877    6.575301   -6.584839    0.000000    1.485000
   178  Na    c     2.211234    0.001360    8.909959    0.000000    1.000000
   179  Na    c     2.211234    0.001360   -8.909959    0.000000    1.000000
   180  Na    c     0.001360    2.211234    8.909959    0.000000    1.000000
   181  Na    c     0.001360    2.211234   -8.909959    0.000000    1.000000
   182  Na    c     6.623579   -4.430262    4.414321    0.000000    1.000000
   183  Na    c     6.623579   -4.430262   -4.414321    0.000000    1.000000
   184  Na    c    -4.430262    6.623579    4.414321    0.000000    1.000000
   185  Na    c    -4.430262    6.623579   -4.414321    0.000000    1.000000
   186  Na    c    -6.655674    4.428732    0.000000    0.000000    1.000000
   187  Na    c     4.428732   -6.655674    0.000000    0.000000    1.000000
   188  Cl    c     2.206433   -6.595866   -2.218666    0.000000    1.485000
   189  Cl    c     2.206433   -6.595866    2.218666    0.000000    1.485000
   190  Cl    c    -6.595866    2.206433   -2.218666    0.000000    1.485000
   191  Cl    c    -6.595866    2.206433    2.218666    0.000000    1.485000
   192  Cl    c    -2.232063   -2.232063    6.583150    0.000000    1.485000
   193  Cl    c    -2.232063   -2.232063   -6.583150    0.000000    1.485000
   194  Na    c    -6.706544    0.000634    0.000000    0.000000    1.000000
   195  Na    c     0.000634   -6.706544    0.000000    0.000000    1.000000
   196  Na    c    -2.210765   -4.487176    4.470528    0.000000    1.000000
   197  Na    c    -2.210765   -4.487176   -4.470528    0.000000    1.000000
   198  Na    c    -4.487176   -2.210765    4.470528    0.000000    1.000000
   199  Na    c    -4.487176   -2.210765   -4.470528    0.000000    1.000000
   200  O     c     8.780074    8.780074    0.000000    0.000000    0.183000
   201  O     c     4.406666    4.406666    8.805658    0.000000    0.183000
   202  O     c     4.406666    4.406666   -8.805658    0.000000    0.183000
   203  O     c     4.405423   -0.005271    8.820327    0.000000    0.183000
   204  O     c     4.405423   -0.005271   -8.820327    0.000000    0.183000
   205  O     c    -0.005271    4.405423    8.820327    0.000000    0.183000
   206  O     c    -0.005271    4.405423   -8.820327    0.000000    0.183000
   207  O     c     8.823497   -4.425460    0.000000    0.000000    0.183000
   208  O     c    -4.425460    8.823497    0.000000    0.000000    0.183000
   209  O     c    -0.000305   -0.000305    8.859924    0.000000    0.183000
   210  O     c    -0.000305   -0.000305   -8.859924    0.000000    0.183000
   211  O     c    -4.424981   -4.424981    0.000000    0.000000    0.183000
   212  Na    c     8.834134    8.834134   -2.196304    0.000000    1.000000
   213  Na    c     8.834134    8.834134    2.196304    0.000000    1.000000
   214  Na    c     4.420961    8.794681    6.599398    0.000000    1.000000
   215  Na    c     4.420961    8.794681   -6.599398    0.000000    1.000000
   216  Na    c     8.794681    4.420961    6.599398    0.000000    1.000000
   217  Na    c     8.794681    4.420961   -6.599398    0.000000    1.000000
   218  Na    c     8.848877   -0.012358    6.611983    0.000000    1.000000
   219  Na    c     8.848877   -0.012358   -6.611983    0.000000    1.000000
   220  Na    c    -0.012358    8.848877    6.611983    0.000000    1.000000
   221  Na    c    -0.012358    8.848877   -6.611983    0.000000    1.000000
   222  Na    c     8.846157   -4.415670   -2.209919    0.000000    1.000000
   223  Na    c     8.846157   -4.415670    2.209919    0.000000    1.000000
   224  Na    c    -4.415670    8.846157   -2.209919    0.000000    1.000000
   225  Na    c    -4.415670    8.846157    2.209919    0.000000    1.000000
   226  Na    c     4.433383   -4.425358    6.618494    0.000000    1.000000
   227  Na    c     4.433383   -4.425358   -6.618494    0.000000    1.000000
   228  Na    c    -4.425358    4.433383    6.618494    0.000000    1.000000
   229  Na    c    -4.425358    4.433383   -6.618494    0.000000    1.000000
   230  Na    c    -0.009210   -4.453073    6.633689    0.000000    1.000000
   231  Na    c    -0.009210   -4.453073   -6.633689    0.000000    1.000000
   232  Na    c    -4.453073   -0.009210    6.633689    0.000000    1.000000
   233  Na    c    -4.453073   -0.009210   -6.633689    0.000000    1.000000
   234  Na    c    -4.474036   -4.474036   -2.207661    0.000000    1.000000
   235  Na    c    -4.474036   -4.474036    2.207661    0.000000    1.000000
   236  Cl    c     6.590569   10.972592   -2.193592    0.000000    1.485000
   237  Cl    c     6.590569   10.972592    2.193592    0.000000    1.485000
   238  Cl    c    10.972592    6.590569   -2.193592    0.000000    1.485000
   239  Cl    c    10.972592    6.590569    2.193592    0.000000    1.485000
   240  Na    c    11.009338    4.395835    4.391618    0.000000    1.000000
   241  Na    c    11.009338    4.395835   -4.391618    0.000000    1.000000
   242  Na    c     4.395835   11.009338    4.391618    0.000000    1.000000
   243  Na    c     4.395835   11.009338   -4.391618    0.000000    1.000000
   244  Na    c     6.610074    4.412554    8.823900    0.000000    1.000000
   245  Na    c     6.610074    4.412554   -8.823900    0.000000    1.000000
   246  Na    c     4.412554    6.610074    8.823900    0.000000    1.000000
   247  Na    c     4.412554    6.610074   -8.823900    0.000000    1.000000
   248  Na    c    11.024885    0.016324    4.410204    0.000000    1.000000
   249  Na    c    11.024885    0.016324   -4.410204    0.000000    1.000000
   250  Na    c     0.016324   11.024885    4.410204    0.000000    1.000000
   251  Na    c     0.016324   11.024885   -4.410204    0.000000    1.000000
   252  Cl    c    10.991742   -2.210517   -2.201366    0.000000    1.485000
   253  Cl    c    10.991742   -2.210517    2.201366    0.000000    1.485000
   254  Cl    c    -2.210517   10.991742   -2.201366    0.000000    1.485000
   255  Cl    c    -2.210517   10.991742    2.201366    0.000000    1.485000
   256  Na    c     6.614845    0.008199    8.815204    0.000000    1.000000
   257  Na    c     6.614845    0.008199   -8.815204    0.000000    1.000000
   258  Na    c     0.008199    6.614845    8.815204    0.000000    1.000000
   259  Na    c     0.008199    6.614845   -8.815204    0.000000    1.000000
   260  Na    c    -2.208481    4.419461    8.835509    0.000000    1.000000
   261  Na    c    -2.208481    4.419461   -8.835509    0.000000    1.000000
   262  Na    c     4.419461   -2.208481    8.835509    0.000000    1.000000
   263  Na    c     4.419461   -2.208481   -8.835509    0.000000    1.000000
   264  Cl    c     6.586027   -6.603443   -2.196002    0.000000    1.485000
   265  Cl    c     6.586027   -6.603443    2.196002    0.000000    1.485000
   266  Cl    c    -6.603443    6.586027   -2.196002    0.000000    1.485000
   267  Cl    c    -6.603443    6.586027    2.196002    0.000000    1.485000
   268  Na    c    -6.621940    4.412289    4.420374    0.000000    1.000000
   269  Na    c    -6.621940    4.412289   -4.420374    0.000000    1.000000
   270  Na    c     4.412289   -6.621940    4.420374    0.000000    1.000000
   271  Na    c     4.412289   -6.621940   -4.420374    0.000000    1.000000
   272  Na    c    -2.206745    0.005198    8.849268    0.000000    1.000000
   273  Na    c    -2.206745    0.005198   -8.849268    0.000000    1.000000
   274  Na    c     0.005198   -2.206745    8.849268    0.000000    1.000000
   275  Na    c     0.005198   -2.206745   -8.849268    0.000000    1.000000
   276  Na    c    -6.631779    0.015999    4.429134    0.000000    1.000000
   277  Na    c    -6.631779    0.015999   -4.429134    0.000000    1.000000
   278  Na    c     0.015999   -6.631779    4.429134    0.000000    1.000000
   279  Na    c     0.015999   -6.631779   -4.429134    0.000000    1.000000
   280  Cl    c    -2.232734   -6.585975   -2.218565    0.000000    1.485000
   281  Cl    c    -2.232734   -6.585975    2.218565    0.000000    1.485000
   282  Cl    c    -6.585975   -2.232734   -2.218565    0.000000    1.485000
   283  Cl    c    -6.585975   -2.232734    2.218565    0.000000    1.485000
   284  O     c     8.803138    8.803138    4.393502    0.000000    0.183000
   285  O     c     8.803138    8.803138   -4.393502    0.000000    0.183000
   286  O     c     8.819482   -4.416630    4.410042    0.000000    0.183000
   287  O     c     8.819482   -4.416630   -4.410042    0.000000    0.183000
   288  O     c    -4.416630    8.819482    4.410042    0.000000    0.183000
   289  O     c    -4.416630    8.819482   -4.410042    0.000000    0.183000
   290  O     c    -4.402631   -4.402631    4.394615    0.000000    0.183000
   291  O     c    -4.402631   -4.402631   -4.394615    0.000000    0.183000
   292  Na    c    11.007641    8.785114    0.000000    0.000000    1.000000
   293  Na    c     8.785114   11.007641    0.000000    0.000000    1.000000
   294  Na    c     2.206194   13.210475    0.000000    0.000000    1.000000
   295  Na    c    13.210475    2.206194    0.000000    0.000000    1.000000
   296  Cl    c     2.196092   10.987401    6.593180    0.000000    1.485000
   297  Cl    c     2.196092   10.987401   -6.593180    0.000000    1.485000
   298  Cl    c    10.987401    2.196092    6.593180    0.000000    1.485000
   299  Cl    c    10.987401    2.196092   -6.593180    0.000000    1.485000
   300  Na    c     2.203989    8.829228    8.819304    0.000000    1.000000
   301  Na    c     2.203989    8.829228   -8.819304    0.000000    1.000000
   302  Na    c     8.829228    2.203989    8.819304    0.000000    1.000000
   303  Na    c     8.829228    2.203989   -8.819304    0.000000    1.000000
   304  Na    c    11.031747   -4.403124    0.000000    0.000000    1.000000
   305  Na    c    -4.403124   11.031747    0.000000    0.000000    1.000000
   306  Cl    c     2.201705    2.201705   10.989214    0.000000    1.485000
   307  Cl    c     2.201705    2.201705  -10.989214    0.000000    1.485000
   308  Na    c    -6.624997    8.875363    0.000000    0.000000    1.000000
   309  Na    c     8.875363   -6.624997    0.000000    0.000000    1.000000
   310  Na    c     2.206536   -4.404677    8.832676    0.000000    1.000000
   311  Na    c     2.206536   -4.404677   -8.832676    0.000000    1.000000
   312  Na    c    -4.404677    2.206536    8.832676    0.000000    1.000000
   313  Na    c    -4.404677    2.206536   -8.832676    0.000000    1.000000
   314  Cl    c     2.186462   -6.592676    6.588509    0.000000    1.485000
   315  Cl    c     2.186462   -6.592676   -6.588509    0.000000    1.485000
   316  Cl    c    -6.592676    2.186462    6.588509    0.000000    1.485000
   317  Cl    c    -6.592676    2.186462   -6.588509    0.000000    1.485000
   318  Na    c     2.209140   -8.867156    0.000000    0.000000    1.000000
   319  Na    c    -8.867156    2.209140    0.000000    0.000000    1.000000
   320  Na    c    -6.636563   -4.438218    0.000000    0.000000    1.000000
   321  Na    c    -4.438218   -6.636563    0.000000    0.000000    1.000000
   322  O     c     4.409873   13.204540    0.000000    0.000000    0.183000
   323  O     c    13.204540    4.409873    0.000000    0.000000    0.183000
   324  O     c     4.403940    8.803819    8.803683    0.000000    0.183000
   325  O     c     4.403940    8.803819   -8.803683    0.000000    0.183000
   326  O     c     8.803819    4.403940    8.803683    0.000000    0.183000
   327  O     c     8.803819    4.403940   -8.803683    0.000000    0.183000
   328  O     c    13.223224   -0.004978    0.000000    0.000000    0.183000
   329  O     c    -0.004978   13.223224    0.000000    0.000000    0.183000
   330  O     c     8.808669   -0.001039    8.806324    0.000000    0.183000
   331  O     c     8.808669   -0.001039   -8.806324    0.000000    0.183000
   332  O     c    -0.001039    8.808669    8.806324    0.000000    0.183000
   333  O     c    -0.001039    8.808669   -8.806324    0.000000    0.183000
   334  O     c     4.406990   -4.406381    8.809434    0.000000    0.183000
   335  O     c     4.406990   -4.406381   -8.809434    0.000000    0.183000
   336  O     c    -4.406381    4.406990    8.809434    0.000000    0.183000
   337  O     c    -4.406381    4.406990   -8.809434    0.000000    0.183000
   338  O     c     4.403953   -8.826131    0.000000    0.000000    0.183000
   339  O     c    -8.826131    4.403953    0.000000    0.000000    0.183000
   340  O     c    -0.003178   -4.404613    8.811368    0.000000    0.183000
   341  O     c    -0.003178   -4.404613   -8.811368    0.000000    0.183000
   342  O     c    -4.404613   -0.003178    8.811368    0.000000    0.183000
   343  O     c    -4.404613   -0.003178   -8.811368    0.000000    0.183000
   344  O     c    -0.001736   -8.849822    0.000000    0.000000    0.183000
   345  O     c    -8.849822   -0.001736    0.000000    0.000000    0.183000
   346  Na    c     8.817295    8.817295    6.609770    0.000000    1.000000
   347  Na    c     8.817295    8.817295   -6.609770    0.000000    1.000000
   348  Na    c     4.409978   13.234139   -2.203107    0.000000    1.000000
   349  Na    c     4.409978   13.234139    2.203107    0.000000    1.000000
   350  Na    c    13.234139    4.409978   -2.203107    0.000000    1.000000
   351  Na    c    13.234139    4.409978    2.203107    0.000000    1.000000
   352  Na    c    13.248945    0.003749   -2.205506    0.000000    1.000000
   353  Na    c    13.248945    0.003749    2.205506    0.000000    1.000000
   354  Na    c     0.003749   13.248945   -2.205506    0.000000    1.000000
   355  Na    c     0.003749   13.248945    2.205506    0.000000    1.000000
   356  Na    c     4.412342    4.412342   11.019107    0.000000    1.000000
   357  Na    c     4.412342    4.412342  -11.019107    0.000000    1.000000
   358  Na    c     4.443708    0.003112   11.026957    0.000000    1.000000
   359  Na    c     4.443708    0.003112  -11.026957    0.000000    1.000000
   360  Na    c     0.003112    4.443708   11.026957    0.000000    1.000000
   361  Na    c     0.003112    4.443708  -11.026957    0.000000    1.000000
   362  Na    c     8.827962   -4.406060    6.615961    0.000000    1.000000
   363  Na    c     8.827962   -4.406060   -6.615961    0.000000    1.000000
   364  Na    c    -4.406060    8.827962    6.615961    0.000000    1.000000
[...]
    121 y          0.000000     -0.015645    -0.015645    Cartesian    0.00
    121 z         11.014756     11.044530     0.029774    Cartesian    0.27
    122 x          4.405902      4.420441     0.014538    Cartesian    0.33
    122 y         -8.811805     -8.842888    -0.031084    Cartesian    0.35
    122 z         -2.202951     -2.208380    -0.005429    Cartesian    0.25
    123 x          0.000000      0.003771     0.003771    Cartesian    0.00
    123 y         -8.811805     -8.864395    -0.052591    Cartesian    0.60
    123 z         -2.202951     -2.211028    -0.008077    Cartesian    0.37
    124 x         -4.405902     -4.404604     0.001298    Cartesian   -0.03
    124 y         -4.405902     -4.404604     0.001298    Cartesian   -0.03
    124 z          6.608853      6.620300     0.011447    Cartesian    0.17
    125 x          6.608853      6.613961     0.005108    Cartesian    0.08
    125 y         13.217707     13.254655     0.036948    Cartesian    0.28
    125 z          0.000000      0.000000     0.000000    Cartesian    0.00
    126 x         11.014756     11.019989     0.005233    Cartesian    0.05
    126 y          8.811805      8.826716     0.014912    Cartesian    0.17
    126 z          4.405902      4.413899     0.007997    Cartesian    0.18
    127 x          6.608853      6.597566    -0.011288    Cartesian   -0.17
    127 y         11.014756     10.975676    -0.039080    Cartesian   -0.35
    127 z          6.608853      6.586195    -0.022659    Cartesian   -0.34
    128 x          2.202951      2.205137     0.002186    Cartesian    0.10
    128 y         13.217707     13.253819     0.036112    Cartesian    0.27
    128 z          4.405902      4.419851     0.013949    Cartesian    0.32
    129 x          6.608853      6.611364     0.002510    Cartesian    0.04
    129 y          8.811805      8.831835     0.020030    Cartesian    0.23
    129 z          8.811805      8.832861     0.021056    Cartesian    0.24
    130 x         -2.202951     -2.209311    -0.006360    Cartesian    0.29
    130 y         13.217707     13.269978     0.052271    Cartesian    0.40
    130 z          0.000000      0.000000     0.000000    Cartesian    0.00
    131 x          2.202951      2.197693    -0.005258    Cartesian   -0.24
    131 y          6.608853      6.592516    -0.016337    Cartesian   -0.25
    131 z         11.014756     10.980581    -0.034175    Cartesian   -0.31
    132 x         11.014756     10.983102    -0.031654    Cartesian   -0.29
    132 y         -2.202951     -2.195356     0.007595    Cartesian   -0.34
    132 z          6.608853      6.596203    -0.012650    Cartesian   -0.19
    133 x         -2.202951     -2.205363    -0.002411    Cartesian    0.11
    133 y          8.811805      8.832028     0.020224    Cartesian    0.23
    133 z          8.811805      8.841222     0.029418    Cartesian    0.33
    134 x         11.014756     11.027734     0.012978    Cartesian    0.12
    134 y         -4.405902     -4.424026    -0.018124    Cartesian    0.41
    134 z          4.405902      4.419853     0.013950    Cartesian    0.32
    135 x          6.608853      6.615004     0.006151    Cartesian    0.09
    135 y         -4.405902     -4.421310    -0.015407    Cartesian    0.35
    135 z          8.811805      8.840825     0.029020    Cartesian    0.33
    136 x         -6.608853     -6.618253    -0.009399    Cartesian    0.14
    136 y          8.811805      8.844720     0.032915    Cartesian    0.37
    136 z          4.405902      4.424380     0.018477    Cartesian    0.42
    137 x          2.202951      2.199277    -0.003674    Cartesian   -0.17
    137 y         -2.202951     -2.202961    -0.000010    Cartesian    0.00
    137 z         11.014756     10.979598    -0.035158    Cartesian   -0.32
    138 x          6.608853      6.578618    -0.030236    Cartesian   -0.46
    138 y         -6.608853     -6.581860     0.026993    Cartesian   -0.41
    138 z          6.608853      6.584462    -0.024392    Cartesian   -0.37
    139 x          6.608853      6.618569     0.009716    Cartesian    0.15
    139 y         -8.811805     -8.851552    -0.039748    Cartesian    0.45
    139 z          0.000000      0.000000     0.000000    Cartesian    0.00
    140 x          2.202951      2.207348     0.004397    Cartesian    0.20
    140 y         -8.811805     -8.847357    -0.035552    Cartesian    0.40
    140 z          4.405902      4.419397     0.013495    Cartesian    0.31
    141 x         -2.202951     -2.207813    -0.004862    Cartesian    0.22
    141 y         -4.405902     -4.414333    -0.008431    Cartesian    0.19
    141 z          8.811805      8.847114     0.035310    Cartesian    0.40
    142 x         -2.202951     -2.194520     0.008432    Cartesian   -0.38
    142 y         -6.608853     -6.583477     0.025376    Cartesian   -0.38
    142 z          6.608853      6.584221    -0.024633    Cartesian   -0.37
    143 x         -2.202951     -2.211659    -0.008708    Cartesian    0.40
    143 y         -8.811805     -8.876174    -0.064369    Cartesian    0.73
    143 z          0.000000      0.000000     0.000000    Cartesian    0.00
    144 x         -6.608853     -6.622225    -0.013371    Cartesian    0.20
    144 y         -4.405902     -4.427325    -0.021423    Cartesian    0.49
    144 z          4.405902      4.426473     0.020571    Cartesian    0.47
    145 x          2.202951      1.736852    -0.466100    Cartesian  -21.16
    145 y          2.202951      1.736852    -0.466100    Cartesian  -21.16
    145 z         -2.202951     -1.850681     0.352270    Cartesian  -15.99
    146 x          4.053600      4.053600     0.000000    Cartesian    0.00
    146 y          4.053600      4.053600     0.000000    Cartesian    0.00
    146 z          0.000000      0.000000     0.000000    Cartesian    0.00
    147 x          4.405902      4.527856     0.121954    Cartesian    2.77
    147 y          0.000000     -0.135116    -0.135116    Cartesian    0.00
    147 z          0.000000      0.000000     0.000000    Cartesian    0.00
    148 x          2.202951      2.155295    -0.047657    Cartesian   -2.16
    148 y          6.608853      6.523143    -0.085710    Cartesian   -1.30
    148 z         -2.202951     -2.196985     0.005967    Cartesian   -0.27
    149 x          2.202951      1.824068    -0.378883    Cartesian  -17.20
    149 y         -2.202951     -1.981647     0.221304    Cartesian  -10.05
    149 z         -2.202951     -1.911723     0.291229    Cartesian  -13.22
    150 x          4.405902      4.348277    -0.057625    Cartesian   -1.31
    150 y          4.405902      4.348277    -0.057625    Cartesian   -1.31
    150 z          4.405902      4.379566    -0.026336    Cartesian   -0.60
    151 x          4.405902      4.394436    -0.011466    Cartesian   -0.26
    151 y          0.000000     -0.030446    -0.030446    Cartesian    0.00
    151 z          4.405902      4.408760     0.002858    Cartesian    0.06
    152 x          0.000000     -0.021666    -0.021666    Cartesian    0.00
    152 y          0.000000     -0.021666    -0.021666    Cartesian    0.00
    152 z          4.405902      4.573204     0.167301    Cartesian    3.80
    153 x          6.608853      6.434827    -0.174026    Cartesian   -2.63
    153 y          6.608853      6.434827    -0.174026    Cartesian   -2.63
    153 z         -2.202951     -2.093083     0.109868    Cartesian   -4.99
    154 x          2.202951      2.193414    -0.009537    Cartesian   -0.43
    154 y          2.202951      2.193414    -0.009537    Cartesian   -0.43
    154 z          6.608853      6.566599    -0.042254    Cartesian   -0.64
    155 x          6.608853      6.574191    -0.034662    Cartesian   -0.52
    155 y         -2.202951     -2.253417    -0.050466    Cartesian    2.29
    155 z         -2.202951     -2.228972    -0.026021    Cartesian    1.18
    156 x         -2.202951     -1.926713     0.276238    Cartesian  -12.54
    156 y         -2.202951     -1.926713     0.276238    Cartesian  -12.54
    156 z         -2.202951     -1.867531     0.335420    Cartesian  -15.23
    157 x          4.405902      4.362461    -0.043441    Cartesian   -0.99
    157 y          8.811805      8.754955    -0.056850    Cartesian   -0.65
    157 z          0.000000      0.000000     0.000000    Cartesian    0.00
    158 x          8.811805      8.845315     0.033510    Cartesian    0.38
    158 y          0.000000     -0.020165    -0.020165    Cartesian    0.00
    158 z          0.000000      0.000000     0.000000    Cartesian    0.00
    159 x          4.405902      4.416524     0.010622    Cartesian    0.24
    159 y         -4.405902     -4.455647    -0.049745    Cartesian    1.13
    159 z          0.000000      0.000000     0.000000    Cartesian    0.00
    160 x          0.000000     -0.012853    -0.012853    Cartesian    0.00
    160 y         -4.405902     -4.580349    -0.174447    Cartesian    3.96
    160 z          0.000000      0.000000     0.000000    Cartesian    0.00
    161 x          2.202951      2.172430    -0.030521    Cartesian   -1.39
    161 y          6.608853      6.559065    -0.049788    Cartesian   -0.75
    161 z          6.608853      6.569085    -0.039769    Cartesian   -0.60
    162 x          2.202951      2.208786     0.005835    Cartesian    0.26
    162 y         -2.202951     -2.229806    -0.026855    Cartesian    1.22
    162 z          6.608853      6.569335    -0.039518    Cartesian   -0.60
    163 x          4.405902      4.399402    -0.006500    Cartesian   -0.15
    163 y          8.811805      8.785311    -0.026494    Cartesian   -0.30
    163 z          4.405902      4.388729    -0.017174    Cartesian   -0.39
    164 x          8.811805      8.813305     0.001500    Cartesian    0.02
    164 y          0.000000     -0.006006    -0.006006    Cartesian    0.00
    164 z          4.405902      4.405298    -0.000604    Cartesian   -0.01
    165 x          4.405902      4.390516    -0.015387    Cartesian   -0.35
    165 y         -4.405902     -4.407194    -0.001291    Cartesian    0.03
    165 z          4.405902      4.394589    -0.011314    Cartesian   -0.26
    166 x          0.000000     -0.006422    -0.006422    Cartesian    0.00
    166 y         -4.405902     -4.418890    -0.012988    Cartesian    0.29
    166 z          4.405902      4.416705     0.010803    Cartesian    0.25
    167 x          2.202951      2.193539    -0.009412    Cartesian   -0.43
    167 y         11.014756     10.982540    -0.032216    Cartesian   -0.29
    167 z         -2.202951     -2.198712     0.004239    Cartesian   -0.19
    168 x          6.608853      6.567658    -0.041195    Cartesian   -0.62
    168 y          6.608853      6.567658    -0.041195    Cartesian   -0.62
    168 z          6.608853      6.559022    -0.049831    Cartesian   -0.75
    169 x          6.608853      6.566105    -0.042748    Cartesian   -0.65
    169 y         -2.202951     -2.199916     0.003035    Cartesian   -0.14
    169 z          6.608853      6.576670    -0.032184    Cartesian   -0.49
    170 x          2.202951      2.204535     0.001584    Cartesian    0.07
    170 y         -6.608853     -6.588175     0.020679    Cartesian   -0.31
    170 z         -2.202951     -2.217831    -0.014879    Cartesian    0.68
    171 x         -2.202951     -2.232428    -0.029477    Cartesian    1.34
    171 y         -2.202951     -2.232428    -0.029477    Cartesian    1.34
    171 z          6.608853      6.573206    -0.035647    Cartesian   -0.54
    172 x          8.811805      8.780067    -0.031738    Cartesian   -0.36
    172 y          8.811805      8.780067    -0.031738    Cartesian   -0.36
    172 z          0.000000      0.000000     0.000000    Cartesian    0.00
    173 x          4.405902      4.406671     0.000769    Cartesian    0.02
    173 y          4.405902      4.406671     0.000769    Cartesian    0.02
    173 z          8.811805      8.805657    -0.006148    Cartesian   -0.07
    174 x          4.405902      4.405418    -0.000485    Cartesian   -0.01
    174 y          0.000000     -0.005278    -0.005278    Cartesian    0.00
    174 z          8.811805      8.820319     0.008514    Cartesian    0.10
    175 x          8.811805      8.823484     0.011679    Cartesian    0.13
    175 y         -4.405902     -4.425472    -0.019569    Cartesian    0.44
    175 z          0.000000      0.000000     0.000000    Cartesian    0.00
    176 x          0.000000     -0.000304    -0.000304    Cartesian    0.00
    176 y          0.000000     -0.000304    -0.000304    Cartesian    0.00
    176 z          8.811805      8.859893     0.048088    Cartesian    0.55
    177 x         -4.405902     -4.425008    -0.019105    Cartesian    0.43
    177 y         -4.405902     -4.425008    -0.019105    Cartesian    0.43
    177 z          0.000000      0.000000     0.000000    Cartesian    0.00
    178 x          6.608853      6.588610    -0.020244    Cartesian   -0.31
    178 y         11.014756     10.969351    -0.045405    Cartesian   -0.41
    178 z         -2.202951     -2.193201     0.009750    Cartesian   -0.44
    179 x         11.014756     10.985961    -0.028795    Cartesian   -0.26
    179 y         -2.202951     -2.210334    -0.007382    Cartesian    0.34
    179 z         -2.202951     -2.200392     0.002559    Cartesian   -0.12
    180 x          6.608853      6.578422    -0.030432    Cartesian   -0.46
    180 y         -6.608853     -6.597047     0.011807    Cartesian   -0.18
    180 z         -2.202951     -2.193502     0.009449    Cartesian   -0.43
    181 x         -2.202951     -2.234388    -0.031437    Cartesian    1.43
    181 y         -6.608853     -6.578578     0.030276    Cartesian   -0.46
    181 z         -2.202951     -2.217879    -0.014928    Cartesian    0.68
    182 x          8.811805      8.803137    -0.008668    Cartesian   -0.10
    182 y          8.811805      8.803137    -0.008668    Cartesian   -0.10
    182 z          4.405902      4.393498    -0.012405    Cartesian   -0.28
    183 x          8.811805      8.819483     0.007679    Cartesian    0.09
    183 y         -4.405902     -4.416634    -0.010732    Cartesian    0.24
    183 z          4.405902      4.410041     0.004139    Cartesian    0.09
    184 x         -4.405902     -4.402635     0.003267    Cartesian   -0.07
    184 y         -4.405902     -4.402635     0.003267    Cartesian   -0.07
    184 z          4.405902      4.394611    -0.011291    Cartesian   -0.26
    185 x          2.202951      2.193804    -0.009147    Cartesian   -0.42
    185 y         11.014756     10.983909    -0.030847    Cartesian   -0.28
    185 z          6.608853      6.591423    -0.017431    Cartesian   -0.26
    186 x          2.202951      2.200021    -0.002930    Cartesian   -0.13
    186 y          2.202951      2.200021    -0.002930    Cartesian   -0.13
    186 z         11.014756     10.983120    -0.031635    Cartesian   -0.29
    187 x          2.202951      2.183266    -0.019685    Cartesian   -0.89
    187 y         -6.608853     -6.587972     0.020882    Cartesian   -0.32
    187 z          6.608853      6.582992    -0.025861    Cartesian   -0.39
    188 x          4.405902      4.409879     0.003977    Cartesian    0.09
    188 y         13.217707     13.204551    -0.013156    Cartesian   -0.10
    188 z          0.000000      0.000000     0.000000    Cartesian    0.00
    189 x          4.405902      4.403936    -0.001966    Cartesian   -0.04
    189 y          8.811805      8.803808    -0.007996    Cartesian   -0.09
    189 z          8.811805      8.803689    -0.008116    Cartesian   -0.09
    190 x         13.217707     13.223219     0.005512    Cartesian    0.04
    190 y          0.000000     -0.004990    -0.004990    Cartesian    0.00
    190 z          0.000000      0.000000     0.000000    Cartesian    0.00
    191 x          8.811805      8.808671    -0.003134    Cartesian   -0.04
    191 y          0.000000     -0.001040    -0.001040    Cartesian    0.00
    191 z          8.811805      8.806319    -0.005485    Cartesian   -0.06
    192 x          4.405902      4.406988     0.001086    Cartesian    0.02
    192 y         -4.405902     -4.406382    -0.000480    Cartesian    0.01
    192 z          8.811805      8.809432    -0.002372    Cartesian   -0.03
    193 x          4.405902      4.403941    -0.001961    Cartesian   -0.04
    193 y         -8.811805     -8.826126    -0.014321    Cartesian    0.16
    193 z          0.000000      0.000000     0.000000    Cartesian    0.00
    194 x          0.000000     -0.003182    -0.003182    Cartesian    0.00
    194 y         -4.405902     -4.404617     0.001285    Cartesian   -0.03
    194 z          8.811805      8.811355    -0.000450    Cartesian   -0.01
    195 x          0.000000     -0.001734    -0.001734    Cartesian    0.00
    195 y         -8.811805     -8.849805    -0.038001    Cartesian    0.43
    195 z          0.000000      0.000000     0.000000    Cartesian    0.00
    196 x          6.608853      6.596796    -0.012058    Cartesian   -0.18
    196 y         11.014756     10.970669    -0.044086    Cartesian   -0.40
    196 z          6.608853      6.583389    -0.025465    Cartesian   -0.39
    197 x          2.202951      2.196269    -0.006682    Cartesian   -0.30
    197 y          6.608853      6.589502    -0.019352    Cartesian   -0.29
    197 z         11.014756     10.976439    -0.038317    Cartesian   -0.35
    198 x         11.014756     10.978095    -0.036661    Cartesian   -0.33
    198 y         -2.202951     -2.194033     0.008919    Cartesian   -0.40
    198 z          6.608853      6.594253    -0.014601    Cartesian   -0.22
    199 x          2.202951      2.197659    -0.005292    Cartesian   -0.24
    199 y         -2.202951     -2.202059     0.000892    Cartesian   -0.04
    199 z         11.014756     10.973048    -0.041708    Cartesian   -0.38
    200 x          6.608853      6.573694    -0.035159    Cartesian   -0.53
    200 y         -6.608853     -6.578052     0.030801    Cartesian   -0.47
    200 z          6.608853      6.581009    -0.027845    Cartesian   -0.42
    201 x         -2.202951     -2.192341     0.010610    Cartesian   -0.48
    201 y         -6.608853     -6.577151     0.031703    Cartesian   -0.48
    201 z          6.608853      6.578069    -0.030784    Cartesian   -0.47
--------------------------------------------------------------------------------


  Time to end of optimisation  =       42.4743 seconds


  Peak dynamic memory used =      90.31 MB 


  Timing analysis for GULP :

--------------------------------------------------------------------------------
  Task / Subroutine                                          Time (Seconds)
--------------------------------------------------------------------------------
  Calculation of reciprocal space energy and derivatives          0.0007
  Calculation of reciprocal space energy using symmetry           0.0014
  Calculation of real space energy and derivatives                0.0042
  Calculation of real space energy using symmetry                 0.0133
  Calculation for region 1 energy and derivatives (2-b)          22.5344
  Calculation for region 2a energy                               15.3866
  Calculation for region 2b energy                                0.0087
  Calculation and manipulation of Hessian matrix                  4.0245
  Calculation of matrix inversion                                 0.3386
  Symmetry generation of equivalent positions                     0.0048
--------------------------------------------------------------------------------
  Total CPU time                                                 42.4744
--------------------------------------------------------------------------------


  Dump file written as Na3OCl.grs


  Job Finished at 15:19.09 19th January    2021                               

