********************************************************************************
*                       GENERAL UTILITY LATTICE PROGRAM                        *
*                                 Julian Gale                                  *
*                       Curtin Institute for Computation                       *
*                    School of Molecular and Life Sciences                     *
*                    Curtin University, Western Australia                      *
********************************************************************************
* Version = 5.2.0 * Last modified =  10th September 2020                       *
********************************************************************************
*  optimise     - perform optimisation run                                     *
*  conp         - constant pressure calculation                                *
*  property     - calculate properties for final geometry                      *
*  defect       - perform defect calculation after bulk run                    *
*  compare      - compare initial and final structures                         *
********************************************************************************

  Job Started  at 15:19.04 19th January    2021                               

  Number of CPUs =     1


  Total number of configurations input =      1

********************************************************************************
*  Input for Configuration =   1                                               *
********************************************************************************

  Formula = OClNa3                                                      

  Number of irreducible atoms/shells =       5


  Total number atoms/shells =       7

  Dimensionality = 3               :  Bulk   


  Symmetry :

  Crystal family                   :  Cubic       
  Crystal class  (Groth - 1921)    :  Cubic Hexakisoctahedral              

  Space group (centrosymmetric)    :  P M 3 M         

  Patterson group                  :  P m -3 m 

  Cartesian lattice vectors (Angstroms) :

        4.504000    0.000000    0.000000
        0.000000    4.504000    0.000000
        0.000000    0.000000    4.504000

  Cell parameters (Angstroms/Degrees):

  a =       4.5040    alpha =  90.0000
  b =       4.5040    beta  =  90.0000
  c =       4.5040    gamma =  90.0000

  Initial cell volume =          91.368216 Angs**3

  Temperature of configuration =   0.00     K 

  Pressure of configuration =         0.000 GPa 

  Fractional coordinates of asymmetric unit :

--------------------------------------------------------------------------------
   No.  Atomic       x           y          z         Charge      Occupancy
        Label      (Frac)      (Frac)     (Frac)        (e)         (Frac)  
--------------------------------------------------------------------------------
      1 O     c    0.000000    0.000000    0.000000     0.18300    1.000000    
      2 Cl    c    0.500000    0.500000    0.500000     1.48500    1.000000    
      3 Na    c    0.500000    0.000000    0.000000     1.00000    1.000000    
      4 O     s    0.000000    0.000000    0.000000    -2.18300    1.000000    
      5 Cl    s    0.500000    0.500000    0.500000    -2.48500    1.000000    
--------------------------------------------------------------------------------


  Constraints : 

--------------------------------------------------------------------------------
  Constraint no.      Unconstrained     Constrained    Coefficient    Offset
                         Variable         Variable
--------------------------------------------------------------------------------
           1              Strain 1        Strain 2       1.00000      0.0000
           2              Strain 1        Strain 3       1.00000      0.0000
--------------------------------------------------------------------------------


********************************************************************************
*  General input information                                                   *
********************************************************************************

  Species output for all configurations : 

--------------------------------------------------------------------------------
  Species    Type    Atomic    Atomic    Charge       Radii (Angs)     Library
                     Number     Mass       (e)     Cova   Ionic  VDW   Symbol
--------------------------------------------------------------------------------
    Na       Core       11      22.99   1.000000   0.970  0.000  2.300          
    O        Core        8      16.00   0.183000   0.730  0.000  1.360          
    O        Shell       8       0.00  -2.183000   0.730  0.000  1.360          
    Cl       Core       17      35.45   1.485000   0.990  0.000  1.650          
    Cl       Shell      17       0.00  -2.485000   0.990  0.000  1.650          
    Mg       Core       12      24.31   0.415000   1.100  0.000  0.000          
    Mg       Shell      12       0.00   1.585000   1.100  0.000  0.000          
    Ca       Core       20      40.08  -1.135000   0.990  0.000  0.000          
    Ca       Shell      20       0.00   3.135000   0.990  0.000  0.000          
    Sr       Core       38      87.62  -1.251000   1.120  0.000  0.000          
    Sr       Shell      38       0.00   3.251000   1.120  0.000  0.000          
    Ba       Core       56     137.33  -7.203000   1.340  0.000  0.000          
    Ba       Shell      56       0.00   9.203000   1.340  0.000  0.000          
--------------------------------------------------------------------------------


  Lattice summation method               =    Ewald          (3-D)
                                         =    Parry          (2-D)
                                         =    Saunders et al (1-D)
  Accuracy factor for lattice sums       =   12.000


  Analytic derivatives to be used

  Time limit = Infinity

  Maximum range for interatomic potentials =    100000.000000 Angstroms

  General interatomic potentials :

--------------------------------------------------------------------------------
Atom  Types   Potential      Parameter       Value         Units   Cutoffs(Ang)
  1     2                                                            Min /  Max 
--------------------------------------------------------------------------------
O    c O    s Spring (c-s)  Spring k 2       593.71600    eV*Ang^-2 0.000  0.800
                            Spring k 4       0.0000000    eV*Ang^-4 
--------------------------------------------------------------------------------
Cl   c Cl   s Spring (c-s)  Spring k 2       29.380000    eV*Ang^-2 0.000  0.800
                            Spring k 4       0.0000000    eV*Ang^-4 
--------------------------------------------------------------------------------
Mg   c Mg   s Spring (c-s)  Spring k 2       361.60000    eV*Ang^-2 0.000  0.800
                            Spring k 4       0.0000000    eV*Ang^-4 
--------------------------------------------------------------------------------
Ca   c Ca   s Spring (c-s)  Spring k 2       110.20000    eV*Ang^-2 0.000  0.800
                            Spring k 4       0.0000000    eV*Ang^-4 
--------------------------------------------------------------------------------
Sr   c Sr   s Spring (c-s)  Spring k 2       71.700000    eV*Ang^-2 0.000  0.800
                            Spring k 4       0.0000000    eV*Ang^-4 
--------------------------------------------------------------------------------
Ba   c Ba   s Spring (c-s)  Spring k 2       495.20000    eV*Ang^-2 0.000  0.800
                            Spring k 4       0.0000000    eV*Ang^-4 
--------------------------------------------------------------------------------
Na   c Na   c Buckingham    Buckingham A     1788.1900    eV        0.000 12.000
                            Buckingham rho  0.15900000    Ang       
                            Buckingham C     0.0000000    eV*Ang^6  
--------------------------------------------------------------------------------
Na   c O    s Buckingham    Buckingham A     588.38000    eV        0.000 12.000
                            Buckingham rho  0.33800000    Ang       
                            Buckingham C     0.0000000    eV*Ang^6  
--------------------------------------------------------------------------------
Na   c Cl   s Buckingham    Buckingham A     1170.4100    eV        0.000 12.000
                            Buckingham rho  0.31500000    Ang       
                            Buckingham C     0.0000000    eV*Ang^6  
--------------------------------------------------------------------------------
O    s O    s Buckingham    Buckingham A     22764.300    eV        0.000 12.000
                            Buckingham rho  0.14900000    Ang       
                            Buckingham C     13.190000    eV*Ang^6  
--------------------------------------------------------------------------------
O    s Cl   s Buckingham    Buckingham A     8286.9100    eV        0.000 12.000
                            Buckingham rho  0.25900000    Ang       
                            Buckingham C     62.200000    eV*Ang^6  
--------------------------------------------------------------------------------
Cl   s Cl   s Buckingham    Buckingham A     1227.2000    eV        0.000 12.000
                            Buckingham rho  0.32100000    Ang       
                            Buckingham C     14.530000    eV*Ang^6  
--------------------------------------------------------------------------------
O    s Mg   s Buckingham    Buckingham A     1428.5000    eV        0.000 12.000
                            Buckingham rho  0.29450000    Ang       
                            Buckingham C     0.0000000    eV*Ang^6  
--------------------------------------------------------------------------------
Mg   s Cl   s Buckingham    Buckingham A     4914.5400    eV        0.000 12.000
                            Buckingham rho  0.25700000    Ang       
                            Buckingham C     0.0000000    eV*Ang^6  
--------------------------------------------------------------------------------
O    s Ca   s Buckingham    Buckingham A     1090.4000    eV        0.000 12.000
                            Buckingham rho  0.34370000    Ang       
                            Buckingham C     0.0000000    eV*Ang^6  
--------------------------------------------------------------------------------
Cl   s Ca   s Buckingham    Buckingham A     2302.0000    eV        0.000 12.000
                            Buckingham rho  0.34020000    Ang       
                            Buckingham C     0.0000000    eV*Ang^6  
--------------------------------------------------------------------------------
O    s Sr   s Buckingham    Buckingham A     959.10000    eV        0.000 12.000
                            Buckingham rho  0.37210000    Ang       
                            Buckingham C     0.0000000    eV*Ang^6  
--------------------------------------------------------------------------------
Cl   s Sr   s Buckingham    Buckingham A     2191.0900    eV        0.000 12.000
                            Buckingham rho  0.34570000    Ang       
                            Buckingham C     0.0000000    eV*Ang^6  
--------------------------------------------------------------------------------
O    s Ba   s Buckingham    Buckingham A     905.70000    eV        0.000 12.000
                            Buckingham rho  0.39760000    Ang       
                            Buckingham C     0.0000000    eV*Ang^6  
--------------------------------------------------------------------------------
Cl   s Ba   s Buckingham    Buckingham A     2704.5500    eV        0.000 12.000
                            Buckingham rho  0.35280000    Ang       
                            Buckingham C     0.0000000    eV*Ang^6  
--------------------------------------------------------------------------------

********************************************************************************
*  Output for configuration   1                                                *
********************************************************************************


  Components of energy : 

--------------------------------------------------------------------------------
  Interatomic potentials     =           4.94315381 eV    
  Monopole - monopole (real) =         -10.03624526 eV    
  Monopole - monopole (recip)=         -29.53581274 eV    
  Monopole - monopole (total)=         -39.57205800 eV    
--------------------------------------------------------------------------------
  Total lattice energy       =         -34.62890419 eV    
--------------------------------------------------------------------------------
  Total lattice energy       =           -3341.1599 kJ/(mole unit cells)
--------------------------------------------------------------------------------


  Number of variables =        1

  Maximum number of calculations  =          1000
  Maximum Hessian update interval =            10
  Maximum step size               =   1.000000000
  Maximum parameter tolerance     =   0.000010000
  Maximum function  tolerance     =   0.000010000
  Maximum gradient  tolerance     =   0.001000000
  Maximum gradient  component     =   0.010000000

  Symmetry constrained optimisation

  Symmetry used for second derivatives

  Cell parameters to be optimised using strains

  Newton-Raphson optimiser to be used

  BFGS hessian update to be used

  Lower half triangular hessian to be used

  Start of bulk optimisation :

  Cycle:      0 Energy:       -34.628904  Gnorm:      4.328237  CPU:    0.020
  ** Hessian calculated **
  Cycle:      1 Energy:       -34.677667  Gnorm:      0.044008  CPU:    0.025
  Cycle:      2 Energy:       -34.677671  Gnorm:      0.003653  CPU:    0.029


  **** Optimisation achieved ****


  Final energy =     -34.67767136 eV
  Final Gnorm  =       0.00000010

  Components of energy : 

--------------------------------------------------------------------------------
  Interatomic potentials     =           5.77546103 eV    
  Monopole - monopole (real) =         -10.25970290 eV    
  Monopole - monopole (recip)=         -30.19342950 eV    
  Monopole - monopole (total)=         -40.45313239 eV    
--------------------------------------------------------------------------------
  Total lattice energy       =         -34.67767136 eV    
--------------------------------------------------------------------------------
  Total lattice energy       =           -3345.8652 kJ/(mole unit cells)
--------------------------------------------------------------------------------

  Final asymmetric unit coordinates :

--------------------------------------------------------------------------------
   No.  Atomic        x           y           z         Radius
        Label       (Frac)      (Frac)      (Frac)       (Angs) 
--------------------------------------------------------------------------------
     1  O     c     0.000000    0.000000    0.000000    0.000000
     2  Cl    c     0.500000    0.500000    0.500000    0.000000
     3  Na    c     0.500000    0.000000    0.000000    0.000000
     4  O     s     0.000000    0.000000    0.000000    0.000000
     5  Cl    s     0.500000    0.500000    0.500000    0.000000
--------------------------------------------------------------------------------

  Final Cartesian lattice vectors (Angstroms) :

        4.405902    0.000000    0.000000
        0.000000    4.405902    0.000000
        0.000000    0.000000    4.405902


  Final cell parameters and derivatives :

--------------------------------------------------------------------------------
       a            4.405902 Angstrom     dE/de1(xx)     0.000000 eV/strain
       b            4.405902 Angstrom     dE/de2(yy)     0.000000 eV/strain
       c            4.405902 Angstrom     dE/de3(zz)     0.000000 eV/strain
       alpha       90.000000 Degrees      dE/de4(yz)     0.000000 eV/strain
       beta        90.000000 Degrees      dE/de5(xz)     0.000000 eV/strain
       gamma       90.000000 Degrees      dE/de6(xy)     0.000000 eV/strain
--------------------------------------------------------------------------------

  Primitive cell volume =            85.527266 Angs**3

  Density of cell =      2.338030 g/cm**3

  Non-primitive cell volume =            85.527266 Angs**3


  Final internal derivatives :

--------------------------------------------------------------------------------
   No.  Atomic          a             b             c           Radius
        Label          (eV)          (eV)          (eV)        (eV/Angs)
--------------------------------------------------------------------------------
      1 O     c       0.000000      0.000000      0.000000      0.000000
      2 Cl    c       0.000000      0.000000      0.000000      0.000000
      3 Na    c       0.000000      0.000000      0.000000      0.000000
      4 O     s       0.000000      0.000000      0.000000      0.000000
      5 Cl    s       0.000000      0.000000      0.000000      0.000000
--------------------------------------------------------------------------------
  Maximum abs         0.000000      0.000000      0.000000      0.000000
--------------------------------------------------------------------------------

  Comparison of initial and final structures : 

--------------------------------------------------------------------------------
  Parameter   Initial value   Final value   Difference    Units      Percent
--------------------------------------------------------------------------------
    Volume        91.368216     85.527266    -5.840950    Angs**3     -6.39
    a              4.504000      4.405902    -0.098098    Angstroms   -2.18
    b              4.504000      4.405902    -0.098098    Angstroms   -2.18
    c              4.504000      4.405902    -0.098098    Angstroms   -2.18
    alpha         90.000000     90.000000     0.000000    Degrees      0.00
    beta          90.000000     90.000000     0.000000    Degrees      0.00
    gamma         90.000000     90.000000     0.000000    Degrees      0.00
      1 x          0.000000      0.000000     0.000000    Fractional   0.00
      1 y          0.000000      0.000000     0.000000    Fractional   0.00
      1 z          0.000000      0.000000     0.000000    Fractional   0.00
      2 x          0.500000      0.500000     0.000000    Fractional   0.00
      2 y          0.500000      0.500000     0.000000    Fractional   0.00
      2 z          0.500000      0.500000     0.000000    Fractional   0.00
      3 x          0.500000      0.500000     0.000000    Fractional   0.00
      3 y          0.000000      0.000000     0.000000    Fractional   0.00
      3 z          0.000000      0.000000     0.000000    Fractional   0.00
      4 x          0.000000      0.000000     0.000000    Fractional   0.00
      4 y          0.000000      0.000000     0.000000    Fractional   0.00
      4 z          0.000000      0.000000     0.000000    Fractional   0.00
      5 x          0.500000      0.500000     0.000000    Fractional   0.00
      5 y          0.500000      0.500000     0.000000    Fractional   0.00
      5 z          0.500000      0.500000     0.000000    Fractional   0.00
--------------------------------------------------------------------------------


  Born effective charge tensors : 

-------------------------------------------------------------------------------
  Atom             x           y             z
-------------------------------------------------------------------------------
    1 O     x      -2.2939      0.0000      0.0000
            y       0.0000     -2.2939      0.0000
            z       0.0000      0.0000     -2.2939
-------------------------------------------------------------------------------
    2 Cl    x      -0.9918     -0.0000      0.0000
            y      -0.0000     -0.9918      0.0000
            z       0.0000      0.0000     -0.9918
-------------------------------------------------------------------------------
    3 Na    x       0.8372     -0.0000     -0.0000
            y      -0.0000      1.2243     -0.0000
            z       0.0000     -0.0000      1.2243
-------------------------------------------------------------------------------




  Elastic Constant Matrix: (Units=GPa)

-------------------------------------------------------------------------------
  Indices      1         2         3         4         5         6    
-------------------------------------------------------------------------------
       1     82.7680   24.3534   24.3534   -0.0000    0.0000   -0.0000
       2     24.3534   82.7680   24.3534   -0.0000   -0.0000   -0.0000
       3     24.3534   24.3534   82.7680    0.0000   -0.0000    0.0000
       4     -0.0000   -0.0000    0.0000   24.3534   -0.0000   -0.0000
       5      0.0000   -0.0000   -0.0000   -0.0000   24.3534   -0.0000
       6     -0.0000   -0.0000    0.0000   -0.0000   -0.0000   24.3534
-------------------------------------------------------------------------------


  Elastic Compliance Matrix: (Units=1/GPa)

-------------------------------------------------------------------------------
  Indices      1         2         3         4         5         6    
-------------------------------------------------------------------------------
       1    0.013948 -0.003171 -0.003171 -0.000000 -0.000000  0.000000
       2   -0.003171  0.013948 -0.003171  0.000000 -0.000000  0.000000
       3   -0.003171 -0.003171  0.013948 -0.000000  0.000000 -0.000000
       4   -0.000000  0.000000 -0.000000  0.041062  0.000000  0.000000
       5   -0.000000 -0.000000  0.000000  0.000000  0.041062  0.000000
       6    0.000000  0.000000 -0.000000  0.000000  0.000000  0.041062
-------------------------------------------------------------------------------

  Mechanical properties :

-------------------------------------------------------------------------------
  Convention :                    Reuss         Voigt         Hill
-------------------------------------------------------------------------------
  Bulk  Modulus (GPa)     =      43.82493      43.82493      43.82493
  Shear Modulus (GPa)     =      26.08758      26.29496      26.19127
-------------------------------------------------------------------------------
  Velocity S-wave (km/s)  =       3.34035       3.35360       3.34698
  Velocity P-wave (km/s)  =       5.79842       5.80861       5.80351
-------------------------------------------------------------------------------
  Compressibility (1/GPa) =    0.02281806
-------------------------------------------------------------------------------
  Stress axis :                     x             y             z
-------------------------------------------------------------------------------
  Youngs Moduli (GPa)     =      71.69479      71.69479      71.69479
-------------------------------------------------------------------------------
  Poissons Ratio (x)      =                     0.22734       0.22734
  Poissons Ratio (y)      =       0.22734                     0.22734
  Poissons Ratio (z)      =       0.22734       0.22734
-------------------------------------------------------------------------------


  Piezoelectric Strain Matrix: (Units=C/m**2)

-------------------------------------------------------------------------------
  Indices      1         2         3         4         5         6    
-------------------------------------------------------------------------------
       x    -0.00000  -0.00000  -0.00000  -0.00000   0.00000   0.00000
       y    -0.00000   0.00000  -0.00000   0.00000  -0.00000   0.00000
       z     0.00000   0.00000   0.00000  -0.00000   0.00000  -0.00000
-------------------------------------------------------------------------------


  Piezoelectric Stress Matrix: (Units=10**-11 C/N)

-------------------------------------------------------------------------------
  Indices      1         2         3         4         5         6    
-------------------------------------------------------------------------------
       x    -0.00000  -0.00000  -0.00000  -0.00000   0.00000   0.00000
       y    -0.00000   0.00000  -0.00000   0.00000  -0.00000   0.00000
       z     0.00000   0.00000  -0.00000  -0.00000   0.00000  -0.00000
-------------------------------------------------------------------------------


  Static dielectric constant tensor : 

-------------------------------------------------------------------------------
              x         y         z
-------------------------------------------------------------------------------
       x    11.08357  -0.00000  -0.00000
       y    -0.00000  11.08357  -0.00000
       z    -0.00000  -0.00000  11.08357
--------------------------------------------------------------------------------

  High frequency dielectric constant tensor : 

-------------------------------------------------------------------------------
              x         y         z
-------------------------------------------------------------------------------
       x     1.50771  -0.00000  -0.00000
       y    -0.00000   1.50771  -0.00000
       z    -0.00000  -0.00000   1.50771
-------------------------------------------------------------------------------

  Static refractive indices : 

-------------------------------------------------------------------------------
    1 =    3.32920      2 =    3.32920      3 =    3.32920
-------------------------------------------------------------------------------

  High frequency refractive indices : 

-------------------------------------------------------------------------------
    1 =    1.22789      2 =    1.22789      3 =    1.22789
-------------------------------------------------------------------------------


  Time to end of optimisation =       0.0427 seconds

********************************************************************************
*  Defect calculation for configuration   1 :                                  *
********************************************************************************

  Total number of defects =      3

  Total charge on defect  =   2.00

  Defect centre is at   2.2520   2.2520   0.0000  Angs

  Region 1 radius =  12.0000      Number of ions =    622

  Number of symmetry inequivalent region 1 ions  =    201

  Region 2 radius =  16.0000      Number of ions =    762

  Number of symmetry inequivalent region 2a ions =    224

  Region 2a mode = 4 : screened electrostatics due to region 1 
                       neglect correction to region 1 forces from 2a
                       region 2a displacements based on defects only

  Region 2a ions will only interact with defects in region 1

  Vacancies:

--------------------------------------------------------------------------------
    Specification type     Symbol/Number         x          y          z
--------------------------------------------------------------------------------
    Cartesian                                0.000000   0.000000   0.000000
    Cartesian                                4.504000   4.504000   0.000000
--------------------------------------------------------------------------------

  Interstitials:

--------------------------------------------------------------------------------
    Specification type     Symbol/Number         x          y          z
--------------------------------------------------------------------------------
    Atom/Cartesian          O                0.450400   0.450400   0.000000
--------------------------------------------------------------------------------


  Symmetry reduced region 1 (Relative to defect centre) :

--------------------------------------------------------------------------------
   No.   Atomic       x            y             z       Radius  Multiplicity   
         Label      (Angs)       (Angs)        (Angs)    (Angs)     
--------------------------------------------------------------------------------
     1  Na    c     -0.0490 *     2.1539 *     0.0000    0.0000     2          
     2  Cl    c     -0.0490 *    -0.0490      -2.2030 *  0.0000     2          
     3  Na    c     -0.0490 *    -2.2520 *     0.0000    0.0000     2          
     4  O     c     -1.8016      -1.8016       0.0000    0.0000     1    Defect
     5  O     c      2.1539 *    -2.2520 *     0.0000    0.0000     2          
     6  Na    c      2.1539 *     2.1539      -2.2030 *  0.0000     2          
     7  Na    c      2.1539 *    -2.2520 *    -2.2030 *  0.0000     4          
     8  Na    c     -2.2520 *    -2.2520      -2.2030 *  0.0000     2          
     9  Na    c      4.3569 *     2.1539 *     0.0000    0.0000     2          
    10  Cl    c     -0.0490 *     4.3569 *    -2.2030 *  0.0000     4          
    11  Na    c     -0.0490 *     2.1539 *     4.4059 *  0.0000     4          
    12  Na    c      4.3569 *    -2.2520 *     0.0000    0.0000     2          
    13  Na    c     -0.0490 *    -2.2520 *     4.4059 *  0.0000     4          
    14  Na    c     -4.4550 *     2.1539 *     0.0000    0.0000     2          
    15  Cl    c     -0.0490 *    -4.4550 *    -2.2030 *  0.0000     4          
    16  Na    c     -4.4550 *    -2.2520 *     0.0000    0.0000     2          
    17  O     c      2.1539 *     2.1539       4.4059 *  0.0000     2          
    18  O     c      2.1539 *    -2.2520 *     4.4059 *  0.0000     4          
    19  O     c     -2.2520 *    -2.2520       4.4059 *  0.0000     2          
    20  Cl    c      4.3569 *     4.3569      -2.2030 *  0.0000     2          
    21  Na    c     -0.0490 *     6.5598 *     0.0000    0.0000     2          
    22  Na    c      4.3569 *     2.1539 *     4.4059 *  0.0000     4          
    23  Na    c      4.3569 *    -2.2520 *     4.4059 *  0.0000     4          
    24  Cl    c     -0.0490 *    -0.0490       6.6089 *  0.0000     2          
    25  Cl    c      4.3569 *    -4.4550 *    -2.2030 *  0.0000     4          
    26  Na    c     -4.4550 *     2.1539 *     4.4059 *  0.0000     4          
    27  Na    c     -0.0490 *    -6.6579 *     0.0000    0.0000     2          
    28  Na    c     -4.4550 *    -2.2520 *     4.4059 *  0.0000     4          
    29  Cl    c     -4.4550 *    -4.4550      -2.2030 *  0.0000     2          
    30  O     c      2.1539 *     6.5598 *     0.0000    0.0000     2          
    31  O     c      6.5598 *    -2.2520 *     0.0000    0.0000     2          
    32  O     c      2.1539 *    -6.6579 *     0.0000    0.0000     2          
    33  O     c     -2.2520 *    -6.6579 *     0.0000    0.0000     2          
    34  Na    c      2.1539 *     6.5598 *    -2.2030 *  0.0000     4          
    35  Na    c      2.1539 *     2.1539       6.6089 *  0.0000     2          
    36  Na    c      6.5598 *    -2.2520 *    -2.2030 *  0.0000     4          
    37  Na    c      2.1539 *    -2.2520 *     6.6089 *  0.0000     4          
    38  Na    c      2.1539 *    -6.6579 *    -2.2030 *  0.0000     4          
    39  Na    c     -2.2520 *    -2.2520       6.6089 *  0.0000     2          
    40  Na    c     -2.2520 *    -6.6579 *    -2.2030 *  0.0000     4          
    41  Na    c      4.3569 *     6.5598 *     0.0000    0.0000     2          
    42  Na    c     -0.0490 *     6.5598 *     4.4059 *  0.0000     4          
    43  Cl    c     -0.0490 *     4.3569 *     6.6089 *  0.0000     4          
    44  Na    c     -4.4550 *     6.5598 *     0.0000    0.0000     2          
    45  Na    c      4.3569 *    -6.6579 *     0.0000    0.0000     2          
    46  Cl    c     -0.0490 *    -4.4550 *     6.6089 *  0.0000     4          
    47  Na    c     -0.0490 *    -6.6579 *     4.4059 *  0.0000     4          
    48  Na    c     -4.4550 *    -6.6579 *     0.0000    0.0000     2          
    49  O     c      2.1539 *     6.5598 *     4.4059 *  0.0000     4          
    50  O     c      6.5598 *    -2.2520 *     4.4059 *  0.0000     4          
    51  O     c      2.1539 *    -6.6579 *     4.4059 *  0.0000     4          
    52  O     c     -2.2520 *    -6.6579 *     4.4059 *  0.0000     4          
    53  Na    c      4.3569 *     6.5598 *     4.4059 *  0.0000     4          
    54  Na    c      8.7628 *     2.1539 *     0.0000    0.0000     2          
    55  Cl    c     -0.0490 *     8.7628 *    -2.2030 *  0.0000     4          
    56  Cl    c      4.3569 *     4.3569       6.6089 *  0.0000     2          
    57  Na    c      8.7628 *    -2.2520 *     0.0000    0.0000     2          
    58  Na    c     -0.0490 *     2.1539 *     8.8118 *  0.0000     4          
    59  Na    c     -4.4550 *     6.5598 *     4.4059 *  0.0000     4          
    60  Cl    c      4.3569 *    -4.4550 *     6.6089 *  0.0000     4          
    61  Na    c     -0.0490 *    -2.2520 *     8.8118 *  0.0000     4          
    62  Na    c      4.3569 *    -6.6579 *     4.4059 *  0.0000     4          
    63  Na    c     -8.8609 *     2.1539 *     0.0000    0.0000     2          
    64  Cl    c     -0.0490 *    -8.8609 *    -2.2030 *  0.0000     4          
    65  Cl    c     -4.4550 *    -4.4550       6.6089 *  0.0000     2          
    66  Na    c     -8.8609 *    -2.2520 *     0.0000    0.0000     2          
    67  Na    c     -4.4550 *    -6.6579 *     4.4059 *  0.0000     4          
    68  O     c      6.5598 *     6.5598       0.0000    0.0000     1          
    69  O     c      2.1539 *     2.1539       8.8118 *  0.0000     2          
    70  O     c      2.1539 *    -2.2520 *     8.8118 *  0.0000     4          
    71  O     c      6.5598 *    -6.6579 *     0.0000    0.0000     2          
    72  O     c     -2.2520 *    -2.2520       8.8118 *  0.0000     2          
    73  O     c     -6.6579 *    -6.6579       0.0000    0.0000     1          
    74  Na    c      6.5598 *     6.5598      -2.2030 *  0.0000     2          
    75  Na    c      2.1539 *     6.5598 *     6.6089 *  0.0000     4          
    76  Na    c      6.5598 *    -2.2520 *     6.6089 *  0.0000     4          
    77  Na    c      6.5598 *    -6.6579 *    -2.2030 *  0.0000     4          
    78  Na    c      2.1539 *    -6.6579 *     6.6089 *  0.0000     4          
    79  Na    c     -2.2520 *    -6.6579 *     6.6089 *  0.0000     4          
    80  Na    c     -6.6579 *    -6.6579      -2.2030 *  0.0000     2          
    81  Cl    c      4.3569 *     8.7628 *    -2.2030 *  0.0000     4          
    82  Na    c      8.7628 *     2.1539 *     4.4059 *  0.0000     4          
    83  Na    c      4.3569 *     2.1539 *     8.8118 *  0.0000     4          
    84  Na    c      8.7628 *    -2.2520 *     4.4059 *  0.0000     4          
    85  Cl    c      8.7628 *    -4.4550 *    -2.2030 *  0.0000     4          
    86  Na    c      4.3569 *    -2.2520 *     8.8118 *  0.0000     4          
    87  Na    c     -4.4550 *     2.1539 *     8.8118 *  0.0000     4          
    88  Cl    c      4.3569 *    -8.8609 *    -2.2030 *  0.0000     4          
    89  Na    c     -8.8609 *     2.1539 *     4.4059 *  0.0000     4          
    90  Na    c     -4.4550 *    -2.2520 *     8.8118 *  0.0000     4          
    91  Na    c     -8.8609 *    -2.2520 *     4.4059 *  0.0000     4          
    92  Cl    c     -4.4550 *    -8.8609 *    -2.2030 *  0.0000     4          
    93  O     c      6.5598 *     6.5598       4.4059 *  0.0000     2          
    94  O     c      6.5598 *    -6.6579 *     4.4059 *  0.0000     4          
    95  O     c     -6.6579 *    -6.6579       4.4059 *  0.0000     2          
    96  Na    c      8.7628 *     6.5598 *     0.0000    0.0000     2          
    97  Na    c     -0.0490 *    10.9657 *     0.0000    0.0000     2          
    98  Cl    c     -0.0490 *     8.7628 *     6.6089 *  0.0000     4          
    99  Na    c     -0.0490 *     6.5598 *     8.8118 *  0.0000     4          
   100  Na    c      8.7628 *    -6.6579 *     0.0000    0.0000     2          
   101  Cl    c     -0.0490 *    -0.0490      11.0148 *  0.0000     2          
   102  Na    c     -8.8609 *     6.5598 *     0.0000    0.0000     2          
   103  Na    c     -0.0490 *    -6.6579 *     8.8118 *  0.0000     4          
   104  Cl    c     -0.0490 *    -8.8609 *     6.6089 *  0.0000     4          
   105  Na    c     -0.0490 *   -11.0638 *     0.0000    0.0000     2          
   106  Na    c     -8.8609 *    -6.6579 *     0.0000    0.0000     2          
   107  O     c      2.1539 *    10.9657 *     0.0000    0.0000     2          
   108  O     c      2.1539 *     6.5598 *     8.8118 *  0.0000     4          
   109  O     c     10.9657 *    -2.2520 *     0.0000    0.0000     2          
   110  O     c      6.5598 *    -2.2520 *     8.8118 *  0.0000     4          
   111  O     c      2.1539 *    -6.6579 *     8.8118 *  0.0000     4          
   112  O     c      2.1539 *   -11.0638 *     0.0000    0.0000     2          
   113  O     c     -2.2520 *    -6.6579 *     8.8118 *  0.0000     4          
   114  O     c     -2.2520 *   -11.0638 *     0.0000    0.0000     2          
   115  Na    c      6.5598 *     6.5598       6.6089 *  0.0000     2          
   116  Na    c      2.1539 *    10.9657 *    -2.2030 *  0.0000     4          
   117  Na    c     10.9657 *    -2.2520 *    -2.2030 *  0.0000     4          
   118  Na    c      2.1539 *     2.1539      11.0148 *  0.0000     2          
   119  Na    c      2.1539 *    -2.2520 *    11.0148 *  0.0000     4          
   120  Na    c      6.5598 *    -6.6579 *     6.6089 *  0.0000     4          
   121  Na    c     -2.2520 *    -2.2520      11.0148 *  0.0000     2          
   122  Na    c      2.1539 *   -11.0638 *    -2.2030 *  0.0000     4          
   123  Na    c     -2.2520 *   -11.0638 *    -2.2030 *  0.0000     4          
   124  Na    c     -6.6579 *    -6.6579       6.6089 *  0.0000     2          
   125  Na    c      4.3569 *    10.9657 *     0.0000    0.0000     2          
   126  Na    c      8.7628 *     6.5598 *     4.4059 *  0.0000     4          
   127  Cl    c      4.3569 *     8.7628 *     6.6089 *  0.0000     4          
   128  Na    c     -0.0490 *    10.9657 *     4.4059 *  0.0000     4          
   129  Na    c      4.3569 *     6.5598 *     8.8118 *  0.0000     4          
   130  Na    c     -4.4550 *    10.9657 *     0.0000    0.0000     2          
   131  Cl    c     -0.0490 *     4.3569 *    11.0148 *  0.0000     4          
   132  Cl    c      8.7628 *    -4.4550 *     6.6089 *  0.0000     4          
   133  Na    c     -4.4550 *     6.5598 *     8.8118 *  0.0000     4          
   134  Na    c      8.7628 *    -6.6579 *     4.4059 *  0.0000     4          
   135  Na    c      4.3569 *    -6.6579 *     8.8118 *  0.0000     4          
   136  Na    c     -8.8609 *     6.5598 *     4.4059 *  0.0000     4          
   137  Cl    c     -0.0490 *    -4.4550 *    11.0148 *  0.0000     4          
   138  Cl    c      4.3569 *    -8.8609 *     6.6089 *  0.0000     4          
   139  Na    c      4.3569 *   -11.0638 *     0.0000    0.0000     2          
   140  Na    c     -0.0490 *   -11.0638 *     4.4059 *  0.0000     4          
   141  Na    c     -4.4550 *    -6.6579 *     8.8118 *  0.0000     4          
   142  Cl    c     -4.4550 *    -8.8609 *     6.6089 *  0.0000     4          
   143  Na    c     -4.4550 *   -11.0638 *     0.0000    0.0000     2          
   144  Na    c     -8.8609 *    -6.6579 *     4.4059 *  0.0000     4          
   145  Cl    s     -0.0490 *    -0.0490      -2.2030 *  0.0000     2          
   146  O     s     -1.8016      -1.8016       0.0000    0.0000     1    Defect
   147  O     s      2.1539 *    -2.2520 *     0.0000    0.0000     2          
   148  Cl    s     -0.0490 *     4.3569 *    -2.2030 *  0.0000     4          
   149  Cl    s     -0.0490 *    -4.4550 *    -2.2030 *  0.0000     4          
   150  O     s      2.1539 *     2.1539       4.4059 *  0.0000     2          
   151  O     s      2.1539 *    -2.2520 *     4.4059 *  0.0000     4          
   152  O     s     -2.2520 *    -2.2520       4.4059 *  0.0000     2          
   153  Cl    s      4.3569 *     4.3569      -2.2030 *  0.0000     2          
   154  Cl    s     -0.0490 *    -0.0490       6.6089 *  0.0000     2          
   155  Cl    s      4.3569 *    -4.4550 *    -2.2030 *  0.0000     4          
   156  Cl    s     -4.4550 *    -4.4550      -2.2030 *  0.0000     2          
   157  O     s      2.1539 *     6.5598 *     0.0000    0.0000     2          
   158  O     s      6.5598 *    -2.2520 *     0.0000    0.0000     2          
   159  O     s      2.1539 *    -6.6579 *     0.0000    0.0000     2          
   160  O     s     -2.2520 *    -6.6579 *     0.0000    0.0000     2          
   161  Cl    s     -0.0490 *     4.3569 *     6.6089 *  0.0000     4          
   162  Cl    s     -0.0490 *    -4.4550 *     6.6089 *  0.0000     4          
   163  O     s      2.1539 *     6.5598 *     4.4059 *  0.0000     4          
   164  O     s      6.5598 *    -2.2520 *     4.4059 *  0.0000     4          
   165  O     s      2.1539 *    -6.6579 *     4.4059 *  0.0000     4          
   166  O     s     -2.2520 *    -6.6579 *     4.4059 *  0.0000     4          
   167  Cl    s     -0.0490 *     8.7628 *    -2.2030 *  0.0000     4          
   168  Cl    s      4.3569 *     4.3569       6.6089 *  0.0000     2          
   169  Cl    s      4.3569 *    -4.4550 *     6.6089 *  0.0000     4          
   170  Cl    s     -0.0490 *    -8.8609 *    -2.2030 *  0.0000     4          
   171  Cl    s     -4.4550 *    -4.4550       6.6089 *  0.0000     2          
   172  O     s      6.5598 *     6.5598       0.0000    0.0000     1          
   173  O     s      2.1539 *     2.1539       8.8118 *  0.0000     2          
   174  O     s      2.1539 *    -2.2520 *     8.8118 *  0.0000     4          
   175  O     s      6.5598 *    -6.6579 *     0.0000    0.0000     2          
   176  O     s     -2.2520 *    -2.2520       8.8118 *  0.0000     2          
   177  O     s     -6.6579 *    -6.6579       0.0000    0.0000     1          
   178  Cl    s      4.3569 *     8.7628 *    -2.2030 *  0.0000     4          
   179  Cl    s      8.7628 *    -4.4550 *    -2.2030 *  0.0000     4          
   180  Cl    s      4.3569 *    -8.8609 *    -2.2030 *  0.0000     4          
   181  Cl    s     -4.4550 *    -8.8609 *    -2.2030 *  0.0000     4          
   182  O     s      6.5598 *     6.5598       4.4059 *  0.0000     2          
   183  O     s      6.5598 *    -6.6579 *     4.4059 *  0.0000     4          
   184  O     s     -6.6579 *    -6.6579       4.4059 *  0.0000     2          
   185  Cl    s     -0.0490 *     8.7628 *     6.6089 *  0.0000     4          
   186  Cl    s     -0.0490 *    -0.0490      11.0148 *  0.0000     2          
   187  Cl    s     -0.0490 *    -8.8609 *     6.6089 *  0.0000     4          
   188  O     s      2.1539 *    10.9657 *     0.0000    0.0000     2          
   189  O     s      2.1539 *     6.5598 *     8.8118 *  0.0000     4          
   190  O     s     10.9657 *    -2.2520 *     0.0000    0.0000     2          
   191  O     s      6.5598 *    -2.2520 *     8.8118 *  0.0000     4          
   192  O     s      2.1539 *    -6.6579 *     8.8118 *  0.0000     4          
   193  O     s      2.1539 *   -11.0638 *     0.0000    0.0000     2          
   194  O     s     -2.2520 *    -6.6579 *     8.8118 *  0.0000     4          
   195  O     s     -2.2520 *   -11.0638 *     0.0000    0.0000     2          
   196  Cl    s      4.3569 *     8.7628 *     6.6089 *  0.0000     4          
   197  Cl    s     -0.0490 *     4.3569 *    11.0148 *  0.0000     4          
   198  Cl    s      8.7628 *    -4.4550 *     6.6089 *  0.0000     4          
   199  Cl    s     -0.0490 *    -4.4550 *    11.0148 *  0.0000     4          
   200  Cl    s      4.3569 *    -8.8609 *     6.6089 *  0.0000     4          
   201  Cl    s     -4.4550 *    -8.8609 *     6.6089 *  0.0000     4          
--------------------------------------------------------------------------------


  Constraints on symmetry reduced coordinates :

--------------------------------------------------------------------------------
  Constraint no.      Unconstrained     Constrained    Coefficient    
                         Variable         Variable
--------------------------------------------------------------------------------
           1                 2 x             2 y         1.00000
           2                 6 x             6 y         1.00000
           3                 8 x             8 y         1.00000
           4                17 x            17 y         1.00000
           5                19 x            19 y         1.00000
           6                20 x            20 y         1.00000
           7                24 x            24 y         1.00000
           8                29 x            29 y         1.00000
           9                35 x            35 y         1.00000
          10                39 x            39 y         1.00000
          11                56 x            56 y         1.00000
          12                65 x            65 y         1.00000
          13                68 x            68 y         1.00000
          14                69 x            69 y         1.00000
          15                72 x            72 y         1.00000
          16                73 x            73 y         1.00000
          17                74 x            74 y         1.00000
          18                80 x            80 y         1.00000
          19                93 x            93 y         1.00000
          20                95 x            95 y         1.00000
          21               101 x           101 y         1.00000
          22               115 x           115 y         1.00000
          23               118 x           118 y         1.00000
          24               121 x           121 y         1.00000
          25               124 x           124 y         1.00000
          26               145 x           145 y         1.00000
          27               150 x           150 y         1.00000
          28               152 x           152 y         1.00000
          29               153 x           153 y         1.00000
          30               154 x           154 y         1.00000
          31               156 x           156 y         1.00000
          32               168 x           168 y         1.00000
          33               171 x           171 y         1.00000
          34               172 x           172 y         1.00000
          35               173 x           173 y         1.00000
          36               176 x           176 y         1.00000
          37               177 x           177 y         1.00000
          38               182 x           182 y         1.00000
          39               184 x           184 y         1.00000
          40               186 x           186 y         1.00000
--------------------------------------------------------------------------------


  Components of defect energy : 

--------------------------------------------------------------------------------
  Region 1 - region 1                   =     91.00469733 eV
  Region 1 - region 2a (unrelaxed)      =    -54.47353094 eV
  Region 1 - 2a (relaxed - correction)  =     -1.05734695 eV
  Region 1 (Total)                      =     35.47381943 eV
  Region 2a                             =      0.52913201 eV
  Region 2b                             =     -1.66620302 eV
--------------------------------------------------------------------------------
  Total defect energy                   =     34.33674842 eV
--------------------------------------------------------------------------------

  Largest displacement in region 2 =   0.0496 Angstroms


  Number of variables =      507

  Maximum number of calculations  =        1000
  Maximum Hessian update interval =          10
  Maximum step size               =   1.0000000
  Maximum parameter tolerance     =   0.0000100
  Maximum function  tolerance     =   0.0000100
  Maximum gradient  tolerance     =   0.0010000

  Symmetry adapted optimisation

  Symmetry to be used for second derivatives

  Newton-Raphson optimiser to be used

  BFGS hessian update to be used

  Lower half triangular hessian to be used

  Start of defect optimisation :

  Cycle:      0 Defect Energy:  34.336748  Gnorm:     0.086290  CPU:    2.778
  ** Hessian calculated **
  Cycle:      1 Defect Energy:  32.040353  Gnorm:     0.080006  CPU:    8.331
  Cycle:      2 Defect Energy:  26.339262  Gnorm:     0.045752  CPU:   13.233
  Cycle:      3 Defect Energy:  25.867918  Gnorm:     0.037215  CPU:   15.511
  ** Hessian calculated **
  Cycle:      4 Defect Energy:  23.178440  Gnorm:     0.011276  CPU:   19.817
  ** Hessian calculated **
  Cycle:      5 Defect Energy:  22.680435  Gnorm:     0.003345  CPU:   22.487
  Cycle:      6 Defect Energy:  22.613960  Gnorm:     0.001140  CPU:   22.880
  Cycle:      7 Defect Energy:  22.609488  Gnorm:     0.000831  CPU:   23.193
  Cycle:      8 Defect Energy:  22.606815  Gnorm:     0.000588  CPU:   23.508
  Cycle:      9 Defect Energy:  22.605464  Gnorm:     0.000413  CPU:   23.887
  Cycle:     10 Defect Energy:  22.604805  Gnorm:     0.000290  CPU:   24.220
  Cycle:     11 Defect Energy:  22.604493  Gnorm:     0.000203  CPU:   24.546
  Cycle:     12 Defect Energy:  22.604351  Gnorm:     0.000142  CPU:   24.895
  Cycle:     13 Defect Energy:  22.604290  Gnorm:     0.000100  CPU:   25.207
  Cycle:     14 Defect Energy:  22.604267  Gnorm:     0.000070  CPU:   25.582
  ** Hessian calculated **
  Cycle:     15 Defect Energy:  22.604260  Gnorm:     0.000049  CPU:   26.794


  **** Optimisation achieved ****


  Final defect energy  =       22.60426021
  Final defect Gnorm   =        0.00003416

  Components of defect energy : 

--------------------------------------------------------------------------------
  Region 1 - region 1                   =     71.74290156 eV
  Region 1 - region 2a (unrelaxed)      =    -47.11373215 eV
  Region 1 - 2a (relaxed - correction)  =     -0.75687029 eV
  Region 1 (Total)                      =     23.87229911 eV
  Region 2a                             =      0.37777056 eV
  Region 2b                             =     -1.64580946 eV
--------------------------------------------------------------------------------
  Total defect energy                   =     22.60426021 eV
--------------------------------------------------------------------------------

  Largest displacement in region 2 =   0.0496 Angstroms

  Final coordinates of region 1 :

--------------------------------------------------------------------------------
   No.  Atomic        x           y           z          Radius      Charge
        Label       (Angs)      (Angs)      (Angs)       (Angs)       (e) 
--------------------------------------------------------------------------------
     1  Na    c     1.972882    4.621324    0.000000    0.000000    1.000000
     2  Na    c     4.621324    1.972882    0.000000    0.000000    1.000000
     3  Cl    c     2.673763    2.673763   -1.872603    0.000000    1.485000
     4  Cl    c     2.673763    2.673763    1.872603    0.000000    1.485000
     5  Na    c     2.459262    0.143065    0.000000    0.000000    1.000000
     6  Na    c     0.143065    2.459262    0.000000    0.000000    1.000000
     7  O     c     0.450400    0.450400    0.000000    0.000000    0.183000
     8  O     c     4.580440   -0.115156    0.000000    0.000000    0.183000
     9  O     c    -0.115156    4.580440    0.000000    0.000000    0.183000
    10  Na    c     4.504204    4.504204   -2.512758    0.000000    1.000000
    11  Na    c     4.504204    4.504204    2.512758    0.000000    1.000000
    12  Na    c     4.521568   -0.145520   -2.229823    0.000000    1.000000
    13  Na    c     4.521568   -0.145520    2.229823    0.000000    1.000000
    14  Na    c    -0.145520    4.521568   -2.229823    0.000000    1.000000
    15  Na    c    -0.145520    4.521568    2.229823    0.000000    1.000000
    16  Na    c     0.183448    0.183448   -2.167966    0.000000    1.000000
    17  Na    c     0.183448    0.183448    2.167966    0.000000    1.000000
    18  Na    c     6.938759    4.455248    0.000000    0.000000    1.000000
    19  Na    c     4.455248    6.938759    0.000000    0.000000    1.000000
    20  Cl    c     2.557262    6.441769   -1.953978    0.000000    1.485000
    21  Cl    c     2.557262    6.441769    1.953978    0.000000    1.485000
    22  Cl    c     6.441769    2.557262   -1.953978    0.000000    1.485000
    23  Cl    c     6.441769    2.557262    1.953978    0.000000    1.485000
    24  Na    c     2.209501    4.428464    4.473670    0.000000    1.000000
    25  Na    c     2.209501    4.428464   -4.473670    0.000000    1.000000
    26  Na    c     4.428464    2.209501    4.473670    0.000000    1.000000
    27  Na    c     4.428464    2.209501   -4.473670    0.000000    1.000000
    28  Na    c     6.730926   -0.227179    0.000000    0.000000    1.000000
    29  Na    c    -0.227179    6.730926    0.000000    0.000000    1.000000
    30  Na    c     2.245107   -0.062117    4.519911    0.000000    1.000000
    31  Na    c     2.245107   -0.062117   -4.519911    0.000000    1.000000
    32  Na    c    -0.062117    2.245107    4.519911    0.000000    1.000000
    33  Na    c    -0.062117    2.245107   -4.519911    0.000000    1.000000
    34  Na    c    -2.277049    4.383688    0.000000    0.000000    1.000000
    35  Na    c     4.383688   -2.277049    0.000000    0.000000    1.000000
    36  Cl    c     2.262535   -2.117659   -2.191087    0.000000    1.485000
    37  Cl    c     2.262535   -2.117659    2.191087    0.000000    1.485000
    38  Cl    c    -2.117659    2.262535   -2.191087    0.000000    1.485000
    39  Cl    c    -2.117659    2.262535    2.191087    0.000000    1.485000
    40  Na    c    -2.086402    0.214627    0.000000    0.000000    1.000000
    41  Na    c     0.214627   -2.086402    0.000000    0.000000    1.000000
    42  O     c     4.434930    4.434930    4.577673    0.000000    0.183000
    43  O     c     4.434930    4.434930   -4.577673    0.000000    0.183000
    44  O     c     4.444334    0.016024    4.407655    0.000000    0.183000
    45  O     c     4.444334    0.016024   -4.407655    0.000000    0.183000
    46  O     c     0.016024    4.444334    4.407655    0.000000    0.183000
    47  O     c     0.016024    4.444334   -4.407655    0.000000    0.183000
    48  O     c     0.069977    0.069977    4.370691    0.000000    0.183000
    49  O     c     0.069977    0.069977   -4.370691    0.000000    0.183000
    50  Cl    c     6.376627    6.376627   -1.896701    0.000000    1.485000
    51  Cl    c     6.376627    6.376627    1.896701    0.000000    1.485000
    52  Na    c     2.189273    8.948051    0.000000    0.000000    1.000000
    53  Na    c     8.948051    2.189273    0.000000    0.000000    1.000000
    54  Na    c     6.647815    4.415325    4.603282    0.000000    1.000000
    55  Na    c     6.647815    4.415325   -4.603282    0.000000    1.000000
    56  Na    c     4.415325    6.647815    4.603282    0.000000    1.000000
    57  Na    c     4.415325    6.647815   -4.603282    0.000000    1.000000
    58  Na    c     6.640173   -0.069248    4.503932    0.000000    1.000000
    59  Na    c     6.640173   -0.069248   -4.503932    0.000000    1.000000
    60  Na    c    -0.069248    6.640173    4.503932    0.000000    1.000000
    61  Na    c    -0.069248    6.640173   -4.503932    0.000000    1.000000
    62  Cl    c     2.213371    2.213371    6.573849    0.000000    1.485000
    63  Cl    c     2.213371    2.213371   -6.573849    0.000000    1.485000
    64  Cl    c     6.668336   -2.182724   -2.234074    0.000000    1.485000
    65  Cl    c     6.668336   -2.182724    2.234074    0.000000    1.485000
    66  Cl    c    -2.182724    6.668336   -2.234074    0.000000    1.485000
    67  Cl    c    -2.182724    6.668336    2.234074    0.000000    1.485000
    68  Na    c    -2.219515    4.428121    4.460695    0.000000    1.000000
    69  Na    c    -2.219515    4.428121   -4.460695    0.000000    1.000000
    70  Na    c     4.428121   -2.219515    4.460695    0.000000    1.000000
    71  Na    c     4.428121   -2.219515   -4.460695    0.000000    1.000000
    72  Na    c     2.231026   -4.512878    0.000000    0.000000    1.000000
    73  Na    c    -4.512878    2.231026    0.000000    0.000000    1.000000
    74  Na    c    -2.162294    0.001058    4.319867    0.000000    1.000000
    75  Na    c    -2.162294    0.001058   -4.319867    0.000000    1.000000
    76  Na    c     0.001058   -2.162294    4.319867    0.000000    1.000000
    77  Na    c     0.001058   -2.162294   -4.319867    0.000000    1.000000
    78  Cl    c    -2.002435   -2.002435   -2.067275    0.000000    1.485000
    79  Cl    c    -2.002435   -2.002435    2.067275    0.000000    1.485000
    80  O     c     4.421804    8.992086    0.000000    0.000000    0.183000
    81  O     c     8.992086    4.421804    0.000000    0.000000    0.183000
    82  O     c     8.876140   -0.011281    0.000000    0.000000    0.183000
    83  O     c    -0.011281    8.876140    0.000000    0.000000    0.183000
    84  O     c     4.432676   -4.436999    0.000000    0.000000    0.183000
    85  O     c    -4.436999    4.432676    0.000000    0.000000    0.183000
    86  O     c     0.054436   -4.343941    0.000000    0.000000    0.183000
    87  O     c    -4.343941    0.054436    0.000000    0.000000    0.183000
    88  Na    c     4.397091    8.930165   -2.227938    0.000000    1.000000
    89  Na    c     4.397091    8.930165    2.227938    0.000000    1.000000
    90  Na    c     8.930165    4.397091   -2.227938    0.000000    1.000000
    91  Na    c     8.930165    4.397091    2.227938    0.000000    1.000000
    92  Na    c     4.353344    4.353344    6.712655    0.000000    1.000000
    93  Na    c     4.353344    4.353344   -6.712655    0.000000    1.000000
    94  Na    c     8.918586   -0.064180   -2.210554    0.000000    1.000000
    95  Na    c     8.918586   -0.064180    2.210554    0.000000    1.000000
    96  Na    c    -0.064180    8.918586   -2.210554    0.000000    1.000000
    97  Na    c    -0.064180    8.918586    2.210554    0.000000    1.000000
    98  Na    c     4.437702    0.016031    6.636000    0.000000    1.000000
    99  Na    c     4.437702    0.016031   -6.636000    0.000000    1.000000
   100  Na    c     0.016031    4.437702    6.636000    0.000000    1.000000
   101  Na    c     0.016031    4.437702   -6.636000    0.000000    1.000000
   102  Na    c     4.423733   -4.454849   -2.209900    0.000000    1.000000
   103  Na    c     4.423733   -4.454849    2.209900    0.000000    1.000000
   104  Na    c    -4.454849    4.423733   -2.209900    0.000000    1.000000
   105  Na    c    -4.454849    4.423733    2.209900    0.000000    1.000000
   106  Na    c    -0.023244   -0.023244    6.599332    0.000000    1.000000
   107  Na    c    -0.023244   -0.023244   -6.599332    0.000000    1.000000
   108  Na    c     0.017824   -4.377237   -2.188573    0.000000    1.000000
   109  Na    c     0.017824   -4.377237    2.188573    0.000000    1.000000
   110  Na    c    -4.377237    0.017824   -2.188573    0.000000    1.000000
   111  Na    c    -4.377237    0.017824    2.188573    0.000000    1.000000
   112  Na    c     6.642284    8.968722    0.000000    0.000000    1.000000
   113  Na    c     8.968722    6.642284    0.000000    0.000000    1.000000
   114  Na    c     2.204896    8.873066    4.474213    0.000000    1.000000
   115  Na    c     2.204896    8.873066   -4.474213    0.000000    1.000000
   116  Na    c     8.873066    2.204896    4.474213    0.000000    1.000000
   117  Na    c     8.873066    2.204896   -4.474213    0.000000    1.000000
   118  Cl    c     2.194764    6.638067    6.581026    0.000000    1.485000
   119  Cl    c     2.194764    6.638067   -6.581026    0.000000    1.485000
   120  Cl    c     6.638067    2.194764    6.581026    0.000000    1.485000
   121  Cl    c     6.638067    2.194764   -6.581026    0.000000    1.485000
   122  Na    c    -2.240467    8.953295    0.000000    0.000000    1.000000
   123  Na    c     8.953295   -2.240467    0.000000    0.000000    1.000000
   124  Na    c     6.636966   -4.423112    0.000000    0.000000    1.000000
   125  Na    c    -4.423112    6.636966    0.000000    0.000000    1.000000
   126  Cl    c     2.232147   -2.159203    6.573797    0.000000    1.485000
   127  Cl    c     2.232147   -2.159203   -6.573797    0.000000    1.485000
   128  Cl    c    -2.159203    2.232147    6.573797    0.000000    1.485000
   129  Cl    c    -2.159203    2.232147   -6.573797    0.000000    1.485000
   130  Na    c     2.207267   -4.407219    4.419293    0.000000    1.000000
   131  Na    c     2.207267   -4.407219   -4.419293    0.000000    1.000000
   132  Na    c    -4.407219    2.207267    4.419293    0.000000    1.000000
   133  Na    c    -4.407219    2.207267   -4.419293    0.000000    1.000000
   134  Na    c    -2.153210   -4.298456    0.000000    0.000000    1.000000
   135  Na    c    -4.298456   -2.153210    0.000000    0.000000    1.000000
   136  O     c     4.414388    8.828235    4.419790    0.000000    0.183000
   137  O     c     4.414388    8.828235   -4.419790    0.000000    0.183000
   138  O     c     8.828235    4.414388    4.419790    0.000000    0.183000
   139  O     c     8.828235    4.414388   -4.419790    0.000000    0.183000
   140  O     c     8.817341    0.016330    4.395894    0.000000    0.183000
   141  O     c     8.817341    0.016330   -4.395894    0.000000    0.183000
   142  O     c     0.016330    8.817341    4.395894    0.000000    0.183000
   143  O     c     0.016330    8.817341   -4.395894    0.000000    0.183000
   144  O     c     4.413569   -4.405481    4.405547    0.000000    0.183000
   145  O     c     4.413569   -4.405481   -4.405547    0.000000    0.183000
   146  O     c    -4.405481    4.413569    4.405547    0.000000    0.183000
   147  O     c    -4.405481    4.413569   -4.405547    0.000000    0.183000
   148  O     c     0.008683   -4.372527    4.384036    0.000000    0.183000
   149  O     c     0.008683   -4.372527   -4.384036    0.000000    0.183000
   150  O     c    -4.372527    0.008683    4.384036    0.000000    0.183000
   151  O     c    -4.372527    0.008683   -4.384036    0.000000    0.183000
   152  Na    c     6.618164    8.895286    4.470352    0.000000    1.000000
   153  Na    c     6.618164    8.895286   -4.470352    0.000000    1.000000
   154  Na    c     8.895286    6.618164    4.470352    0.000000    1.000000
   155  Na    c     8.895286    6.618164   -4.470352    0.000000    1.000000
   156  Na    c    11.115370    4.407049    0.000000    0.000000    1.000000
   157  Na    c     4.407049   11.115370    0.000000    0.000000    1.000000
   158  Cl    c     2.200353   11.005725   -2.220109    0.000000    1.485000
   159  Cl    c     2.200353   11.005725    2.220109    0.000000    1.485000
   160  Cl    c    11.005725    2.200353   -2.220109    0.000000    1.485000
   161  Cl    c    11.005725    2.200353    2.220109    0.000000    1.485000
   162  Cl    c     6.641364    6.641364    6.587634    0.000000    1.485000
   163  Cl    c     6.641364    6.641364   -6.587634    0.000000    1.485000
   164  Na    c    11.069129   -0.016255    0.000000    0.000000    1.000000
   165  Na    c    -0.016255   11.069129    0.000000    0.000000    1.000000
   166  Na    c     2.195428    4.406421    8.917587    0.000000    1.000000
   167  Na    c     2.195428    4.406421   -8.917587    0.000000    1.000000
   168  Na    c     4.406421    2.195428    8.917587    0.000000    1.000000
   169  Na    c     4.406421    2.195428   -8.917587    0.000000    1.000000
   170  Na    c    -2.217309    8.837840    4.413836    0.000000    1.000000
   171  Na    c    -2.217309    8.837840   -4.413836    0.000000    1.000000
   172  Na    c     8.837840   -2.217309    4.413836    0.000000    1.000000
   173  Na    c     8.837840   -2.217309   -4.413836    0.000000    1.000000
   174  Cl    c     6.608839   -2.168505    6.585613    0.000000    1.485000
   175  Cl    c     6.608839   -2.168505   -6.585613    0.000000    1.485000
   176  Cl    c    -2.168505    6.608839    6.585613    0.000000    1.485000
   177  Cl    c    -2.168505    6.608839   -6.585613    0.000000    1.485000
   178  Na    c     2.201301   -0.008239    8.820921    0.000000    1.000000
   179  Na    c     2.201301   -0.008239   -8.820921    0.000000    1.000000
   180  Na    c    -0.008239    2.201301    8.820921    0.000000    1.000000
   181  Na    c    -0.008239    2.201301   -8.820921    0.000000    1.000000
   182  Na    c     6.621114   -4.441728    4.413226    0.000000    1.000000
   183  Na    c     6.621114   -4.441728   -4.413226    0.000000    1.000000
   184  Na    c    -4.441728    6.621114    4.413226    0.000000    1.000000
   185  Na    c    -4.441728    6.621114   -4.413226    0.000000    1.000000
   186  Na    c    -6.635542    4.465221    0.000000    0.000000    1.000000
   187  Na    c     4.465221   -6.635542    0.000000    0.000000    1.000000
   188  Cl    c     2.211934   -6.581472   -2.200426    0.000000    1.485000
   189  Cl    c     2.211934   -6.581472    2.200426    0.000000    1.485000
   190  Cl    c    -6.581472    2.211934   -2.200426    0.000000    1.485000
   191  Cl    c    -6.581472    2.211934    2.200426    0.000000    1.485000
   192  Cl    c    -2.164226   -2.164226    6.556655    0.000000    1.485000
   193  Cl    c    -2.164226   -2.164226   -6.556655    0.000000    1.485000
   194  Na    c    -6.588865   -0.050017    0.000000    0.000000    1.000000
   195  Na    c    -0.050017   -6.588865    0.000000    0.000000    1.000000
   196  Na    c    -2.194361   -4.434147    4.426976    0.000000    1.000000
   197  Na    c    -2.194361   -4.434147   -4.426976    0.000000    1.000000
   198  Na    c    -4.434147   -2.194361    4.426976    0.000000    1.000000
   199  Na    c    -4.434147   -2.194361   -4.426976    0.000000    1.000000
   200  O     c     8.833576    8.833576    0.000000    0.000000    0.183000
   201  O     c     4.406342    4.406342    8.861417    0.000000    0.183000
   202  O     c     4.406342    4.406342   -8.861417    0.000000    0.183000
   203  O     c     4.412044    0.001812    8.820063    0.000000    0.183000
   204  O     c     4.412044    0.001812   -8.820063    0.000000    0.183000
   205  O     c     0.001812    4.412044    8.820063    0.000000    0.183000
   206  O     c     0.001812    4.412044   -8.820063    0.000000    0.183000
   207  O     c     8.835448   -4.417583    0.000000    0.000000    0.183000
   208  O     c    -4.417583    8.835448    0.000000    0.000000    0.183000
   209  O     c    -0.000165   -0.000165    8.802261    0.000000    0.183000
   210  O     c    -0.000165   -0.000165   -8.802261    0.000000    0.183000
   211  O     c    -4.366624   -4.366624    0.000000    0.000000    0.183000
   212  Na    c     8.880152    8.880152   -2.207595    0.000000    1.000000
   213  Na    c     8.880152    8.880152    2.207595    0.000000    1.000000
   214  Na    c     4.415717    8.868135    6.635238    0.000000    1.000000
   215  Na    c     4.415717    8.868135   -6.635238    0.000000    1.000000
   216  Na    c     8.868135    4.415717    6.635238    0.000000    1.000000
   217  Na    c     8.868135    4.415717   -6.635238    0.000000    1.000000
   218  Na    c     8.835521   -0.025454    6.619604    0.000000    1.000000
   219  Na    c     8.835521   -0.025454   -6.619604    0.000000    1.000000
   220  Na    c    -0.025454    8.835521    6.619604    0.000000    1.000000
   221  Na    c    -0.025454    8.835521   -6.619604    0.000000    1.000000
   222  Na    c     8.823184   -4.439621   -2.210500    0.000000    1.000000
   223  Na    c     8.823184   -4.439621    2.210500    0.000000    1.000000
   224  Na    c    -4.439621    8.823184   -2.210500    0.000000    1.000000
   225  Na    c    -4.439621    8.823184    2.210500    0.000000    1.000000
   226  Na    c     4.420154   -4.443940    6.611827    0.000000    1.000000
   227  Na    c     4.420154   -4.443940   -6.611827    0.000000    1.000000
   228  Na    c    -4.443940    4.420154    6.611827    0.000000    1.000000
   229  Na    c    -4.443940    4.420154   -6.611827    0.000000    1.000000
   230  Na    c    -0.012202   -4.375658    6.596398    0.000000    1.000000
   231  Na    c    -0.012202   -4.375658   -6.596398    0.000000    1.000000
   232  Na    c    -4.375658   -0.012202    6.596398    0.000000    1.000000
   233  Na    c    -4.375658   -0.012202   -6.596398    0.000000    1.000000
   234  Na    c    -4.429229   -4.429229   -2.194856    0.000000    1.000000
   235  Na    c    -4.429229   -4.429229    2.194856    0.000000    1.000000
   236  Cl    c     6.639846   10.994183   -2.219896    0.000000    1.485000
   237  Cl    c     6.639846   10.994183    2.219896    0.000000    1.485000
   238  Cl    c    10.994183    6.639846   -2.219896    0.000000    1.485000
   239  Cl    c    10.994183    6.639846    2.219896    0.000000    1.485000
   240  Na    c    11.039276    4.391363    4.427533    0.000000    1.000000
   241  Na    c    11.039276    4.391363   -4.427533    0.000000    1.000000
   242  Na    c     4.391363   11.039276    4.427533    0.000000    1.000000
   243  Na    c     4.391363   11.039276   -4.427533    0.000000    1.000000
   244  Na    c     6.613201    4.402379    8.844726    0.000000    1.000000
   245  Na    c     6.613201    4.402379   -8.844726    0.000000    1.000000
   246  Na    c     4.402379    6.613201    8.844726    0.000000    1.000000
   247  Na    c     4.402379    6.613201   -8.844726    0.000000    1.000000
   248  Na    c    11.029920   -0.005549    4.422649    0.000000    1.000000
   249  Na    c    11.029920   -0.005549   -4.422649    0.000000    1.000000
   250  Na    c    -0.005549   11.029920    4.422649    0.000000    1.000000
   251  Na    c    -0.005549   11.029920   -4.422649    0.000000    1.000000
   252  Cl    c    11.012939   -2.181615   -2.197458    0.000000    1.485000
   253  Cl    c    11.012939   -2.181615    2.197458    0.000000    1.485000
   254  Cl    c    -2.181615   11.012939   -2.197458    0.000000    1.485000
   255  Cl    c    -2.181615   11.012939    2.197458    0.000000    1.485000
   256  Na    c     6.615309   -0.014552    8.836824    0.000000    1.000000
   257  Na    c     6.615309   -0.014552   -8.836824    0.000000    1.000000
   258  Na    c    -0.014552    6.615309    8.836824    0.000000    1.000000
   259  Na    c    -0.014552    6.615309   -8.836824    0.000000    1.000000
   260  Na    c    -2.207886    4.397212    8.810747    0.000000    1.000000
   261  Na    c    -2.207886    4.397212   -8.810747    0.000000    1.000000
   262  Na    c     4.397212   -2.207886    8.810747    0.000000    1.000000
   263  Na    c     4.397212   -2.207886   -8.810747    0.000000    1.000000
   264  Cl    c     6.617348   -6.586058   -2.201454    0.000000    1.485000
   265  Cl    c     6.617348   -6.586058    2.201454    0.000000    1.485000
   266  Cl    c    -6.586058    6.617348   -2.201454    0.000000    1.485000
   267  Cl    c    -6.586058    6.617348    2.201454    0.000000    1.485000
   268  Na    c    -6.618066    4.389894    4.408962    0.000000    1.000000
   269  Na    c    -6.618066    4.389894   -4.408962    0.000000    1.000000
   270  Na    c     4.389894   -6.618066    4.408962    0.000000    1.000000
   271  Na    c     4.389894   -6.618066   -4.408962    0.000000    1.000000
   272  Na    c    -2.202650   -0.005308    8.825732    0.000000    1.000000
   273  Na    c    -2.202650   -0.005308   -8.825732    0.000000    1.000000
   274  Na    c    -0.005308   -2.202650    8.825732    0.000000    1.000000
   275  Na    c    -0.005308   -2.202650   -8.825732    0.000000    1.000000
   276  Na    c    -6.600612    0.012806    4.392184    0.000000    1.000000
   277  Na    c    -6.600612    0.012806   -4.392184    0.000000    1.000000
   278  Na    c     0.012806   -6.600612    4.392184    0.000000    1.000000
   279  Na    c     0.012806   -6.600612   -4.392184    0.000000    1.000000
   280  Cl    c    -2.183288   -6.562324   -2.193113    0.000000    1.485000
   281  Cl    c    -2.183288   -6.562324    2.193113    0.000000    1.485000
   282  Cl    c    -6.562324   -2.183288   -2.193113    0.000000    1.485000
   283  Cl    c    -6.562324   -2.183288    2.193113    0.000000    1.485000
   284  O     c     8.809433    8.809433    4.394836    0.000000    0.183000
   285  O     c     8.809433    8.809433   -4.394836    0.000000    0.183000
   286  O     c     8.823773   -4.413840    4.410780    0.000000    0.183000
   287  O     c     8.823773   -4.413840   -4.410780    0.000000    0.183000
   288  O     c    -4.413840    8.823773    4.410780    0.000000    0.183000
   289  O     c    -4.413840    8.823773   -4.410780    0.000000    0.183000
   290  O     c    -4.394196   -4.394196    4.391313    0.000000    0.183000
   291  O     c    -4.394196   -4.394196   -4.391313    0.000000    0.183000
   292  Na    c    11.043519    8.846328    0.000000    0.000000    1.000000
   293  Na    c     8.846328   11.043519    0.000000    0.000000    1.000000
   294  Na    c     2.197856   13.277318    0.000000    0.000000    1.000000
   295  Na    c    13.277318    2.197856    0.000000    0.000000    1.000000
   296  Cl    c     2.219264   10.999731    6.589996    0.000000    1.485000
   297  Cl    c     2.219264   10.999731   -6.589996    0.000000    1.485000
   298  Cl    c    10.999731    2.219264    6.589996    0.000000    1.485000
   299  Cl    c    10.999731    2.219264   -6.589996    0.000000    1.485000
   300  Na    c     2.199528    8.809672    8.833618    0.000000    1.000000
   301  Na    c     2.199528    8.809672   -8.833618    0.000000    1.000000
   302  Na    c     8.809672    2.199528    8.833618    0.000000    1.000000
   303  Na    c     8.809672    2.199528   -8.833618    0.000000    1.000000
   304  Na    c    11.033093   -4.475844    0.000000    0.000000    1.000000
   305  Na    c    -4.475844   11.033093    0.000000    0.000000    1.000000
   306  Cl    c     2.203223    2.203223   10.989123    0.000000    1.485000
   307  Cl    c     2.203223    2.203223  -10.989123    0.000000    1.485000
   308  Na    c    -6.625843    8.807435    0.000000    0.000000    1.000000
   309  Na    c     8.807435   -6.625843    0.000000    0.000000    1.000000
   310  Na    c     2.202034   -4.423636    8.819083    0.000000    1.000000
   311  Na    c     2.202034   -4.423636   -8.819083    0.000000    1.000000
   312  Na    c    -4.423636    2.202034    8.819083    0.000000    1.000000
   313  Na    c    -4.423636    2.202034   -8.819083    0.000000    1.000000
   314  Cl    c     2.209185   -6.580200    6.591369    0.000000    1.485000
   315  Cl    c     2.209185   -6.580200   -6.591369    0.000000    1.485000
   316  Cl    c    -6.580200    2.209185    6.591369    0.000000    1.485000
   317  Cl    c    -6.580200    2.209185   -6.591369    0.000000    1.485000
   318  Na    c     2.200571   -8.801015    0.000000    0.000000    1.000000
   319  Na    c    -8.801015    2.200571    0.000000    0.000000    1.000000
   320  Na    c    -6.598502   -4.371049    0.000000    0.000000    1.000000
   321  Na    c    -4.371049   -6.598502    0.000000    0.000000    1.000000
   322  O     c     4.408091   13.257498    0.000000    0.000000    0.183000
   323  O     c    13.257498    4.408091    0.000000    0.000000    0.183000
   324  O     c     4.409150    8.811232    8.811644    0.000000    0.183000
   325  O     c     4.409150    8.811232   -8.811644    0.000000    0.183000
   326  O     c     8.811232    4.409150    8.811644    0.000000    0.183000
   327  O     c     8.811232    4.409150   -8.811644    0.000000    0.183000
   328  O     c    13.235322    0.002675    0.000000    0.000000    0.183000
   329  O     c     0.002675   13.235322    0.000000    0.000000    0.183000
   330  O     c     8.812763   -0.001228    8.810030    0.000000    0.183000
   331  O     c     8.812763   -0.001228   -8.810030    0.000000    0.183000
   332  O     c    -0.001228    8.812763    8.810030    0.000000    0.183000
   333  O     c    -0.001228    8.812763   -8.810030    0.000000    0.183000
   334  O     c     4.406703   -4.402643    8.805921    0.000000    0.183000
   335  O     c     4.406703   -4.402643   -8.805921    0.000000    0.183000
   336  O     c    -4.402643    4.406703    8.805921    0.000000    0.183000
   337  O     c    -4.402643    4.406703   -8.805921    0.000000    0.183000
   338  O     c     4.411938   -8.816594    0.000000    0.000000    0.183000
   339  O     c    -8.816594    4.411938    0.000000    0.000000    0.183000
   340  O     c     0.002242   -4.396533    8.802592    0.000000    0.183000
   341  O     c     0.002242   -4.396533   -8.802592    0.000000    0.183000
   342  O     c    -4.396533    0.002242    8.802592    0.000000    0.183000
   343  O     c    -4.396533    0.002242   -8.802592    0.000000    0.183000
   344  O     c    -0.003964   -8.797095    0.000000    0.000000    0.183000
   345  O     c    -8.797095   -0.003964    0.000000    0.000000    0.183000
   346  Na    c     8.810542    8.810542    6.620552    0.000000    1.000000
   347  Na    c     8.810542    8.810542   -6.620552    0.000000    1.000000
   348  Na    c     4.402730   13.270858   -2.211102    0.000000    1.000000
   349  Na    c     4.402730   13.270858    2.211102    0.000000    1.000000
   350  Na    c    13.270858    4.402730   -2.211102    0.000000    1.000000
   351  Na    c    13.270858    4.402730    2.211102    0.000000    1.000000
   352  Na    c    13.250872   -0.014593   -2.208800    0.000000    1.000000
   353  Na    c    13.250872   -0.014593    2.208800    0.000000    1.000000
   354  Na    c    -0.014593   13.250872   -2.208800    0.000000    1.000000
   355  Na    c    -0.014593   13.250872    2.208800    0.000000    1.000000
   356  Na    c     4.425450    4.425450   11.045193    0.000000    1.000000
   357  Na    c     4.425450    4.425450  -11.045193    0.000000    1.000000
   358  Na    c     4.401760   -0.040058   11.026772    0.000000    1.000000
   359  Na    c     4.401760   -0.040058  -11.026772    0.000000    1.000000
   360  Na    c    -0.040058    4.401760   11.026772    0.000000    1.000000
   361  Na    c    -0.040058    4.401760  -11.026772    0.000000    1.000000
   362  Na    c     8.812817   -4.421843    6.616202    0.000000    1.000000
   363  Na    c     8.812817   -4.421843   -6.616202    0.000000    1.000000
   364  Na    c    -4.421843    8.812817    6.616202    0.000000    1.000000
   365  Na    c    -4.421843    8.812817   -6.616202    0.000000    1.000000
   366  Na    c    -0.003560   -0.003560   11.017903    0.000000    1.000000
   367  Na    c    -0.003560   -0.003560  -11.017903    0.000000    1.000000
   368  Na    c     4.402196   -8.842611   -2.205469    0.000000    1.000000
   369  Na    c     4.402196   -8.842611    2.205469    0.000000    1.000000
   370  Na    c    -8.842611    4.402196   -2.205469    0.000000    1.000000
   371  Na    c    -8.842611    4.402196    2.205469    0.000000    1.000000
   372  Na    c    -0.002988   -8.827347   -2.203164    0.000000    1.000000
   373  Na    c    -0.002988   -8.827347    2.203164    0.000000    1.000000
   374  Na    c    -8.827347   -0.002988   -2.203164    0.000000    1.000000
[...]
    121 y          0.000000     -0.003560    -0.003560    Cartesian    0.00
    121 z         11.014756     11.017903     0.003147    Cartesian    0.03
    122 x          4.405902      4.402196    -0.003706    Cartesian   -0.08
    122 y         -8.811805     -8.842611    -0.030806    Cartesian    0.35
    122 z         -2.202951     -2.205469    -0.002518    Cartesian    0.11
    123 x          0.000000     -0.002988    -0.002988    Cartesian    0.00
    123 y         -8.811805     -8.827347    -0.015542    Cartesian    0.18
    123 z         -2.202951     -2.203164    -0.000213    Cartesian    0.01
    124 x         -4.405902     -4.410956    -0.005053    Cartesian    0.11
    124 y         -4.405902     -4.410956    -0.005053    Cartesian    0.11
    124 z          6.608853      6.609255     0.000402    Cartesian    0.01
    125 x          6.608853      6.618078     0.009225    Cartesian    0.14
    125 y         13.217707     13.282859     0.065152    Cartesian    0.49
    125 z          0.000000      0.000000     0.000000    Cartesian    0.00
    126 x         11.014756     11.028580     0.013824    Cartesian    0.13
    126 y          8.811805      8.834059     0.022255    Cartesian    0.25
    126 z          4.405902      4.426097     0.020194    Cartesian    0.46
    127 x          6.608853      6.600509    -0.008344    Cartesian   -0.13
    127 y         11.014756     10.990896    -0.023860    Cartesian   -0.22
    127 z          6.608853      6.585480    -0.023373    Cartesian   -0.35
    128 x          2.202951      2.198811    -0.004140    Cartesian   -0.19
    128 y         13.217707     13.253029     0.035322    Cartesian    0.27
    128 z          4.405902      4.418789     0.012887    Cartesian    0.29
    129 x          6.608853      6.614058     0.005205    Cartesian    0.08
    129 y          8.811805      8.819915     0.008111    Cartesian    0.09
    129 z          8.811805      8.847309     0.035504    Cartesian    0.40
    130 x         -2.202951     -2.212734    -0.009783    Cartesian    0.44
    130 y         13.217707     13.257694     0.039987    Cartesian    0.30
    130 z          0.000000      0.000000     0.000000    Cartesian    0.00
    131 x          2.202951      2.206486     0.003535    Cartesian    0.16
    131 y          6.608853      6.608980     0.000126    Cartesian    0.00
    131 z         11.014756     10.980208    -0.034548    Cartesian   -0.31
    132 x         11.014756     10.988563    -0.026193    Cartesian   -0.24
    132 y         -2.202951     -2.172829     0.030122    Cartesian   -1.37
    132 z          6.608853      6.585646    -0.023207    Cartesian   -0.35
    133 x         -2.202951     -2.209102    -0.006151    Cartesian    0.28
    133 y          8.811805      8.827921     0.016116    Cartesian    0.18
    133 z          8.811805      8.840575     0.028770    Cartesian    0.33
    134 x         11.014756     11.024764     0.010008    Cartesian    0.09
    134 y         -4.405902     -4.438686    -0.032784    Cartesian    0.74
    134 z          4.405902      4.424617     0.018714    Cartesian    0.42
    135 x          6.608853      6.611292     0.002439    Cartesian    0.04
    135 y         -4.405902     -4.425268    -0.019366    Cartesian    0.44
    135 z          8.811805      8.841796     0.029992    Cartesian    0.34
    136 x         -6.608853     -6.621828    -0.012975    Cartesian    0.20
    136 y          8.811805      8.830606     0.018801    Cartesian    0.21
    136 z          4.405902      4.419934     0.014032    Cartesian    0.32
    137 x          2.202951      2.207485     0.004533    Cartesian    0.21
    137 y         -2.202951     -2.186287     0.016664    Cartesian   -0.76
    137 z         11.014756     10.979763    -0.034993    Cartesian   -0.32
    138 x          6.608853      6.600641    -0.008213    Cartesian   -0.12
    138 y         -6.608853     -6.577190     0.031663    Cartesian   -0.48
    138 z          6.608853      6.596316    -0.012538    Cartesian   -0.19
    139 x          6.608853      6.615844     0.006991    Cartesian    0.11
    139 y         -8.811805     -8.866204    -0.054399    Cartesian    0.62
    139 z          0.000000      0.000000     0.000000    Cartesian    0.00
    140 x          2.202951      2.200946    -0.002006    Cartesian   -0.09
    140 y         -8.811805     -8.847941    -0.036136    Cartesian    0.41
    140 z          4.405902      4.420212     0.014310    Cartesian    0.32
    141 x         -2.202951     -2.204832    -0.001880    Cartesian    0.09
    141 y         -4.405902     -4.425718    -0.019816    Cartesian    0.45
    141 z          8.811805      8.831905     0.020101    Cartesian    0.23
    142 x         -2.202951     -2.192157     0.010794    Cartesian   -0.49
    142 y         -6.608853     -6.567503     0.041350    Cartesian   -0.63
    142 z          6.608853      6.583577    -0.025277    Cartesian   -0.38
    143 x         -2.202951     -2.207607    -0.004656    Cartesian    0.21
    143 y         -8.811805     -8.849705    -0.037900    Cartesian    0.43
    143 z          0.000000      0.000000     0.000000    Cartesian    0.00
    144 x         -6.608853     -6.613143    -0.004289    Cartesian    0.06
    144 y         -4.405902     -4.418876    -0.012974    Cartesian    0.29
    144 z          4.405902      4.413428     0.007526    Cartesian    0.17
    145 x          2.202951      2.710686     0.507735    Cartesian   23.05
    145 y          2.202951      2.710686     0.507735    Cartesian   23.05
    145 z         -2.202951     -1.850559     0.352392    Cartesian  -16.00
    146 x          0.450400      0.450400     0.000000    Cartesian    0.00
    146 y          0.450400      0.450400     0.000000    Cartesian    0.00
    146 z          0.000000      0.000000     0.000000    Cartesian    0.00
    147 x          4.405902      4.580372     0.174470    Cartesian    3.96
    147 y          0.000000     -0.115011    -0.115011    Cartesian    0.00
    147 z          0.000000      0.000000     0.000000    Cartesian    0.00
    148 x          2.202951      2.589730     0.386779    Cartesian   17.56
    148 y          6.608853      6.415149    -0.193704    Cartesian   -2.93
    148 z         -2.202951     -1.920582     0.282369    Cartesian  -12.82
    149 x          2.202951      2.263906     0.060955    Cartesian    2.77
    149 y         -2.202951     -2.109875     0.093076    Cartesian   -4.23
    149 z         -2.202951     -2.188080     0.014871    Cartesian   -0.68
    150 x          4.405902      4.434944     0.029042    Cartesian    0.66
    150 y          4.405902      4.434944     0.029042    Cartesian    0.66
    150 z          4.405902      4.577537     0.171635    Cartesian    3.90
    151 x          4.405902      4.444347     0.038444    Cartesian    0.87
    151 y          0.000000      0.016011     0.016011    Cartesian    0.00
    151 z          4.405902      4.407664     0.001762    Cartesian    0.04
    152 x          0.000000      0.070002     0.070002    Cartesian    0.00
    152 y          0.000000      0.070002     0.070002    Cartesian    0.00
    152 z          4.405902      4.370704    -0.035198    Cartesian   -0.80
    153 x          6.608853      6.343328    -0.265525    Cartesian   -4.02
    153 y          6.608853      6.343328    -0.265525    Cartesian   -4.02
    153 z         -2.202951     -1.863138     0.339813    Cartesian  -15.43
    154 x          2.202951      2.215925     0.012974    Cartesian    0.59
    154 y          2.202951      2.215925     0.012974    Cartesian    0.59
    154 z          6.608853      6.565190    -0.043663    Cartesian   -0.66
    155 x          6.608853      6.667411     0.058558    Cartesian    0.89
    155 y         -2.202951     -2.171976     0.030975    Cartesian   -1.41
    155 z         -2.202951     -2.233309    -0.030358    Cartesian    1.38
    156 x         -2.202951     -1.992253     0.210698    Cartesian   -9.56
    156 y         -2.202951     -1.992253     0.210698    Cartesian   -9.56
    156 z         -2.202951     -2.062031     0.140920    Cartesian   -6.40
    157 x          4.405902      4.421816     0.015913    Cartesian    0.36
    157 y          8.811805      8.991942     0.180137    Cartesian    2.04
    157 z          0.000000      0.000000     0.000000    Cartesian    0.00
    158 x          8.811805      8.876135     0.064330    Cartesian    0.73
    158 y          0.000000     -0.011314    -0.011314    Cartesian    0.00
    158 z          0.000000      0.000000     0.000000    Cartesian    0.00
    159 x          4.405902      4.432668     0.026765    Cartesian    0.61
    159 y         -4.405902     -4.436968    -0.031066    Cartesian    0.71
    159 z          0.000000      0.000000     0.000000    Cartesian    0.00
    160 x          0.000000      0.054458     0.054458    Cartesian    0.00
    160 y         -4.405902     -4.343995     0.061907    Cartesian   -1.41
    160 z          0.000000      0.000000     0.000000    Cartesian    0.00
    161 x          2.202951      2.196315    -0.006636    Cartesian   -0.30
    161 y          6.608853      6.638541     0.029688    Cartesian    0.45
    161 z          6.608853      6.571291    -0.037562    Cartesian   -0.57
    162 x          2.202951      2.236044     0.033093    Cartesian    1.50
    162 y         -2.202951     -2.150388     0.052563    Cartesian   -2.39
    162 z          6.608853      6.565993    -0.042860    Cartesian   -0.65
    163 x          4.405902      4.414387     0.008485    Cartesian    0.19
    163 y          8.811805      8.828255     0.016450    Cartesian    0.19
    163 z          4.405902      4.419820     0.013918    Cartesian    0.32
    164 x          8.811805      8.817340     0.005535    Cartesian    0.06
    164 y          0.000000      0.016337     0.016337    Cartesian    0.00
    164 z          4.405902      4.395897    -0.010005    Cartesian   -0.23
    165 x          4.405902      4.413569     0.007666    Cartesian    0.17
    165 y         -4.405902     -4.405473     0.000430    Cartesian   -0.01
    165 z          4.405902      4.405549    -0.000353    Cartesian   -0.01
    166 x          0.000000      0.008687     0.008687    Cartesian    0.00
    166 y         -4.405902     -4.372527     0.033375    Cartesian   -0.76
    166 z          4.405902      4.384020    -0.021882    Cartesian   -0.50
    167 x          2.202951      2.202000    -0.000951    Cartesian   -0.04
    167 y         11.014756     10.998062    -0.016694    Cartesian   -0.15
    167 z         -2.202951     -2.219409    -0.016458    Cartesian    0.75
    168 x          6.608853      6.641783     0.032929    Cartesian    0.50
    168 y          6.608853      6.641783     0.032929    Cartesian    0.50
    168 z          6.608853      6.577754    -0.031100    Cartesian   -0.47
    169 x          6.608853      6.606743    -0.002110    Cartesian   -0.03
    169 y         -2.202951     -2.159330     0.043622    Cartesian   -1.98
    169 z          6.608853      6.577356    -0.031497    Cartesian   -0.48
    170 x          2.202951      2.213355     0.010404    Cartesian    0.47
    170 y         -6.608853     -6.575438     0.033416    Cartesian   -0.51
    170 z         -2.202951     -2.199240     0.003712    Cartesian   -0.17
    171 x         -2.202951     -2.160089     0.042862    Cartesian   -1.95
    171 y         -2.202951     -2.160089     0.042862    Cartesian   -1.95
    171 z          6.608853      6.553121    -0.055733    Cartesian   -0.84
    172 x          8.811805      8.833603     0.021799    Cartesian    0.25
    172 y          8.811805      8.833603     0.021799    Cartesian    0.25
    172 z          0.000000      0.000000     0.000000    Cartesian    0.00
    173 x          4.405902      4.406339     0.000437    Cartesian    0.01
    173 y          4.405902      4.406339     0.000437    Cartesian    0.01
    173 z          8.811805      8.861387     0.049582    Cartesian    0.56
    174 x          4.405902      4.412052     0.006150    Cartesian    0.14
    174 y          0.000000      0.001819     0.001819    Cartesian    0.00
    174 z          8.811805      8.820055     0.008250    Cartesian    0.09
    175 x          8.811805      8.835462     0.023657    Cartesian    0.27
    175 y         -4.405902     -4.417568    -0.011666    Cartesian    0.26
    175 z          0.000000      0.000000     0.000000    Cartesian    0.00
    176 x          0.000000     -0.000171    -0.000171    Cartesian    0.00
    176 y          0.000000     -0.000171    -0.000171    Cartesian    0.00
    176 z          8.811805      8.802262    -0.009542    Cartesian   -0.11
    177 x         -4.405902     -4.366616     0.039286    Cartesian   -0.89
    177 y         -4.405902     -4.366616     0.039286    Cartesian   -0.89
    177 z          0.000000      0.000000     0.000000    Cartesian    0.00
    178 x          6.608853      6.641547     0.032694    Cartesian    0.49
    178 y         11.014756     10.986944    -0.027812    Cartesian   -0.25
    178 z         -2.202951     -2.219376    -0.016425    Cartesian    0.75
    179 x         11.014756     11.006371    -0.008385    Cartesian   -0.08
    179 y         -2.202951     -2.174174     0.028777    Cartesian   -1.31
    179 z         -2.202951     -2.194841     0.008110    Cartesian   -0.37
    180 x          6.608853      6.617061     0.008208    Cartesian    0.12
    180 y         -6.608853     -6.580428     0.028425    Cartesian   -0.43
    180 z         -2.202951     -2.200423     0.002528    Cartesian   -0.11
    181 x         -2.202951     -2.181486     0.021465    Cartesian   -0.97
    181 y         -6.608853     -6.559153     0.049701    Cartesian   -0.75
    181 z         -2.202951     -2.192733     0.010218    Cartesian   -0.46
    182 x          8.811805      8.809437    -0.002368    Cartesian   -0.03
    182 y          8.811805      8.809437    -0.002368    Cartesian   -0.03
    182 z          4.405902      4.394832    -0.011070    Cartesian   -0.25
    183 x          8.811805      8.823776     0.011972    Cartesian    0.14
    183 y         -4.405902     -4.413842    -0.007940    Cartesian    0.18
    183 z          4.405902      4.410780     0.004877    Cartesian    0.11
    184 x         -4.405902     -4.394195     0.011707    Cartesian   -0.27
    184 y         -4.405902     -4.394195     0.011707    Cartesian   -0.27
    184 z          4.405902      4.391308    -0.014594    Cartesian   -0.33
    185 x          2.202951      2.222401     0.019450    Cartesian    0.88
    185 y         11.014756     10.995000    -0.019755    Cartesian   -0.18
    185 z          6.608853      6.584673    -0.024180    Cartesian   -0.37
    186 x          2.202951      2.204810     0.001859    Cartesian    0.08
    186 y          2.202951      2.204810     0.001859    Cartesian    0.08
    186 z         11.014756     10.982951    -0.031805    Cartesian   -0.29
    187 x          2.202951      2.211508     0.008557    Cartesian    0.39
    187 y         -6.608853     -6.576775     0.032078    Cartesian   -0.49
    187 z          6.608853      6.589451    -0.019403    Cartesian   -0.29
    188 x          4.405902      4.408088     0.002186    Cartesian    0.05
    188 y         13.217707     13.257482     0.039775    Cartesian    0.30
    188 z          0.000000      0.000000     0.000000    Cartesian    0.00
    189 x          4.405902      4.409154     0.003252    Cartesian    0.07
    189 y          8.811805      8.811238    -0.000566    Cartesian   -0.01
    189 z          8.811805      8.811629    -0.000176    Cartesian   -0.00
    190 x         13.217707     13.235314     0.017607    Cartesian    0.13
    190 y          0.000000      0.002688     0.002688    Cartesian    0.00
    190 z          0.000000      0.000000     0.000000    Cartesian    0.00
    191 x          8.811805      8.812764     0.000959    Cartesian    0.01
    191 y          0.000000     -0.001226    -0.001226    Cartesian    0.00
    191 z          8.811805      8.810028    -0.001777    Cartesian   -0.02
    192 x          4.405902      4.406704     0.000801    Cartesian    0.02
    192 y         -4.405902     -4.402646     0.003256    Cartesian   -0.07
    192 z          8.811805      8.805915    -0.005889    Cartesian   -0.07
    193 x          4.405902      4.411952     0.006049    Cartesian    0.14
    193 y         -8.811805     -8.816590    -0.004785    Cartesian    0.05
    193 z          0.000000      0.000000     0.000000    Cartesian    0.00
    194 x          0.000000      0.002246     0.002246    Cartesian    0.00
    194 y         -4.405902     -4.396519     0.009383    Cartesian   -0.21
    194 z          8.811805      8.802600    -0.009205    Cartesian   -0.10
    195 x          0.000000     -0.003971    -0.003971    Cartesian    0.00
    195 y         -8.811805     -8.797106     0.014699    Cartesian   -0.17
    195 z          0.000000      0.000000     0.000000    Cartesian    0.00
    196 x          6.608853      6.598129    -0.010725    Cartesian   -0.16
    196 y         11.014756     10.984545    -0.030211    Cartesian   -0.27
    196 z          6.608853      6.579450    -0.029403    Cartesian   -0.44
    197 x          2.202951      2.208012     0.005061    Cartesian    0.23
    197 y          6.608853      6.607970    -0.000884    Cartesian   -0.01
    197 z         11.014756     10.973623    -0.041132    Cartesian   -0.37
    198 x         11.014756     10.984777    -0.029979    Cartesian   -0.27
    198 y         -2.202951     -2.167855     0.035096    Cartesian   -1.59
    198 z          6.608853      6.582293    -0.026560    Cartesian   -0.40
    199 x          2.202951      2.208764     0.005813    Cartesian    0.26
    199 y         -2.202951     -2.183302     0.019649    Cartesian   -0.89
    199 z         11.014756     10.975688    -0.039067    Cartesian   -0.35
    200 x          6.608853      6.599193    -0.009660    Cartesian   -0.15
    200 y         -6.608853     -6.572179     0.036674    Cartesian   -0.55
    200 z          6.608853      6.594396    -0.014458    Cartesian   -0.22
    201 x         -2.202951     -2.191787     0.011164    Cartesian   -0.51
    201 y         -6.608853     -6.562394     0.046459    Cartesian   -0.70
    201 z          6.608853      6.580415    -0.028438    Cartesian   -0.43
--------------------------------------------------------------------------------


  Time to end of optimisation  =       26.9818 seconds


  Peak dynamic memory used =      90.31 MB 


  Timing analysis for GULP :

--------------------------------------------------------------------------------
  Task / Subroutine                                          Time (Seconds)
--------------------------------------------------------------------------------
  Calculation of reciprocal space energy and derivatives          0.0011
  Calculation of reciprocal space energy using symmetry           0.0015
  Calculation of real space energy and derivatives                0.0059
  Calculation of real space energy using symmetry                 0.0154
  Calculation for region 1 energy and derivatives (2-b)          14.1531
  Calculation for region 2a energy                                9.2927
  Calculation for region 2b energy                                0.0066
  Calculation and manipulation of Hessian matrix                  3.1177
  Calculation of matrix inversion                                 0.2492
  Symmetry generation of equivalent positions                     0.0059
--------------------------------------------------------------------------------
  Total CPU time                                                 26.9818
--------------------------------------------------------------------------------


  Dump file written as Na3OCl.grs


  Job Finished at 15:19.32 19th January    2021                               

