********************************************************************************
*                       GENERAL UTILITY LATTICE PROGRAM                        *
*                                 Julian Gale                                  *
*                       Curtin Institute for Computation                       *
*                    School of Molecular and Life Sciences                     *
*                    Curtin University, Western Australia                      *
********************************************************************************
* Version = 5.2.0 * Last modified =  10th September 2020                       *
********************************************************************************
*  optimise     - perform optimisation run                                     *
*  conp         - constant pressure calculation                                *
*  property     - calculate properties for final geometry                      *
*  defect       - perform defect calculation after bulk run                    *
*  compare      - compare initial and final structures                         *
********************************************************************************

  Job Started  at 15:19.06 19th January    2021                               

  Number of CPUs =     1


  Total number of configurations input =      1

********************************************************************************
*  Input for Configuration =   1                                               *
********************************************************************************

  Formula = OClNa3                                                      

  Number of irreducible atoms/shells =       5


  Total number atoms/shells =       7

  Dimensionality = 3               :  Bulk   


  Symmetry :

  Crystal family                   :  Cubic       
  Crystal class  (Groth - 1921)    :  Cubic Hexakisoctahedral              

  Space group (centrosymmetric)    :  P M 3 M         

  Patterson group                  :  P m -3 m 

  Cartesian lattice vectors (Angstroms) :

        4.504000    0.000000    0.000000
        0.000000    4.504000    0.000000
        0.000000    0.000000    4.504000

  Cell parameters (Angstroms/Degrees):

  a =       4.5040    alpha =  90.0000
  b =       4.5040    beta  =  90.0000
  c =       4.5040    gamma =  90.0000

  Initial cell volume =          91.368216 Angs**3

  Temperature of configuration =   0.00     K 

  Pressure of configuration =         0.000 GPa 

  Fractional coordinates of asymmetric unit :

--------------------------------------------------------------------------------
   No.  Atomic       x           y          z         Charge      Occupancy
        Label      (Frac)      (Frac)     (Frac)        (e)         (Frac)  
--------------------------------------------------------------------------------
      1 O     c    0.000000    0.000000    0.000000     0.18300    1.000000    
      2 Cl    c    0.500000    0.500000    0.500000     1.48500    1.000000    
      3 Na    c    0.500000    0.000000    0.000000     1.00000    1.000000    
      4 O     s    0.000000    0.000000    0.000000    -2.18300    1.000000    
      5 Cl    s    0.500000    0.500000    0.500000    -2.48500    1.000000    
--------------------------------------------------------------------------------


  Constraints : 

--------------------------------------------------------------------------------
  Constraint no.      Unconstrained     Constrained    Coefficient    Offset
                         Variable         Variable
--------------------------------------------------------------------------------
           1              Strain 1        Strain 2       1.00000      0.0000
           2              Strain 1        Strain 3       1.00000      0.0000
--------------------------------------------------------------------------------


********************************************************************************
*  General input information                                                   *
********************************************************************************

  Species output for all configurations : 

--------------------------------------------------------------------------------
  Species    Type    Atomic    Atomic    Charge       Radii (Angs)     Library
                     Number     Mass       (e)     Cova   Ionic  VDW   Symbol
--------------------------------------------------------------------------------
    Na       Core       11      22.99   1.000000   0.970  0.000  2.300          
    O        Core        8      16.00   0.183000   0.730  0.000  1.360          
    O        Shell       8       0.00  -2.183000   0.730  0.000  1.360          
    Cl       Core       17      35.45   1.485000   0.990  0.000  1.650          
    Cl       Shell      17       0.00  -2.485000   0.990  0.000  1.650          
    Mg       Core       12      24.31   0.415000   1.100  0.000  0.000          
    Mg       Shell      12       0.00   1.585000   1.100  0.000  0.000          
    Ca       Core       20      40.08  -1.135000   0.990  0.000  0.000          
    Ca       Shell      20       0.00   3.135000   0.990  0.000  0.000          
    Sr       Core       38      87.62  -1.251000   1.120  0.000  0.000          
    Sr       Shell      38       0.00   3.251000   1.120  0.000  0.000          
    Ba       Core       56     137.33  -7.203000   1.340  0.000  0.000          
    Ba       Shell      56       0.00   9.203000   1.340  0.000  0.000          
--------------------------------------------------------------------------------


  Lattice summation method               =    Ewald          (3-D)
                                         =    Parry          (2-D)
                                         =    Saunders et al (1-D)
  Accuracy factor for lattice sums       =   12.000


  Analytic derivatives to be used

  Time limit = Infinity

  Maximum range for interatomic potentials =    100000.000000 Angstroms

  General interatomic potentials :

--------------------------------------------------------------------------------
Atom  Types   Potential      Parameter       Value         Units   Cutoffs(Ang)
  1     2                                                            Min /  Max 
--------------------------------------------------------------------------------
O    c O    s Spring (c-s)  Spring k 2       593.71600    eV*Ang^-2 0.000  0.800
                            Spring k 4       0.0000000    eV*Ang^-4 
--------------------------------------------------------------------------------
Cl   c Cl   s Spring (c-s)  Spring k 2       29.380000    eV*Ang^-2 0.000  0.800
                            Spring k 4       0.0000000    eV*Ang^-4 
--------------------------------------------------------------------------------
Mg   c Mg   s Spring (c-s)  Spring k 2       361.60000    eV*Ang^-2 0.000  0.800
                            Spring k 4       0.0000000    eV*Ang^-4 
--------------------------------------------------------------------------------
Ca   c Ca   s Spring (c-s)  Spring k 2       110.20000    eV*Ang^-2 0.000  0.800
                            Spring k 4       0.0000000    eV*Ang^-4 
--------------------------------------------------------------------------------
Sr   c Sr   s Spring (c-s)  Spring k 2       71.700000    eV*Ang^-2 0.000  0.800
                            Spring k 4       0.0000000    eV*Ang^-4 
--------------------------------------------------------------------------------
Ba   c Ba   s Spring (c-s)  Spring k 2       495.20000    eV*Ang^-2 0.000  0.800
                            Spring k 4       0.0000000    eV*Ang^-4 
--------------------------------------------------------------------------------
Na   c Na   c Buckingham    Buckingham A     1788.1900    eV        0.000 12.000
                            Buckingham rho  0.15900000    Ang       
                            Buckingham C     0.0000000    eV*Ang^6  
--------------------------------------------------------------------------------
Na   c O    s Buckingham    Buckingham A     588.38000    eV        0.000 12.000
                            Buckingham rho  0.33800000    Ang       
                            Buckingham C     0.0000000    eV*Ang^6  
--------------------------------------------------------------------------------
Na   c Cl   s Buckingham    Buckingham A     1170.4100    eV        0.000 12.000
                            Buckingham rho  0.31500000    Ang       
                            Buckingham C     0.0000000    eV*Ang^6  
--------------------------------------------------------------------------------
O    s O    s Buckingham    Buckingham A     22764.300    eV        0.000 12.000
                            Buckingham rho  0.14900000    Ang       
                            Buckingham C     13.190000    eV*Ang^6  
--------------------------------------------------------------------------------
O    s Cl   s Buckingham    Buckingham A     8286.9100    eV        0.000 12.000
                            Buckingham rho  0.25900000    Ang       
                            Buckingham C     62.200000    eV*Ang^6  
--------------------------------------------------------------------------------
Cl   s Cl   s Buckingham    Buckingham A     1227.2000    eV        0.000 12.000
                            Buckingham rho  0.32100000    Ang       
                            Buckingham C     14.530000    eV*Ang^6  
--------------------------------------------------------------------------------
O    s Mg   s Buckingham    Buckingham A     1428.5000    eV        0.000 12.000
                            Buckingham rho  0.29450000    Ang       
                            Buckingham C     0.0000000    eV*Ang^6  
--------------------------------------------------------------------------------
Mg   s Cl   s Buckingham    Buckingham A     4914.5400    eV        0.000 12.000
                            Buckingham rho  0.25700000    Ang       
                            Buckingham C     0.0000000    eV*Ang^6  
--------------------------------------------------------------------------------
O    s Ca   s Buckingham    Buckingham A     1090.4000    eV        0.000 12.000
                            Buckingham rho  0.34370000    Ang       
                            Buckingham C     0.0000000    eV*Ang^6  
--------------------------------------------------------------------------------
Cl   s Ca   s Buckingham    Buckingham A     2302.0000    eV        0.000 12.000
                            Buckingham rho  0.34020000    Ang       
                            Buckingham C     0.0000000    eV*Ang^6  
--------------------------------------------------------------------------------
O    s Sr   s Buckingham    Buckingham A     959.10000    eV        0.000 12.000
                            Buckingham rho  0.37210000    Ang       
                            Buckingham C     0.0000000    eV*Ang^6  
--------------------------------------------------------------------------------
Cl   s Sr   s Buckingham    Buckingham A     2191.0900    eV        0.000 12.000
                            Buckingham rho  0.34570000    Ang       
                            Buckingham C     0.0000000    eV*Ang^6  
--------------------------------------------------------------------------------
O    s Ba   s Buckingham    Buckingham A     905.70000    eV        0.000 12.000
                            Buckingham rho  0.39760000    Ang       
                            Buckingham C     0.0000000    eV*Ang^6  
--------------------------------------------------------------------------------
Cl   s Ba   s Buckingham    Buckingham A     2704.5500    eV        0.000 12.000
                            Buckingham rho  0.35280000    Ang       
                            Buckingham C     0.0000000    eV*Ang^6  
--------------------------------------------------------------------------------

********************************************************************************
*  Output for configuration   1                                                *
********************************************************************************


  Components of energy : 

--------------------------------------------------------------------------------
  Interatomic potentials     =           4.94315381 eV    
  Monopole - monopole (real) =         -10.03624526 eV    
  Monopole - monopole (recip)=         -29.53581274 eV    
  Monopole - monopole (total)=         -39.57205800 eV    
--------------------------------------------------------------------------------
  Total lattice energy       =         -34.62890419 eV    
--------------------------------------------------------------------------------
  Total lattice energy       =           -3341.1599 kJ/(mole unit cells)
--------------------------------------------------------------------------------


  Number of variables =        1

  Maximum number of calculations  =          1000
  Maximum Hessian update interval =            10
  Maximum step size               =   1.000000000
  Maximum parameter tolerance     =   0.000010000
  Maximum function  tolerance     =   0.000010000
  Maximum gradient  tolerance     =   0.001000000
  Maximum gradient  component     =   0.010000000

  Symmetry constrained optimisation

  Symmetry used for second derivatives

  Cell parameters to be optimised using strains

  Newton-Raphson optimiser to be used

  BFGS hessian update to be used

  Lower half triangular hessian to be used

  Start of bulk optimisation :

  Cycle:      0 Energy:       -34.628904  Gnorm:      4.328237  CPU:    0.017
  ** Hessian calculated **
  Cycle:      1 Energy:       -34.677667  Gnorm:      0.044008  CPU:    0.022
  Cycle:      2 Energy:       -34.677671  Gnorm:      0.003653  CPU:    0.026


  **** Optimisation achieved ****


  Final energy =     -34.67767136 eV
  Final Gnorm  =       0.00000010

  Components of energy : 

--------------------------------------------------------------------------------
  Interatomic potentials     =           5.77546103 eV    
  Monopole - monopole (real) =         -10.25970290 eV    
  Monopole - monopole (recip)=         -30.19342950 eV    
  Monopole - monopole (total)=         -40.45313239 eV    
--------------------------------------------------------------------------------
  Total lattice energy       =         -34.67767136 eV    
--------------------------------------------------------------------------------
  Total lattice energy       =           -3345.8652 kJ/(mole unit cells)
--------------------------------------------------------------------------------

  Final asymmetric unit coordinates :

--------------------------------------------------------------------------------
   No.  Atomic        x           y           z         Radius
        Label       (Frac)      (Frac)      (Frac)       (Angs) 
--------------------------------------------------------------------------------
     1  O     c     0.000000    0.000000    0.000000    0.000000
     2  Cl    c     0.500000    0.500000    0.500000    0.000000
     3  Na    c     0.500000    0.000000    0.000000    0.000000
     4  O     s     0.000000    0.000000    0.000000    0.000000
     5  Cl    s     0.500000    0.500000    0.500000    0.000000
--------------------------------------------------------------------------------

  Final Cartesian lattice vectors (Angstroms) :

        4.405902    0.000000    0.000000
        0.000000    4.405902    0.000000
        0.000000    0.000000    4.405902


  Final cell parameters and derivatives :

--------------------------------------------------------------------------------
       a            4.405902 Angstrom     dE/de1(xx)     0.000000 eV/strain
       b            4.405902 Angstrom     dE/de2(yy)     0.000000 eV/strain
       c            4.405902 Angstrom     dE/de3(zz)     0.000000 eV/strain
       alpha       90.000000 Degrees      dE/de4(yz)     0.000000 eV/strain
       beta        90.000000 Degrees      dE/de5(xz)     0.000000 eV/strain
       gamma       90.000000 Degrees      dE/de6(xy)     0.000000 eV/strain
--------------------------------------------------------------------------------

  Primitive cell volume =            85.527266 Angs**3

  Density of cell =      2.338030 g/cm**3

  Non-primitive cell volume =            85.527266 Angs**3


  Final internal derivatives :

--------------------------------------------------------------------------------
   No.  Atomic          a             b             c           Radius
        Label          (eV)          (eV)          (eV)        (eV/Angs)
--------------------------------------------------------------------------------
      1 O     c       0.000000      0.000000      0.000000      0.000000
      2 Cl    c       0.000000      0.000000      0.000000      0.000000
      3 Na    c       0.000000      0.000000      0.000000      0.000000
      4 O     s       0.000000      0.000000      0.000000      0.000000
      5 Cl    s       0.000000      0.000000      0.000000      0.000000
--------------------------------------------------------------------------------
  Maximum abs         0.000000      0.000000      0.000000      0.000000
--------------------------------------------------------------------------------

  Comparison of initial and final structures : 

--------------------------------------------------------------------------------
  Parameter   Initial value   Final value   Difference    Units      Percent
--------------------------------------------------------------------------------
    Volume        91.368216     85.527266    -5.840950    Angs**3     -6.39
    a              4.504000      4.405902    -0.098098    Angstroms   -2.18
    b              4.504000      4.405902    -0.098098    Angstroms   -2.18
    c              4.504000      4.405902    -0.098098    Angstroms   -2.18
    alpha         90.000000     90.000000     0.000000    Degrees      0.00
    beta          90.000000     90.000000     0.000000    Degrees      0.00
    gamma         90.000000     90.000000     0.000000    Degrees      0.00
      1 x          0.000000      0.000000     0.000000    Fractional   0.00
      1 y          0.000000      0.000000     0.000000    Fractional   0.00
      1 z          0.000000      0.000000     0.000000    Fractional   0.00
      2 x          0.500000      0.500000     0.000000    Fractional   0.00
      2 y          0.500000      0.500000     0.000000    Fractional   0.00
      2 z          0.500000      0.500000     0.000000    Fractional   0.00
      3 x          0.500000      0.500000     0.000000    Fractional   0.00
      3 y          0.000000      0.000000     0.000000    Fractional   0.00
      3 z          0.000000      0.000000     0.000000    Fractional   0.00
      4 x          0.000000      0.000000     0.000000    Fractional   0.00
      4 y          0.000000      0.000000     0.000000    Fractional   0.00
      4 z          0.000000      0.000000     0.000000    Fractional   0.00
      5 x          0.500000      0.500000     0.000000    Fractional   0.00
      5 y          0.500000      0.500000     0.000000    Fractional   0.00
      5 z          0.500000      0.500000     0.000000    Fractional   0.00
--------------------------------------------------------------------------------


  Born effective charge tensors : 

-------------------------------------------------------------------------------
  Atom             x           y             z
-------------------------------------------------------------------------------
    1 O     x      -2.2939      0.0000      0.0000
            y       0.0000     -2.2939      0.0000
            z       0.0000      0.0000     -2.2939
-------------------------------------------------------------------------------
    2 Cl    x      -0.9918     -0.0000      0.0000
            y      -0.0000     -0.9918      0.0000
            z       0.0000      0.0000     -0.9918
-------------------------------------------------------------------------------
    3 Na    x       0.8372     -0.0000     -0.0000
            y      -0.0000      1.2243     -0.0000
            z       0.0000     -0.0000      1.2243
-------------------------------------------------------------------------------




  Elastic Constant Matrix: (Units=GPa)

-------------------------------------------------------------------------------
  Indices      1         2         3         4         5         6    
-------------------------------------------------------------------------------
       1     82.7680   24.3534   24.3534   -0.0000    0.0000   -0.0000
       2     24.3534   82.7680   24.3534   -0.0000   -0.0000   -0.0000
       3     24.3534   24.3534   82.7680    0.0000   -0.0000    0.0000
       4     -0.0000   -0.0000    0.0000   24.3534   -0.0000   -0.0000
       5      0.0000   -0.0000   -0.0000   -0.0000   24.3534   -0.0000
       6     -0.0000   -0.0000    0.0000   -0.0000   -0.0000   24.3534
-------------------------------------------------------------------------------


  Elastic Compliance Matrix: (Units=1/GPa)

-------------------------------------------------------------------------------
  Indices      1         2         3         4         5         6    
-------------------------------------------------------------------------------
       1    0.013948 -0.003171 -0.003171 -0.000000 -0.000000  0.000000
       2   -0.003171  0.013948 -0.003171  0.000000 -0.000000  0.000000
       3   -0.003171 -0.003171  0.013948 -0.000000  0.000000 -0.000000
       4   -0.000000  0.000000 -0.000000  0.041062  0.000000  0.000000
       5   -0.000000 -0.000000  0.000000  0.000000  0.041062  0.000000
       6    0.000000  0.000000 -0.000000  0.000000  0.000000  0.041062
-------------------------------------------------------------------------------

  Mechanical properties :

-------------------------------------------------------------------------------
  Convention :                    Reuss         Voigt         Hill
-------------------------------------------------------------------------------
  Bulk  Modulus (GPa)     =      43.82493      43.82493      43.82493
  Shear Modulus (GPa)     =      26.08758      26.29496      26.19127
-------------------------------------------------------------------------------
  Velocity S-wave (km/s)  =       3.34035       3.35360       3.34698
  Velocity P-wave (km/s)  =       5.79842       5.80861       5.80351
-------------------------------------------------------------------------------
  Compressibility (1/GPa) =    0.02281806
-------------------------------------------------------------------------------
  Stress axis :                     x             y             z
-------------------------------------------------------------------------------
  Youngs Moduli (GPa)     =      71.69479      71.69479      71.69479
-------------------------------------------------------------------------------
  Poissons Ratio (x)      =                     0.22734       0.22734
  Poissons Ratio (y)      =       0.22734                     0.22734
  Poissons Ratio (z)      =       0.22734       0.22734
-------------------------------------------------------------------------------


  Piezoelectric Strain Matrix: (Units=C/m**2)

-------------------------------------------------------------------------------
  Indices      1         2         3         4         5         6    
-------------------------------------------------------------------------------
       x    -0.00000  -0.00000  -0.00000  -0.00000   0.00000   0.00000
       y    -0.00000   0.00000  -0.00000   0.00000  -0.00000   0.00000
       z     0.00000   0.00000   0.00000  -0.00000   0.00000  -0.00000
-------------------------------------------------------------------------------


  Piezoelectric Stress Matrix: (Units=10**-11 C/N)

-------------------------------------------------------------------------------
  Indices      1         2         3         4         5         6    
-------------------------------------------------------------------------------
       x    -0.00000  -0.00000  -0.00000  -0.00000   0.00000   0.00000
       y    -0.00000   0.00000  -0.00000   0.00000  -0.00000   0.00000
       z     0.00000   0.00000  -0.00000  -0.00000   0.00000  -0.00000
-------------------------------------------------------------------------------


  Static dielectric constant tensor : 

-------------------------------------------------------------------------------
              x         y         z
-------------------------------------------------------------------------------
       x    11.08357  -0.00000  -0.00000
       y    -0.00000  11.08357  -0.00000
       z    -0.00000  -0.00000  11.08357
--------------------------------------------------------------------------------

  High frequency dielectric constant tensor : 

-------------------------------------------------------------------------------
              x         y         z
-------------------------------------------------------------------------------
       x     1.50771  -0.00000  -0.00000
       y    -0.00000   1.50771  -0.00000
       z    -0.00000  -0.00000   1.50771
-------------------------------------------------------------------------------

  Static refractive indices : 

-------------------------------------------------------------------------------
    1 =    3.32920      2 =    3.32920      3 =    3.32920
-------------------------------------------------------------------------------

  High frequency refractive indices : 

-------------------------------------------------------------------------------
    1 =    1.22789      2 =    1.22789      3 =    1.22789
-------------------------------------------------------------------------------


  Time to end of optimisation =       0.0358 seconds

********************************************************************************
*  Defect calculation for configuration   1 :                                  *
********************************************************************************

  Total number of defects =      3

  Total charge on defect  =   2.00

  Defect centre is at   2.2520   2.2520   0.0000  Angs

  Region 1 radius =  12.0000      Number of ions =    622

  Number of symmetry inequivalent region 1 ions  =    201

  Region 2 radius =  16.0000      Number of ions =    762

  Number of symmetry inequivalent region 2a ions =    224

  Region 2a mode = 4 : screened electrostatics due to region 1 
                       neglect correction to region 1 forces from 2a
                       region 2a displacements based on defects only

  Region 2a ions will only interact with defects in region 1

  Vacancies:

--------------------------------------------------------------------------------
    Specification type     Symbol/Number         x          y          z
--------------------------------------------------------------------------------
    Cartesian                                0.000000   0.000000   0.000000
    Cartesian                                4.504000   4.504000   0.000000
--------------------------------------------------------------------------------

  Interstitials:

--------------------------------------------------------------------------------
    Specification type     Symbol/Number         x          y          z
--------------------------------------------------------------------------------
    Atom/Cartesian          O                4.504000   4.504000   0.000000
--------------------------------------------------------------------------------


  Symmetry reduced region 1 (Relative to defect centre) :

--------------------------------------------------------------------------------
   No.   Atomic       x            y             z       Radius  Multiplicity   
         Label      (Angs)       (Angs)        (Angs)    (Angs)     
--------------------------------------------------------------------------------
     1  Na    c     -0.0490 *     2.1539 *     0.0000    0.0000     2          
     2  Cl    c     -0.0490 *    -0.0490      -2.2030 *  0.0000     2          
     3  Na    c     -0.0490 *    -2.2520 *     0.0000    0.0000     2          
     4  O     c      2.1539 *    -2.2520 *     0.0000    0.0000     2          
     5  O     c      2.2520       2.2520       0.0000    0.0000     1    Defect
     6  Na    c      2.1539 *     2.1539      -2.2030 *  0.0000     2          
     7  Na    c      2.1539 *    -2.2520 *    -2.2030 *  0.0000     4          
     8  Na    c     -2.2520 *    -2.2520      -2.2030 *  0.0000     2          
     9  Na    c      4.3569 *     2.1539 *     0.0000    0.0000     2          
    10  Cl    c     -0.0490 *     4.3569 *    -2.2030 *  0.0000     4          
    11  Na    c     -0.0490 *     2.1539 *     4.4059 *  0.0000     4          
    12  Na    c      4.3569 *    -2.2520 *     0.0000    0.0000     2          
    13  Na    c     -0.0490 *    -2.2520 *     4.4059 *  0.0000     4          
    14  Na    c     -4.4550 *     2.1539 *     0.0000    0.0000     2          
    15  Cl    c     -0.0490 *    -4.4550 *    -2.2030 *  0.0000     4          
    16  Na    c     -4.4550 *    -2.2520 *     0.0000    0.0000     2          
    17  O     c      2.1539 *     2.1539       4.4059 *  0.0000     2          
    18  O     c      2.1539 *    -2.2520 *     4.4059 *  0.0000     4          
    19  O     c     -2.2520 *    -2.2520       4.4059 *  0.0000     2          
    20  Cl    c      4.3569 *     4.3569      -2.2030 *  0.0000     2          
    21  Na    c     -0.0490 *     6.5598 *     0.0000    0.0000     2          
    22  Na    c      4.3569 *     2.1539 *     4.4059 *  0.0000     4          
    23  Na    c      4.3569 *    -2.2520 *     4.4059 *  0.0000     4          
    24  Cl    c     -0.0490 *    -0.0490       6.6089 *  0.0000     2          
    25  Cl    c      4.3569 *    -4.4550 *    -2.2030 *  0.0000     4          
    26  Na    c     -4.4550 *     2.1539 *     4.4059 *  0.0000     4          
    27  Na    c     -0.0490 *    -6.6579 *     0.0000    0.0000     2          
    28  Na    c     -4.4550 *    -2.2520 *     4.4059 *  0.0000     4          
    29  Cl    c     -4.4550 *    -4.4550      -2.2030 *  0.0000     2          
    30  O     c      2.1539 *     6.5598 *     0.0000    0.0000     2          
    31  O     c      6.5598 *    -2.2520 *     0.0000    0.0000     2          
    32  O     c      2.1539 *    -6.6579 *     0.0000    0.0000     2          
    33  O     c     -2.2520 *    -6.6579 *     0.0000    0.0000     2          
    34  Na    c      2.1539 *     6.5598 *    -2.2030 *  0.0000     4          
    35  Na    c      2.1539 *     2.1539       6.6089 *  0.0000     2          
    36  Na    c      6.5598 *    -2.2520 *    -2.2030 *  0.0000     4          
    37  Na    c      2.1539 *    -2.2520 *     6.6089 *  0.0000     4          
    38  Na    c      2.1539 *    -6.6579 *    -2.2030 *  0.0000     4          
    39  Na    c     -2.2520 *    -2.2520       6.6089 *  0.0000     2          
    40  Na    c     -2.2520 *    -6.6579 *    -2.2030 *  0.0000     4          
    41  Na    c      4.3569 *     6.5598 *     0.0000    0.0000     2          
    42  Na    c     -0.0490 *     6.5598 *     4.4059 *  0.0000     4          
    43  Cl    c     -0.0490 *     4.3569 *     6.6089 *  0.0000     4          
    44  Na    c     -4.4550 *     6.5598 *     0.0000    0.0000     2          
    45  Na    c      4.3569 *    -6.6579 *     0.0000    0.0000     2          
    46  Cl    c     -0.0490 *    -4.4550 *     6.6089 *  0.0000     4          
    47  Na    c     -0.0490 *    -6.6579 *     4.4059 *  0.0000     4          
    48  Na    c     -4.4550 *    -6.6579 *     0.0000    0.0000     2          
    49  O     c      2.1539 *     6.5598 *     4.4059 *  0.0000     4          
    50  O     c      6.5598 *    -2.2520 *     4.4059 *  0.0000     4          
    51  O     c      2.1539 *    -6.6579 *     4.4059 *  0.0000     4          
    52  O     c     -2.2520 *    -6.6579 *     4.4059 *  0.0000     4          
    53  Na    c      4.3569 *     6.5598 *     4.4059 *  0.0000     4          
    54  Na    c      8.7628 *     2.1539 *     0.0000    0.0000     2          
    55  Cl    c     -0.0490 *     8.7628 *    -2.2030 *  0.0000     4          
    56  Cl    c      4.3569 *     4.3569       6.6089 *  0.0000     2          
    57  Na    c      8.7628 *    -2.2520 *     0.0000    0.0000     2          
    58  Na    c     -0.0490 *     2.1539 *     8.8118 *  0.0000     4          
    59  Na    c     -4.4550 *     6.5598 *     4.4059 *  0.0000     4          
    60  Cl    c      4.3569 *    -4.4550 *     6.6089 *  0.0000     4          
    61  Na    c     -0.0490 *    -2.2520 *     8.8118 *  0.0000     4          
    62  Na    c      4.3569 *    -6.6579 *     4.4059 *  0.0000     4          
    63  Na    c     -8.8609 *     2.1539 *     0.0000    0.0000     2          
    64  Cl    c     -0.0490 *    -8.8609 *    -2.2030 *  0.0000     4          
    65  Cl    c     -4.4550 *    -4.4550       6.6089 *  0.0000     2          
    66  Na    c     -8.8609 *    -2.2520 *     0.0000    0.0000     2          
    67  Na    c     -4.4550 *    -6.6579 *     4.4059 *  0.0000     4          
    68  O     c      6.5598 *     6.5598       0.0000    0.0000     1          
    69  O     c      2.1539 *     2.1539       8.8118 *  0.0000     2          
    70  O     c      2.1539 *    -2.2520 *     8.8118 *  0.0000     4          
    71  O     c      6.5598 *    -6.6579 *     0.0000    0.0000     2          
    72  O     c     -2.2520 *    -2.2520       8.8118 *  0.0000     2          
    73  O     c     -6.6579 *    -6.6579       0.0000    0.0000     1          
    74  Na    c      6.5598 *     6.5598      -2.2030 *  0.0000     2          
    75  Na    c      2.1539 *     6.5598 *     6.6089 *  0.0000     4          
    76  Na    c      6.5598 *    -2.2520 *     6.6089 *  0.0000     4          
    77  Na    c      6.5598 *    -6.6579 *    -2.2030 *  0.0000     4          
    78  Na    c      2.1539 *    -6.6579 *     6.6089 *  0.0000     4          
    79  Na    c     -2.2520 *    -6.6579 *     6.6089 *  0.0000     4          
    80  Na    c     -6.6579 *    -6.6579      -2.2030 *  0.0000     2          
    81  Cl    c      4.3569 *     8.7628 *    -2.2030 *  0.0000     4          
    82  Na    c      8.7628 *     2.1539 *     4.4059 *  0.0000     4          
    83  Na    c      4.3569 *     2.1539 *     8.8118 *  0.0000     4          
    84  Na    c      8.7628 *    -2.2520 *     4.4059 *  0.0000     4          
    85  Cl    c      8.7628 *    -4.4550 *    -2.2030 *  0.0000     4          
    86  Na    c      4.3569 *    -2.2520 *     8.8118 *  0.0000     4          
    87  Na    c     -4.4550 *     2.1539 *     8.8118 *  0.0000     4          
    88  Cl    c      4.3569 *    -8.8609 *    -2.2030 *  0.0000     4          
    89  Na    c     -8.8609 *     2.1539 *     4.4059 *  0.0000     4          
    90  Na    c     -4.4550 *    -2.2520 *     8.8118 *  0.0000     4          
    91  Na    c     -8.8609 *    -2.2520 *     4.4059 *  0.0000     4          
    92  Cl    c     -4.4550 *    -8.8609 *    -2.2030 *  0.0000     4          
    93  O     c      6.5598 *     6.5598       4.4059 *  0.0000     2          
    94  O     c      6.5598 *    -6.6579 *     4.4059 *  0.0000     4          
    95  O     c     -6.6579 *    -6.6579       4.4059 *  0.0000     2          
    96  Na    c      8.7628 *     6.5598 *     0.0000    0.0000     2          
    97  Na    c     -0.0490 *    10.9657 *     0.0000    0.0000     2          
    98  Cl    c     -0.0490 *     8.7628 *     6.6089 *  0.0000     4          
    99  Na    c     -0.0490 *     6.5598 *     8.8118 *  0.0000     4          
   100  Na    c      8.7628 *    -6.6579 *     0.0000    0.0000     2          
   101  Cl    c     -0.0490 *    -0.0490      11.0148 *  0.0000     2          
   102  Na    c     -8.8609 *     6.5598 *     0.0000    0.0000     2          
   103  Na    c     -0.0490 *    -6.6579 *     8.8118 *  0.0000     4          
   104  Cl    c     -0.0490 *    -8.8609 *     6.6089 *  0.0000     4          
   105  Na    c     -0.0490 *   -11.0638 *     0.0000    0.0000     2          
   106  Na    c     -8.8609 *    -6.6579 *     0.0000    0.0000     2          
   107  O     c      2.1539 *    10.9657 *     0.0000    0.0000     2          
   108  O     c      2.1539 *     6.5598 *     8.8118 *  0.0000     4          
   109  O     c     10.9657 *    -2.2520 *     0.0000    0.0000     2          
   110  O     c      6.5598 *    -2.2520 *     8.8118 *  0.0000     4          
   111  O     c      2.1539 *    -6.6579 *     8.8118 *  0.0000     4          
   112  O     c      2.1539 *   -11.0638 *     0.0000    0.0000     2          
   113  O     c     -2.2520 *    -6.6579 *     8.8118 *  0.0000     4          
   114  O     c     -2.2520 *   -11.0638 *     0.0000    0.0000     2          
   115  Na    c      6.5598 *     6.5598       6.6089 *  0.0000     2          
   116  Na    c      2.1539 *    10.9657 *    -2.2030 *  0.0000     4          
   117  Na    c     10.9657 *    -2.2520 *    -2.2030 *  0.0000     4          
   118  Na    c      2.1539 *     2.1539      11.0148 *  0.0000     2          
   119  Na    c      2.1539 *    -2.2520 *    11.0148 *  0.0000     4          
   120  Na    c      6.5598 *    -6.6579 *     6.6089 *  0.0000     4          
   121  Na    c     -2.2520 *    -2.2520      11.0148 *  0.0000     2          
   122  Na    c      2.1539 *   -11.0638 *    -2.2030 *  0.0000     4          
   123  Na    c     -2.2520 *   -11.0638 *    -2.2030 *  0.0000     4          
   124  Na    c     -6.6579 *    -6.6579       6.6089 *  0.0000     2          
   125  Na    c      4.3569 *    10.9657 *     0.0000    0.0000     2          
   126  Na    c      8.7628 *     6.5598 *     4.4059 *  0.0000     4          
   127  Cl    c      4.3569 *     8.7628 *     6.6089 *  0.0000     4          
   128  Na    c     -0.0490 *    10.9657 *     4.4059 *  0.0000     4          
   129  Na    c      4.3569 *     6.5598 *     8.8118 *  0.0000     4          
   130  Na    c     -4.4550 *    10.9657 *     0.0000    0.0000     2          
   131  Cl    c     -0.0490 *     4.3569 *    11.0148 *  0.0000     4          
   132  Cl    c      8.7628 *    -4.4550 *     6.6089 *  0.0000     4          
   133  Na    c     -4.4550 *     6.5598 *     8.8118 *  0.0000     4          
   134  Na    c      8.7628 *    -6.6579 *     4.4059 *  0.0000     4          
   135  Na    c      4.3569 *    -6.6579 *     8.8118 *  0.0000     4          
   136  Na    c     -8.8609 *     6.5598 *     4.4059 *  0.0000     4          
   137  Cl    c     -0.0490 *    -4.4550 *    11.0148 *  0.0000     4          
   138  Cl    c      4.3569 *    -8.8609 *     6.6089 *  0.0000     4          
   139  Na    c      4.3569 *   -11.0638 *     0.0000    0.0000     2          
   140  Na    c     -0.0490 *   -11.0638 *     4.4059 *  0.0000     4          
   141  Na    c     -4.4550 *    -6.6579 *     8.8118 *  0.0000     4          
   142  Cl    c     -4.4550 *    -8.8609 *     6.6089 *  0.0000     4          
   143  Na    c     -4.4550 *   -11.0638 *     0.0000    0.0000     2          
   144  Na    c     -8.8609 *    -6.6579 *     4.4059 *  0.0000     4          
   145  Cl    s     -0.0490 *    -0.0490      -2.2030 *  0.0000     2          
   146  O     s      2.1539 *    -2.2520 *     0.0000    0.0000     2          
   147  O     s      2.2520       2.2520       0.0000    0.0000     1    Defect
   148  Cl    s     -0.0490 *     4.3569 *    -2.2030 *  0.0000     4          
   149  Cl    s     -0.0490 *    -4.4550 *    -2.2030 *  0.0000     4          
   150  O     s      2.1539 *     2.1539       4.4059 *  0.0000     2          
   151  O     s      2.1539 *    -2.2520 *     4.4059 *  0.0000     4          
   152  O     s     -2.2520 *    -2.2520       4.4059 *  0.0000     2          
   153  Cl    s      4.3569 *     4.3569      -2.2030 *  0.0000     2          
   154  Cl    s     -0.0490 *    -0.0490       6.6089 *  0.0000     2          
   155  Cl    s      4.3569 *    -4.4550 *    -2.2030 *  0.0000     4          
   156  Cl    s     -4.4550 *    -4.4550      -2.2030 *  0.0000     2          
   157  O     s      2.1539 *     6.5598 *     0.0000    0.0000     2          
   158  O     s      6.5598 *    -2.2520 *     0.0000    0.0000     2          
   159  O     s      2.1539 *    -6.6579 *     0.0000    0.0000     2          
   160  O     s     -2.2520 *    -6.6579 *     0.0000    0.0000     2          
   161  Cl    s     -0.0490 *     4.3569 *     6.6089 *  0.0000     4          
   162  Cl    s     -0.0490 *    -4.4550 *     6.6089 *  0.0000     4          
   163  O     s      2.1539 *     6.5598 *     4.4059 *  0.0000     4          
   164  O     s      6.5598 *    -2.2520 *     4.4059 *  0.0000     4          
   165  O     s      2.1539 *    -6.6579 *     4.4059 *  0.0000     4          
   166  O     s     -2.2520 *    -6.6579 *     4.4059 *  0.0000     4          
   167  Cl    s     -0.0490 *     8.7628 *    -2.2030 *  0.0000     4          
   168  Cl    s      4.3569 *     4.3569       6.6089 *  0.0000     2          
   169  Cl    s      4.3569 *    -4.4550 *     6.6089 *  0.0000     4          
   170  Cl    s     -0.0490 *    -8.8609 *    -2.2030 *  0.0000     4          
   171  Cl    s     -4.4550 *    -4.4550       6.6089 *  0.0000     2          
   172  O     s      6.5598 *     6.5598       0.0000    0.0000     1          
   173  O     s      2.1539 *     2.1539       8.8118 *  0.0000     2          
   174  O     s      2.1539 *    -2.2520 *     8.8118 *  0.0000     4          
   175  O     s      6.5598 *    -6.6579 *     0.0000    0.0000     2          
   176  O     s     -2.2520 *    -2.2520       8.8118 *  0.0000     2          
   177  O     s     -6.6579 *    -6.6579       0.0000    0.0000     1          
   178  Cl    s      4.3569 *     8.7628 *    -2.2030 *  0.0000     4          
   179  Cl    s      8.7628 *    -4.4550 *    -2.2030 *  0.0000     4          
   180  Cl    s      4.3569 *    -8.8609 *    -2.2030 *  0.0000     4          
   181  Cl    s     -4.4550 *    -8.8609 *    -2.2030 *  0.0000     4          
   182  O     s      6.5598 *     6.5598       4.4059 *  0.0000     2          
   183  O     s      6.5598 *    -6.6579 *     4.4059 *  0.0000     4          
   184  O     s     -6.6579 *    -6.6579       4.4059 *  0.0000     2          
   185  Cl    s     -0.0490 *     8.7628 *     6.6089 *  0.0000     4          
   186  Cl    s     -0.0490 *    -0.0490      11.0148 *  0.0000     2          
   187  Cl    s     -0.0490 *    -8.8609 *     6.6089 *  0.0000     4          
   188  O     s      2.1539 *    10.9657 *     0.0000    0.0000     2          
   189  O     s      2.1539 *     6.5598 *     8.8118 *  0.0000     4          
   190  O     s     10.9657 *    -2.2520 *     0.0000    0.0000     2          
   191  O     s      6.5598 *    -2.2520 *     8.8118 *  0.0000     4          
   192  O     s      2.1539 *    -6.6579 *     8.8118 *  0.0000     4          
   193  O     s      2.1539 *   -11.0638 *     0.0000    0.0000     2          
   194  O     s     -2.2520 *    -6.6579 *     8.8118 *  0.0000     4          
   195  O     s     -2.2520 *   -11.0638 *     0.0000    0.0000     2          
   196  Cl    s      4.3569 *     8.7628 *     6.6089 *  0.0000     4          
   197  Cl    s     -0.0490 *     4.3569 *    11.0148 *  0.0000     4          
   198  Cl    s      8.7628 *    -4.4550 *     6.6089 *  0.0000     4          
   199  Cl    s     -0.0490 *    -4.4550 *    11.0148 *  0.0000     4          
   200  Cl    s      4.3569 *    -8.8609 *     6.6089 *  0.0000     4          
   201  Cl    s     -4.4550 *    -8.8609 *     6.6089 *  0.0000     4          
--------------------------------------------------------------------------------


  Constraints on symmetry reduced coordinates :

--------------------------------------------------------------------------------
  Constraint no.      Unconstrained     Constrained    Coefficient    
                         Variable         Variable
--------------------------------------------------------------------------------
           1                 2 x             2 y         1.00000
           2                 6 x             6 y         1.00000
           3                 8 x             8 y         1.00000
           4                17 x            17 y         1.00000
           5                19 x            19 y         1.00000
           6                20 x            20 y         1.00000
           7                24 x            24 y         1.00000
           8                29 x            29 y         1.00000
           9                35 x            35 y         1.00000
          10                39 x            39 y         1.00000
          11                56 x            56 y         1.00000
          12                65 x            65 y         1.00000
          13                68 x            68 y         1.00000
          14                69 x            69 y         1.00000
          15                72 x            72 y         1.00000
          16                73 x            73 y         1.00000
          17                74 x            74 y         1.00000
          18                80 x            80 y         1.00000
          19                93 x            93 y         1.00000
          20                95 x            95 y         1.00000
          21               101 x           101 y         1.00000
          22               115 x           115 y         1.00000
          23               118 x           118 y         1.00000
          24               121 x           121 y         1.00000
          25               124 x           124 y         1.00000
          26               145 x           145 y         1.00000
          27               150 x           150 y         1.00000
          28               152 x           152 y         1.00000
          29               153 x           153 y         1.00000
          30               154 x           154 y         1.00000
          31               156 x           156 y         1.00000
          32               168 x           168 y         1.00000
          33               171 x           171 y         1.00000
          34               172 x           172 y         1.00000
          35               173 x           173 y         1.00000
          36               176 x           176 y         1.00000
          37               177 x           177 y         1.00000
          38               182 x           182 y         1.00000
          39               184 x           184 y         1.00000
          40               186 x           186 y         1.00000
--------------------------------------------------------------------------------


  Components of defect energy : 

--------------------------------------------------------------------------------
  Region 1 - region 1                   =     89.70803060 eV
  Region 1 - region 2a (unrelaxed)      =    -54.01129037 eV
  Region 1 - 2a (relaxed - correction)  =     -1.06665034 eV
  Region 1 (Total)                      =     34.63008989 eV
  Region 2a                             =      0.53380583 eV
  Region 2b                             =     -1.69871103 eV
--------------------------------------------------------------------------------
  Total defect energy                   =     33.46518469 eV
--------------------------------------------------------------------------------

  Largest displacement in region 2 =   0.0515 Angstroms


  Number of variables =      507

  Maximum number of calculations  =        1000
  Maximum Hessian update interval =          10
  Maximum step size               =   1.0000000
  Maximum parameter tolerance     =   0.0000100
  Maximum function  tolerance     =   0.0000100
  Maximum gradient  tolerance     =   0.0010000

  Symmetry adapted optimisation

  Symmetry to be used for second derivatives

  Newton-Raphson optimiser to be used

  BFGS hessian update to be used

  Lower half triangular hessian to be used

  Start of defect optimisation :

  Cycle:      0 Defect Energy:  33.465185  Gnorm:     0.088342  CPU:    2.569
  ** Hessian calculated **
  Cycle:      1 Defect Energy:  27.450689  Gnorm:     0.064384  CPU:   10.024
  Cycle:      2 Defect Energy:  22.810141  Gnorm:     0.017547  CPU:   13.640
  ** Hessian calculated **
  Cycle:      3 Defect Energy:  21.961877  Gnorm:     0.001485  CPU:   17.687
  Cycle:      4 Defect Energy:  21.951055  Gnorm:     0.001156  CPU:   18.031
  Cycle:      5 Defect Energy:  21.941147  Gnorm:     0.000813  CPU:   18.382
  Cycle:      6 Defect Energy:  21.936112  Gnorm:     0.000580  CPU:   18.718
  Cycle:      7 Defect Energy:  21.933422  Gnorm:     0.000411  CPU:   19.074
  Cycle:      8 Defect Energy:  21.931943  Gnorm:     0.000291  CPU:   19.578
  Cycle:      9 Defect Energy:  21.931178  Gnorm:     0.000206  CPU:   20.002
  Cycle:     10 Defect Energy:  21.930768  Gnorm:     0.000145  CPU:   20.343
  Cycle:     11 Defect Energy:  21.930552  Gnorm:     0.000102  CPU:   20.709
  Cycle:     12 Defect Energy:  21.930435  Gnorm:     0.000072  CPU:   21.022
  ** Hessian calculated **
  Cycle:     13 Defect Energy:  21.930370  Gnorm:     0.000050  CPU:   22.622
  Cycle:     14 Defect Energy:  21.930335  Gnorm:     0.000035  CPU:   22.938
  Cycle:     15 Defect Energy:  21.930314  Gnorm:     0.000025  CPU:   23.292
  Cycle:     16 Defect Energy:  21.930302  Gnorm:     0.000017  CPU:   23.727


  **** Optimisation achieved ****


  Final defect energy  =       21.93029490
  Final defect Gnorm   =        0.00001214

  Components of defect energy : 

--------------------------------------------------------------------------------
  Region 1 - region 1                   =     71.09030906 eV
  Region 1 - region 2a (unrelaxed)      =    -47.13451430 eV
  Region 1 - 2a (relaxed - correction)  =     -0.75013312 eV
  Region 1 (Total)                      =     23.20566164 eV
  Region 2a                             =      0.37446460 eV
  Region 2b                             =     -1.64983135 eV
--------------------------------------------------------------------------------
  Total defect energy                   =     21.93029490 eV
--------------------------------------------------------------------------------

  Largest displacement in region 2 =   0.0515 Angstroms

  Final coordinates of region 1 :

--------------------------------------------------------------------------------
   No.  Atomic        x           y           z          Radius      Charge
        Label       (Angs)      (Angs)      (Angs)       (Angs)       (e) 
--------------------------------------------------------------------------------
     1  Na    c     2.278114    4.614995    0.000000    0.000000    1.000000
     2  Na    c     4.614995    2.278114    0.000000    0.000000    1.000000
     3  Cl    c     1.930303    1.930303   -1.916149    0.000000    1.485000
     4  Cl    c     1.930303    1.930303    1.916149    0.000000    1.485000
     5  Na    c     2.522554    0.043188    0.000000    0.000000    1.000000
     6  Na    c     0.043188    2.522554    0.000000    0.000000    1.000000
     7  O     c     4.585723    0.031948    0.000000    0.000000    0.183000
     8  O     c     0.031948    4.585723    0.000000    0.000000    0.183000
     9  O     c     4.504000    4.504000    0.000000    0.000000    0.183000
    10  Na    c     4.537639    4.537639   -2.206835    0.000000    1.000000
    11  Na    c     4.537639    4.537639    2.206835    0.000000    1.000000
    12  Na    c     4.559311    0.026474   -2.219587    0.000000    1.000000
    13  Na    c     4.559311    0.026474    2.219587    0.000000    1.000000
    14  Na    c     0.026474    4.559311   -2.219587    0.000000    1.000000
    15  Na    c     0.026474    4.559311    2.219587    0.000000    1.000000
    16  Na    c     0.012511    0.012511   -2.493032    0.000000    1.000000
    17  Na    c     0.012511    0.012511    2.493032    0.000000    1.000000
    18  Na    c     6.690040    4.508156    0.000000    0.000000    1.000000
    19  Na    c     4.508156    6.690040    0.000000    0.000000    1.000000
    20  Cl    c     2.228991    6.591426   -2.217443    0.000000    1.485000
    21  Cl    c     2.228991    6.591426    2.217443    0.000000    1.485000
    22  Cl    c     6.591426    2.228991   -2.217443    0.000000    1.485000
    23  Cl    c     6.591426    2.228991    2.217443    0.000000    1.485000
    24  Na    c     2.220131    4.491548    4.459666    0.000000    1.000000
    25  Na    c     2.220131    4.491548   -4.459666    0.000000    1.000000
    26  Na    c     4.491548    2.220131    4.459666    0.000000    1.000000
    27  Na    c     4.491548    2.220131   -4.459666    0.000000    1.000000
    28  Na    c     6.724729    0.008119    0.000000    0.000000    1.000000
    29  Na    c     0.008119    6.724729    0.000000    0.000000    1.000000
    30  Na    c     2.234234    0.010876    4.528596    0.000000    1.000000
    31  Na    c     2.234234    0.010876   -4.528596    0.000000    1.000000
    32  Na    c     0.010876    2.234234    4.528596    0.000000    1.000000
    33  Na    c     0.010876    2.234234   -4.528596    0.000000    1.000000
    34  Na    c    -2.203327    4.542562    0.000000    0.000000    1.000000
    35  Na    c     4.542562   -2.203327    0.000000    0.000000    1.000000
    36  Cl    c     1.916370   -1.889071   -1.899853    0.000000    1.485000
    37  Cl    c     1.916370   -1.889071    1.899853    0.000000    1.485000
    38  Cl    c    -1.889071    1.916370   -1.899853    0.000000    1.485000
    39  Cl    c    -1.889071    1.916370    1.899853    0.000000    1.485000
    40  Na    c    -2.484821    0.015585    0.000000    0.000000    1.000000
    41  Na    c     0.015585   -2.484821    0.000000    0.000000    1.000000
    42  O     c     4.407609    4.407609    4.390185    0.000000    0.183000
    43  O     c     4.407609    4.407609   -4.390185    0.000000    0.183000
    44  O     c     4.418617    0.009476    4.405578    0.000000    0.183000
    45  O     c     4.418617    0.009476   -4.405578    0.000000    0.183000
    46  O     c     0.009476    4.418617    4.405578    0.000000    0.183000
    47  O     c     0.009476    4.418617   -4.405578    0.000000    0.183000
    48  O     c     0.007874    0.007874    4.559169    0.000000    0.183000
    49  O     c     0.007874    0.007874   -4.559169    0.000000    0.183000
    50  Cl    c     6.620931    6.620931   -2.211292    0.000000    1.485000
    51  Cl    c     6.620931    6.620931    2.211292    0.000000    1.485000
    52  Na    c     2.221937    8.901008    0.000000    0.000000    1.000000
    53  Na    c     8.901008    2.221937    0.000000    0.000000    1.000000
    54  Na    c     6.632273    4.434872    4.435422    0.000000    1.000000
    55  Na    c     6.632273    4.434872   -4.435422    0.000000    1.000000
    56  Na    c     4.434872    6.632273    4.435422    0.000000    1.000000
    57  Na    c     4.434872    6.632273   -4.435422    0.000000    1.000000
    58  Na    c     6.642491    0.005408    4.445580    0.000000    1.000000
    59  Na    c     6.642491    0.005408   -4.445580    0.000000    1.000000
    60  Na    c     0.005408    6.642491    4.445580    0.000000    1.000000
    61  Na    c     0.005408    6.642491   -4.445580    0.000000    1.000000
    62  Cl    c     2.217951    2.217951    6.573996    0.000000    1.485000
    63  Cl    c     2.217951    2.217951   -6.573996    0.000000    1.485000
    64  Cl    c     6.578981   -2.218456   -2.210311    0.000000    1.485000
    65  Cl    c     6.578981   -2.218456    2.210311    0.000000    1.485000
    66  Cl    c    -2.218456    6.578981   -2.210311    0.000000    1.485000
    67  Cl    c    -2.218456    6.578981    2.210311    0.000000    1.485000
    68  Na    c    -2.196172    4.492365    4.471739    0.000000    1.000000
    69  Na    c    -2.196172    4.492365   -4.471739    0.000000    1.000000
    70  Na    c     4.492365   -2.196172    4.471739    0.000000    1.000000
    71  Na    c     4.492365   -2.196172   -4.471739    0.000000    1.000000
    72  Na    c     2.231698   -4.537350    0.000000    0.000000    1.000000
    73  Na    c    -4.537350    2.231698    0.000000    0.000000    1.000000
    74  Na    c    -2.212664    0.005520    4.538232    0.000000    1.000000
    75  Na    c    -2.212664    0.005520   -4.538232    0.000000    1.000000
    76  Na    c     0.005520   -2.212664    4.538232    0.000000    1.000000
    77  Na    c     0.005520   -2.212664   -4.538232    0.000000    1.000000
    78  Cl    c    -1.907998   -1.907998   -1.906665    0.000000    1.485000
    79  Cl    c    -1.907998   -1.907998    1.906665    0.000000    1.485000
    80  O     c     4.423425    8.851786    0.000000    0.000000    0.183000
    81  O     c     8.851786    4.423425    0.000000    0.000000    0.183000
    82  O     c     8.871094    0.005449    0.000000    0.000000    0.183000
    83  O     c     0.005449    8.871094    0.000000    0.000000    0.183000
    84  O     c     4.415709   -4.400018    0.000000    0.000000    0.183000
    85  O     c    -4.400018    4.415709    0.000000    0.000000    0.183000
    86  O     c     0.003581   -4.553307    0.000000    0.000000    0.183000
    87  O     c    -4.553307    0.003581    0.000000    0.000000    0.183000
    88  Na    c     4.423931    8.860435   -2.209590    0.000000    1.000000
    89  Na    c     4.423931    8.860435    2.209590    0.000000    1.000000
    90  Na    c     8.860435    4.423931   -2.209590    0.000000    1.000000
    91  Na    c     8.860435    4.423931    2.209590    0.000000    1.000000
    92  Na    c     4.418818    4.418818    6.616435    0.000000    1.000000
    93  Na    c     4.418818    4.418818   -6.616435    0.000000    1.000000
    94  Na    c     8.889066    0.011846   -2.209276    0.000000    1.000000
    95  Na    c     8.889066    0.011846    2.209276    0.000000    1.000000
    96  Na    c     0.011846    8.889066   -2.209276    0.000000    1.000000
    97  Na    c     0.011846    8.889066    2.209276    0.000000    1.000000
    98  Na    c     4.443056    0.021030    6.631003    0.000000    1.000000
    99  Na    c     4.443056    0.021030   -6.631003    0.000000    1.000000
   100  Na    c     0.021030    4.443056    6.631003    0.000000    1.000000
   101  Na    c     0.021030    4.443056   -6.631003    0.000000    1.000000
   102  Na    c     4.489349   -4.461496   -2.203621    0.000000    1.000000
   103  Na    c     4.489349   -4.461496    2.203621    0.000000    1.000000
   104  Na    c    -4.461496    4.489349   -2.203621    0.000000    1.000000
   105  Na    c    -4.461496    4.489349    2.203621    0.000000    1.000000
   106  Na    c     0.024659    0.024659    6.701676    0.000000    1.000000
   107  Na    c     0.024659    0.024659   -6.701676    0.000000    1.000000
   108  Na    c     0.009304   -4.522529   -2.221104    0.000000    1.000000
   109  Na    c     0.009304   -4.522529    2.221104    0.000000    1.000000
   110  Na    c    -4.522529    0.009304   -2.221104    0.000000    1.000000
   111  Na    c    -4.522529    0.009304    2.221104    0.000000    1.000000
   112  Na    c     6.636818    8.886009    0.000000    0.000000    1.000000
   113  Na    c     8.886009    6.636818    0.000000    0.000000    1.000000
   114  Na    c     2.212102    8.835407    4.419968    0.000000    1.000000
   115  Na    c     2.212102    8.835407   -4.419968    0.000000    1.000000
   116  Na    c     8.835407    2.212102    4.419968    0.000000    1.000000
   117  Na    c     8.835407    2.212102   -4.419968    0.000000    1.000000
   118  Cl    c     2.192891    6.582245    6.581257    0.000000    1.485000
   119  Cl    c     2.192891    6.582245   -6.581257    0.000000    1.485000
   120  Cl    c     6.582245    2.192891    6.581257    0.000000    1.485000
   121  Cl    c     6.582245    2.192891   -6.581257    0.000000    1.485000
   122  Na    c    -2.206250    8.896864    0.000000    0.000000    1.000000
   123  Na    c     8.896864   -2.206250    0.000000    0.000000    1.000000
   124  Na    c     6.643527   -4.417426    0.000000    0.000000    1.000000
   125  Na    c    -4.417426    6.643527    0.000000    0.000000    1.000000
   126  Cl    c     2.212032   -2.217205    6.569967    0.000000    1.485000
   127  Cl    c     2.212032   -2.217205   -6.569967    0.000000    1.485000
   128  Cl    c    -2.217205    2.212032    6.569967    0.000000    1.485000
   129  Cl    c    -2.217205    2.212032   -6.569967    0.000000    1.485000
   130  Na    c     2.212025   -4.457824    4.484123    0.000000    1.000000
   131  Na    c     2.212025   -4.457824   -4.484123    0.000000    1.000000
   132  Na    c    -4.457824    2.212025    4.484123    0.000000    1.000000
   133  Na    c    -4.457824    2.212025   -4.484123    0.000000    1.000000
   134  Na    c    -2.218211   -4.520488    0.000000    0.000000    1.000000
   135  Na    c    -4.520488   -2.218211    0.000000    0.000000    1.000000
   136  O     c     4.411386    8.821370    4.408198    0.000000    0.183000
   137  O     c     4.411386    8.821370   -4.408198    0.000000    0.183000
   138  O     c     8.821370    4.411386    4.408198    0.000000    0.183000
   139  O     c     8.821370    4.411386   -4.408198    0.000000    0.183000
   140  O     c     8.823164    0.002524    4.404729    0.000000    0.183000
   141  O     c     8.823164    0.002524   -4.404729    0.000000    0.183000
   142  O     c     0.002524    8.823164    4.404729    0.000000    0.183000
   143  O     c     0.002524    8.823164   -4.404729    0.000000    0.183000
   144  O     c     4.396105   -4.387893    4.388841    0.000000    0.183000
   145  O     c     4.396105   -4.387893   -4.388841    0.000000    0.183000
   146  O     c    -4.387893    4.396105    4.388841    0.000000    0.183000
   147  O     c    -4.387893    4.396105   -4.388841    0.000000    0.183000
   148  O     c     0.002890   -4.402631    4.404885    0.000000    0.183000
   149  O     c     0.002890   -4.402631   -4.404885    0.000000    0.183000
   150  O     c    -4.402631    0.002890    4.404885    0.000000    0.183000
   151  O     c    -4.402631    0.002890   -4.404885    0.000000    0.183000
   152  Na    c     6.622432    8.843292    4.409739    0.000000    1.000000
   153  Na    c     6.622432    8.843292   -4.409739    0.000000    1.000000
   154  Na    c     8.843292    6.622432    4.409739    0.000000    1.000000
   155  Na    c     8.843292    6.622432   -4.409739    0.000000    1.000000
   156  Na    c    11.047169    4.438029    0.000000    0.000000    1.000000
   157  Na    c     4.438029   11.047169    0.000000    0.000000    1.000000
   158  Cl    c     2.199967   11.004677   -2.203734    0.000000    1.485000
   159  Cl    c     2.199967   11.004677    2.203734    0.000000    1.485000
   160  Cl    c    11.004677    2.199967   -2.203734    0.000000    1.485000
   161  Cl    c    11.004677    2.199967    2.203734    0.000000    1.485000
   162  Cl    c     6.584210    6.584210    6.588433    0.000000    1.485000
   163  Cl    c     6.584210    6.584210   -6.588433    0.000000    1.485000
   164  Na    c    11.057670    0.001650    0.000000    0.000000    1.000000
   165  Na    c     0.001650   11.057670    0.000000    0.000000    1.000000
   166  Na    c     2.211156    4.422228    8.843403    0.000000    1.000000
   167  Na    c     2.211156    4.422228   -8.843403    0.000000    1.000000
   168  Na    c     4.422228    2.211156    8.843403    0.000000    1.000000
   169  Na    c     4.422228    2.211156   -8.843403    0.000000    1.000000
   170  Na    c    -2.205652    8.851916    4.408733    0.000000    1.000000
   171  Na    c    -2.205652    8.851916   -4.408733    0.000000    1.000000
   172  Na    c     8.851916   -2.205652    4.408733    0.000000    1.000000
   173  Na    c     8.851916   -2.205652   -4.408733    0.000000    1.000000
   174  Cl    c     6.580468   -2.194904    6.580309    0.000000    1.485000
   175  Cl    c     6.580468   -2.194904   -6.580309    0.000000    1.485000
   176  Cl    c    -2.194904    6.580468    6.580309    0.000000    1.485000
   177  Cl    c    -2.194904    6.580468   -6.580309    0.000000    1.485000
   178  Na    c     2.216021    0.007831    8.886771    0.000000    1.000000
   179  Na    c     2.216021    0.007831   -8.886771    0.000000    1.000000
   180  Na    c     0.007831    2.216021    8.886771    0.000000    1.000000
   181  Na    c     0.007831    2.216021   -8.886771    0.000000    1.000000
   182  Na    c     6.625589   -4.421242    4.418601    0.000000    1.000000
   183  Na    c     6.625589   -4.421242   -4.418601    0.000000    1.000000
   184  Na    c    -4.421242    6.625589    4.418601    0.000000    1.000000
   185  Na    c    -4.421242    6.625589   -4.418601    0.000000    1.000000
   186  Na    c    -6.626525    4.469417    0.000000    0.000000    1.000000
   187  Na    c     4.469417   -6.626525    0.000000    0.000000    1.000000
   188  Cl    c     2.208681   -6.580598   -2.214359    0.000000    1.485000
   189  Cl    c     2.208681   -6.580598    2.214359    0.000000    1.485000
   190  Cl    c    -6.580598    2.208681   -2.214359    0.000000    1.485000
   191  Cl    c    -6.580598    2.208681    2.214359    0.000000    1.485000
   192  Cl    c    -2.220787   -2.220787    6.567649    0.000000    1.485000
   193  Cl    c    -2.220787   -2.220787   -6.567649    0.000000    1.485000
   194  Na    c    -6.692714   -0.002498    0.000000    0.000000    1.000000
   195  Na    c    -0.002498   -6.692714    0.000000    0.000000    1.000000
   196  Na    c    -2.203838   -4.476107    4.472400    0.000000    1.000000
   197  Na    c    -2.203838   -4.476107   -4.472400    0.000000    1.000000
   198  Na    c    -4.476107   -2.203838    4.472400    0.000000    1.000000
   199  Na    c    -4.476107   -2.203838   -4.472400    0.000000    1.000000
   200  O     c     8.828821    8.828821    0.000000    0.000000    0.183000
   201  O     c     4.410413    4.410413    8.812399    0.000000    0.183000
   202  O     c     4.410413    4.410413   -8.812399    0.000000    0.183000
   203  O     c     4.411014    0.001121    8.817772    0.000000    0.183000
   204  O     c     4.411014    0.001121   -8.817772    0.000000    0.183000
   205  O     c     0.001121    4.411014    8.817772    0.000000    0.183000
   206  O     c     0.001121    4.411014   -8.817772    0.000000    0.183000
   207  O     c     8.827013   -4.409219    0.000000    0.000000    0.183000
   208  O     c    -4.409219    8.827013    0.000000    0.000000    0.183000
   209  O     c     0.002702    0.002702    8.852953    0.000000    0.183000
   210  O     c     0.002702    0.002702   -8.852953    0.000000    0.183000
   211  O     c    -4.411730   -4.411730    0.000000    0.000000    0.183000
   212  Na    c     8.834333    8.834333   -2.207728    0.000000    1.000000
   213  Na    c     8.834333    8.834333    2.207728    0.000000    1.000000
   214  Na    c     4.433642    8.841048    6.612430    0.000000    1.000000
   215  Na    c     4.433642    8.841048   -6.612430    0.000000    1.000000
   216  Na    c     8.841048    4.433642    6.612430    0.000000    1.000000
   217  Na    c     8.841048    4.433642   -6.612430    0.000000    1.000000
   218  Na    c     8.847951   -0.007061    6.612624    0.000000    1.000000
   219  Na    c     8.847951   -0.007061   -6.612624    0.000000    1.000000
   220  Na    c    -0.007061    8.847951    6.612624    0.000000    1.000000
   221  Na    c    -0.007061    8.847951   -6.612624    0.000000    1.000000
   222  Na    c     8.847054   -4.411263   -2.207727    0.000000    1.000000
   223  Na    c     8.847054   -4.411263    2.207727    0.000000    1.000000
   224  Na    c    -4.411263    8.847054   -2.207727    0.000000    1.000000
   225  Na    c    -4.411263    8.847054    2.207727    0.000000    1.000000
   226  Na    c     4.440200   -4.406718    6.613273    0.000000    1.000000
   227  Na    c     4.440200   -4.406718   -6.613273    0.000000    1.000000
   228  Na    c    -4.406718    4.440200    6.613273    0.000000    1.000000
   229  Na    c    -4.406718    4.440200   -6.613273    0.000000    1.000000
   230  Na    c    -0.004457   -4.422960    6.627575    0.000000    1.000000
   231  Na    c    -0.004457   -4.422960   -6.627575    0.000000    1.000000
   232  Na    c    -4.422960   -0.004457    6.627575    0.000000    1.000000
   233  Na    c    -4.422960   -0.004457   -6.627575    0.000000    1.000000
   234  Na    c    -4.473992   -4.473992   -2.207392    0.000000    1.000000
   235  Na    c    -4.473992   -4.473992    2.207392    0.000000    1.000000
   236  Cl    c     6.604883   11.005585   -2.200978    0.000000    1.485000
   237  Cl    c     6.604883   11.005585    2.200978    0.000000    1.485000
   238  Cl    c    11.005585    6.604883   -2.200978    0.000000    1.485000
   239  Cl    c    11.005585    6.604883    2.200978    0.000000    1.485000
   240  Na    c    11.026788    4.408257    4.411031    0.000000    1.000000
   241  Na    c    11.026788    4.408257   -4.411031    0.000000    1.000000
   242  Na    c     4.408257   11.026788    4.411031    0.000000    1.000000
   243  Na    c     4.408257   11.026788   -4.411031    0.000000    1.000000
   244  Na    c     6.615494    4.418546    8.814695    0.000000    1.000000
   245  Na    c     6.615494    4.418546   -8.814695    0.000000    1.000000
   246  Na    c     4.418546    6.615494    8.814695    0.000000    1.000000
   247  Na    c     4.418546    6.615494   -8.814695    0.000000    1.000000
   248  Na    c    11.029765    0.017772    4.416423    0.000000    1.000000
   249  Na    c    11.029765    0.017772   -4.416423    0.000000    1.000000
   250  Na    c     0.017772   11.029765    4.416423    0.000000    1.000000
   251  Na    c     0.017772   11.029765   -4.416423    0.000000    1.000000
   252  Cl    c    10.995288   -2.207178   -2.202204    0.000000    1.485000
   253  Cl    c    10.995288   -2.207178    2.202204    0.000000    1.485000
   254  Cl    c    -2.207178   10.995288   -2.202204    0.000000    1.485000
   255  Cl    c    -2.207178   10.995288    2.202204    0.000000    1.485000
   256  Na    c     6.618367    0.006221    8.826928    0.000000    1.000000
   257  Na    c     6.618367    0.006221   -8.826928    0.000000    1.000000
   258  Na    c     0.006221    6.618367    8.826928    0.000000    1.000000
   259  Na    c     0.006221    6.618367   -8.826928    0.000000    1.000000
   260  Na    c    -2.202551    4.417223    8.823219    0.000000    1.000000
   261  Na    c    -2.202551    4.417223   -8.823219    0.000000    1.000000
   262  Na    c     4.417223   -2.202551    8.823219    0.000000    1.000000
   263  Na    c     4.417223   -2.202551   -8.823219    0.000000    1.000000
   264  Cl    c     6.581961   -6.589716   -2.192048    0.000000    1.485000
   265  Cl    c     6.581961   -6.589716    2.192048    0.000000    1.485000
   266  Cl    c    -6.589716    6.581961   -2.192048    0.000000    1.485000
   267  Cl    c    -6.589716    6.581961    2.192048    0.000000    1.485000
   268  Na    c    -6.612675    4.417101    4.411173    0.000000    1.000000
   269  Na    c    -6.612675    4.417101   -4.411173    0.000000    1.000000
   270  Na    c     4.417101   -6.612675    4.411173    0.000000    1.000000
   271  Na    c     4.417101   -6.612675   -4.411173    0.000000    1.000000
   272  Na    c    -2.202973    0.011744    8.860035    0.000000    1.000000
   273  Na    c    -2.202973    0.011744   -8.860035    0.000000    1.000000
   274  Na    c     0.011744   -2.202973    8.860035    0.000000    1.000000
   275  Na    c     0.011744   -2.202973   -8.860035    0.000000    1.000000
   276  Na    c    -6.624748    0.022653    4.432573    0.000000    1.000000
   277  Na    c    -6.624748    0.022653   -4.432573    0.000000    1.000000
   278  Na    c     0.022653   -6.624748    4.432573    0.000000    1.000000
   279  Na    c     0.022653   -6.624748   -4.432573    0.000000    1.000000
   280  Cl    c    -2.225782   -6.574046   -2.212555    0.000000    1.485000
   281  Cl    c    -2.225782   -6.574046    2.212555    0.000000    1.485000
   282  Cl    c    -6.574046   -2.225782   -2.212555    0.000000    1.485000
   283  Cl    c    -6.574046   -2.225782    2.212555    0.000000    1.485000
   284  O     c     8.820854    8.820854    4.408979    0.000000    0.183000
   285  O     c     8.820854    8.820854   -4.408979    0.000000    0.183000
   286  O     c     8.819023   -4.411189    4.407217    0.000000    0.183000
   287  O     c     8.819023   -4.411189   -4.407217    0.000000    0.183000
   288  O     c    -4.411189    8.819023    4.407217    0.000000    0.183000
   289  O     c    -4.411189    8.819023   -4.407217    0.000000    0.183000
   290  O     c    -4.398357   -4.398357    4.393337    0.000000    0.183000
   291  O     c    -4.398357   -4.398357   -4.393337    0.000000    0.183000
   292  Na    c    11.031639    8.841075    0.000000    0.000000    1.000000
   293  Na    c     8.841075   11.031639    0.000000    0.000000    1.000000
   294  Na    c     2.207303   13.245419    0.000000    0.000000    1.000000
   295  Na    c    13.245419    2.207303    0.000000    0.000000    1.000000
   296  Cl    c     2.195167   10.994157    6.600762    0.000000    1.485000
   297  Cl    c     2.195167   10.994157   -6.600762    0.000000    1.485000
   298  Cl    c    10.994157    2.195167    6.600762    0.000000    1.485000
   299  Cl    c    10.994157    2.195167   -6.600762    0.000000    1.485000
   300  Na    c     2.204832    8.827304    8.820459    0.000000    1.000000
   301  Na    c     2.204832    8.827304   -8.820459    0.000000    1.000000
   302  Na    c     8.827304    2.204832    8.820459    0.000000    1.000000
   303  Na    c     8.827304    2.204832   -8.820459    0.000000    1.000000
   304  Na    c    11.033483   -4.421251    0.000000    0.000000    1.000000
   305  Na    c    -4.421251   11.033483    0.000000    0.000000    1.000000
   306  Cl    c     2.199671    2.199671   10.988269    0.000000    1.485000
   307  Cl    c     2.199671    2.199671  -10.988269    0.000000    1.485000
   308  Na    c    -6.616136    8.842266    0.000000    0.000000    1.000000
   309  Na    c     8.842266   -6.616136    0.000000    0.000000    1.000000
   310  Na    c     2.207762   -4.405816    8.829932    0.000000    1.000000
   311  Na    c     2.207762   -4.405816   -8.829932    0.000000    1.000000
   312  Na    c    -4.405816    2.207762    8.829932    0.000000    1.000000
   313  Na    c    -4.405816    2.207762   -8.829932    0.000000    1.000000
   314  Cl    c     2.185488   -6.587706    6.581781    0.000000    1.485000
   315  Cl    c     2.185488   -6.587706   -6.581781    0.000000    1.485000
   316  Cl    c    -6.587706    2.185488    6.581781    0.000000    1.485000
   317  Cl    c    -6.587706    2.185488   -6.581781    0.000000    1.485000
   318  Na    c     2.213778   -8.844550    0.000000    0.000000    1.000000
   319  Na    c    -8.844550    2.213778    0.000000    0.000000    1.000000
   320  Na    c    -6.630512   -4.424059    0.000000    0.000000    1.000000
   321  Na    c    -4.424059   -6.630512    0.000000    0.000000    1.000000
   322  O     c     4.408436   13.227153    0.000000    0.000000    0.183000
   323  O     c    13.227153    4.408436    0.000000    0.000000    0.183000
   324  O     c     4.405246    8.808806    8.808014    0.000000    0.183000
   325  O     c     4.405246    8.808806   -8.808014    0.000000    0.183000
   326  O     c     8.808806    4.405246    8.808014    0.000000    0.183000
   327  O     c     8.808806    4.405246   -8.808014    0.000000    0.183000
   328  O     c    13.230883   -0.000490    0.000000    0.000000    0.183000
   329  O     c    -0.000490   13.230883    0.000000    0.000000    0.183000
   330  O     c     8.809136   -0.001521    8.807260    0.000000    0.183000
   331  O     c     8.809136   -0.001521   -8.807260    0.000000    0.183000
   332  O     c    -0.001521    8.809136    8.807260    0.000000    0.183000
   333  O     c    -0.001521    8.809136   -8.807260    0.000000    0.183000
   334  O     c     4.406813   -4.403684    8.806404    0.000000    0.183000
   335  O     c     4.406813   -4.403684   -8.806404    0.000000    0.183000
   336  O     c    -4.403684    4.406813    8.806404    0.000000    0.183000
   337  O     c    -4.403684    4.406813   -8.806404    0.000000    0.183000
   338  O     c     4.408376   -8.813349    0.000000    0.000000    0.183000
   339  O     c    -8.813349    4.408376    0.000000    0.000000    0.183000
   340  O     c    -0.002298   -4.401455    8.809514    0.000000    0.183000
   341  O     c    -0.002298   -4.401455   -8.809514    0.000000    0.183000
   342  O     c    -4.401455   -0.002298    8.809514    0.000000    0.183000
   343  O     c    -4.401455   -0.002298   -8.809514    0.000000    0.183000
   344  O     c    -0.000470   -8.841722    0.000000    0.000000    0.183000
   345  O     c    -8.841722   -0.000470    0.000000    0.000000    0.183000
   346  Na    c     8.822109    8.822109    6.614415    0.000000    1.000000
   347  Na    c     8.822109    8.822109   -6.614415    0.000000    1.000000
   348  Na    c     4.415495   13.245832   -2.205768    0.000000    1.000000
   349  Na    c     4.415495   13.245832    2.205768    0.000000    1.000000
   350  Na    c    13.245832    4.415495   -2.205768    0.000000    1.000000
   351  Na    c    13.245832    4.415495    2.205768    0.000000    1.000000
   352  Na    c    13.251503    0.000899   -2.206508    0.000000    1.000000
   353  Na    c    13.251503    0.000899    2.206508    0.000000    1.000000
   354  Na    c     0.000899   13.251503   -2.206508    0.000000    1.000000
   355  Na    c     0.000899   13.251503    2.206508    0.000000    1.000000
   356  Na    c     4.423125    4.423125   11.021512    0.000000    1.000000
   357  Na    c     4.423125    4.423125  -11.021512    0.000000    1.000000
   358  Na    c     4.438328    0.000345   11.026099    0.000000    1.000000
   359  Na    c     4.438328    0.000345  -11.026099    0.000000    1.000000
   360  Na    c     0.000345    4.438328   11.026099    0.000000    1.000000
   361  Na    c     0.000345    4.438328  -11.026099    0.000000    1.000000
   362  Na    c     8.829518   -4.401473    6.614926    0.000000    1.000000
   363  Na    c     8.829518   -4.401473   -6.614926    0.000000    1.000000
   364  Na    c    -4.401473    8.829518    6.614926    0.000000    1.000000
   365  Na    c    -4.401473    8.829518   -6.614926    0.000000    1.000000
   366  Na    c    -0.003138   -0.003138   11.041409    0.000000    1.000000
   367  Na    c    -0.003138   -0.003138  -11.041409    0.000000    1.000000
   368  Na    c     4.419368   -8.834780   -2.206901    0.000000    1.000000
   369  Na    c     4.419368   -8.834780    2.206901    0.000000    1.000000
   370  Na    c    -8.834780    4.419368   -2.206901    0.000000    1.000000
   371  Na    c    -8.834780    4.419368    2.206901    0.000000    1.000000
   372  Na    c     0.007769   -8.862081   -2.210546    0.000000    1.000000
   373  Na    c     0.007769   -8.862081    2.210546    0.000000    1.000000
[...]
    121 y          0.000000     -0.003138    -0.003138    Cartesian    0.00
    121 z         11.014756     11.041409     0.026653    Cartesian    0.24
    122 x          4.405902      4.419368     0.013465    Cartesian    0.31
    122 y         -8.811805     -8.834780    -0.022975    Cartesian    0.26
    122 z         -2.202951     -2.206901    -0.003950    Cartesian    0.18
    123 x          0.000000      0.007769     0.007769    Cartesian    0.00
    123 y         -8.811805     -8.862081    -0.050277    Cartesian    0.57
    123 z         -2.202951     -2.210546    -0.007595    Cartesian    0.34
    124 x         -4.405902     -4.403961     0.001941    Cartesian   -0.04
    124 y         -4.405902     -4.403961     0.001941    Cartesian   -0.04
    124 z          6.608853      6.619373     0.010519    Cartesian    0.16
    125 x          6.608853      6.617229     0.008376    Cartesian    0.13
    125 y         13.217707     13.257724     0.040017    Cartesian    0.30
    125 z          0.000000      0.000000     0.000000    Cartesian    0.00
    126 x         11.014756     11.025984     0.011228    Cartesian    0.10
    126 y          8.811805      8.835949     0.024145    Cartesian    0.27
    126 z          4.405902      4.417993     0.012091    Cartesian    0.27
    127 x          6.608853      6.594015    -0.014839    Cartesian   -0.22
    127 y         11.014756     10.988798    -0.025958    Cartesian   -0.24
    127 z          6.608853      6.598822    -0.010031    Cartesian   -0.15
    128 x          2.202951      2.205129     0.002178    Cartesian    0.10
    128 y         13.217707     13.252525     0.034819    Cartesian    0.26
    128 z          4.405902      4.415338     0.009435    Cartesian    0.21
    129 x          6.608853      6.613858     0.005005    Cartesian    0.08
    129 y          8.811805      8.831630     0.019825    Cartesian    0.22
    129 z          8.811805      8.837114     0.025310    Cartesian    0.29
    130 x         -2.202951     -2.207623    -0.004672    Cartesian    0.21
    130 y         13.217707     13.260809     0.043102    Cartesian    0.33
    130 z          0.000000      0.000000     0.000000    Cartesian    0.00
    131 x          2.202951      2.195498    -0.007453    Cartesian   -0.34
    131 y          6.608853      6.593200    -0.015654    Cartesian   -0.24
    131 z         11.014756     10.982722    -0.032034    Cartesian   -0.29
    132 x         11.014756     10.983487    -0.031268    Cartesian   -0.28
    132 y         -2.202951     -2.196449     0.006502    Cartesian   -0.30
    132 z          6.608853      6.596110    -0.012743    Cartesian   -0.19
    133 x         -2.202951     -2.205154    -0.002203    Cartesian    0.10
    133 y          8.811805      8.834448     0.022643    Cartesian    0.26
    133 z          8.811805      8.839685     0.027881    Cartesian    0.32
    134 x         11.014756     11.027774     0.013019    Cartesian    0.12
    134 y         -4.405902     -4.421417    -0.015515    Cartesian    0.35
    134 z          4.405902      4.418924     0.013022    Cartesian    0.30
    135 x          6.608853      6.614838     0.005984    Cartesian    0.09
    135 y         -4.405902     -4.418867    -0.012965    Cartesian    0.29
    135 z          8.811805      8.841717     0.029912    Cartesian    0.34
    136 x         -6.608853     -6.615683    -0.006829    Cartesian    0.10
    136 y          8.811805      8.844445     0.032640    Cartesian    0.37
    136 z          4.405902      4.423654     0.017752    Cartesian    0.40
    137 x          2.202951      2.198872    -0.004079    Cartesian   -0.19
    137 y         -2.202951     -2.201342     0.001609    Cartesian   -0.07
    137 z         11.014756     10.976431    -0.038325    Cartesian   -0.35
    138 x          6.608853      6.577900    -0.030954    Cartesian   -0.47
    138 y         -6.608853     -6.578294     0.030559    Cartesian   -0.46
    138 z          6.608853      6.579798    -0.029056    Cartesian   -0.44
    139 x          6.608853      6.618949     0.010095    Cartesian    0.15
    139 y         -8.811805     -8.855571    -0.043766    Cartesian    0.50
    139 z          0.000000      0.000000     0.000000    Cartesian    0.00
    140 x          2.202951      2.208419     0.005467    Cartesian    0.25
    140 y         -8.811805     -8.847623    -0.035818    Cartesian    0.41
    140 z          4.405902      4.422418     0.016515    Cartesian    0.37
    141 x         -2.202951     -2.206090    -0.003139    Cartesian    0.14
    141 y         -4.405902     -4.414334    -0.008432    Cartesian    0.19
    141 z          8.811805      8.846074     0.034269    Cartesian    0.39
    142 x         -2.202951     -2.193393     0.009558    Cartesian   -0.43
    142 y         -6.608853     -6.577389     0.031465    Cartesian   -0.48
    142 z          6.608853      6.578619    -0.030234    Cartesian   -0.46
    143 x         -2.202951     -2.209779    -0.006827    Cartesian    0.31
    143 y         -8.811805     -8.875145    -0.063340    Cartesian    0.72
    143 z          0.000000      0.000000     0.000000    Cartesian    0.00
    144 x         -6.608853     -6.619999    -0.011145    Cartesian    0.17
    144 y         -4.405902     -4.423349    -0.017446    Cartesian    0.40
    144 z          4.405902      4.428040     0.022138    Cartesian    0.50
    145 x          2.202951      1.898578    -0.304373    Cartesian  -13.82
    145 y          2.202951      1.898578    -0.304373    Cartesian  -13.82
    145 z         -2.202951     -1.884465     0.318486    Cartesian  -14.46
    146 x          4.405902      4.585593     0.179691    Cartesian    4.08
    146 y          0.000000      0.031933     0.031933    Cartesian    0.00
    146 z          0.000000      0.000000     0.000000    Cartesian    0.00
    147 x          4.504000      4.504000     0.000000    Cartesian    0.00
    147 y          4.504000      4.504000     0.000000    Cartesian    0.00
    147 z          0.000000      0.000000     0.000000    Cartesian    0.00
    148 x          2.202951      2.226754     0.023803    Cartesian    1.08
    148 y          6.608853      6.580276    -0.028578    Cartesian   -0.43
    148 z         -2.202951     -2.215998    -0.013047    Cartesian    0.59
    149 x          2.202951      1.883606    -0.319345    Cartesian  -14.50
    149 y         -2.202951     -1.858406     0.344545    Cartesian  -15.64
    149 z         -2.202951     -1.869077     0.333874    Cartesian  -15.16
    150 x          4.405902      4.407615     0.001713    Cartesian    0.04
    150 y          4.405902      4.407615     0.001713    Cartesian    0.04
    150 z          4.405902      4.390186    -0.015716    Cartesian   -0.36
    151 x          4.405902      4.418631     0.012728    Cartesian    0.29
    151 y          0.000000      0.009475     0.009475    Cartesian    0.00
    151 z          4.405902      4.405589    -0.000313    Cartesian   -0.01
    152 x          0.000000      0.007873     0.007873    Cartesian    0.00
    152 y          0.000000      0.007873     0.007873    Cartesian    0.00
    152 z          4.405902      4.559033     0.153130    Cartesian    3.48
    153 x          6.608853      6.613400     0.004547    Cartesian    0.07
    153 y          6.608853      6.613400     0.004547    Cartesian    0.07
    153 z         -2.202951     -2.209664    -0.006713    Cartesian    0.30
    154 x          2.202951      2.215774     0.012823    Cartesian    0.58
    154 y          2.202951      2.215774     0.012823    Cartesian    0.58
    154 z          6.608853      6.564745    -0.044109    Cartesian   -0.67
    155 x          6.608853      6.568491    -0.040362    Cartesian   -0.61
    155 y         -2.202951     -2.218969    -0.016018    Cartesian    0.73
    155 z         -2.202951     -2.208623    -0.005672    Cartesian    0.26
    156 x         -2.202951     -1.878245     0.324706    Cartesian  -14.74
    156 y         -2.202951     -1.878245     0.324706    Cartesian  -14.74
    156 z         -2.202951     -1.875453     0.327498    Cartesian  -14.87
    157 x          4.405902      4.423432     0.017530    Cartesian    0.40
    157 y          8.811805      8.851764     0.039959    Cartesian    0.45
    157 z          0.000000      0.000000     0.000000    Cartesian    0.00
    158 x          8.811805      8.871057     0.059253    Cartesian    0.67
    158 y          0.000000      0.005446     0.005446    Cartesian    0.00
    158 z          0.000000      0.000000     0.000000    Cartesian    0.00
    159 x          4.405902      4.415722     0.009820    Cartesian    0.22
    159 y         -4.405902     -4.400039     0.005864    Cartesian   -0.13
    159 z          0.000000      0.000000     0.000000    Cartesian    0.00
    160 x          0.000000      0.003578     0.003578    Cartesian    0.00
    160 y         -4.405902     -4.553179    -0.147277    Cartesian    3.34
    160 z          0.000000      0.000000     0.000000    Cartesian    0.00
    161 x          2.202951      2.189861    -0.013090    Cartesian   -0.59
    161 y          6.608853      6.574015    -0.034838    Cartesian   -0.53
    161 z          6.608853      6.573885    -0.034969    Cartesian   -0.53
    162 x          2.202951      2.209281     0.006330    Cartesian    0.29
    162 y         -2.202951     -2.217807    -0.014856    Cartesian    0.67
    162 z          6.608853      6.560433    -0.048420    Cartesian   -0.73
    163 x          4.405902      4.411382     0.005480    Cartesian    0.12
    163 y          8.811805      8.821368     0.009563    Cartesian    0.11
    163 z          4.405902      4.408200     0.002298    Cartesian    0.05
    164 x          8.811805      8.823156     0.011352    Cartesian    0.13
    164 y          0.000000      0.002526     0.002526    Cartesian    0.00
    164 z          4.405902      4.404729    -0.001174    Cartesian   -0.03
    165 x          4.405902      4.396102    -0.009801    Cartesian   -0.22
    165 y         -4.405902     -4.387895     0.018007    Cartesian   -0.41
    165 z          4.405902      4.388840    -0.017062    Cartesian   -0.39
    166 x          0.000000      0.002891     0.002891    Cartesian    0.00
    166 y         -4.405902     -4.402647     0.003255    Cartesian   -0.07
    166 z          4.405902      4.404898    -0.001004    Cartesian   -0.02
    167 x          2.202951      2.197872    -0.005080    Cartesian   -0.23
    167 y         11.014756     10.998337    -0.016419    Cartesian   -0.15
    167 z         -2.202951     -2.202616     0.000335    Cartesian   -0.02
    168 x          6.608853      6.578799    -0.030055    Cartesian   -0.45
    168 y          6.608853      6.578799    -0.030055    Cartesian   -0.45
    168 z          6.608853      6.584099    -0.024754    Cartesian   -0.37
    169 x          6.608853      6.571750    -0.037103    Cartesian   -0.56
    169 y         -2.202951     -2.193568     0.009383    Cartesian   -0.43
    169 z          6.608853      6.572464    -0.036389    Cartesian   -0.55
    170 x          2.202951      2.205645     0.002694    Cartesian    0.12
    170 y         -6.608853     -6.572748     0.036105    Cartesian   -0.55
    170 z         -2.202951     -2.213096    -0.010145    Cartesian    0.46
    171 x         -2.202951     -2.221167    -0.018215    Cartesian    0.83
    171 y         -2.202951     -2.221167    -0.018215    Cartesian    0.83
    171 z          6.608853      6.557444    -0.051409    Cartesian   -0.78
    172 x          8.811805      8.828824     0.017019    Cartesian    0.19
    172 y          8.811805      8.828824     0.017019    Cartesian    0.19
    172 z          0.000000      0.000000     0.000000    Cartesian    0.00
    173 x          4.405902      4.410414     0.004511    Cartesian    0.10
    173 y          4.405902      4.410414     0.004511    Cartesian    0.10
    173 z          8.811805      8.812395     0.000591    Cartesian    0.01
    174 x          4.405902      4.411015     0.005113    Cartesian    0.12
    174 y          0.000000      0.001119     0.001119    Cartesian    0.00
    174 z          8.811805      8.817766     0.005962    Cartesian    0.07
    175 x          8.811805      8.827008     0.015203    Cartesian    0.17
    175 y         -4.405902     -4.409220    -0.003318    Cartesian    0.08
    175 z          0.000000      0.000000     0.000000    Cartesian    0.00
    176 x          0.000000      0.002699     0.002699    Cartesian    0.00
    176 y          0.000000      0.002699     0.002699    Cartesian    0.00
    176 z          8.811805      8.852919     0.041115    Cartesian    0.47
    177 x         -4.405902     -4.411748    -0.005846    Cartesian    0.13
    177 y         -4.405902     -4.411748    -0.005846    Cartesian    0.13
    177 z          0.000000      0.000000     0.000000    Cartesian    0.00
    178 x          6.608853      6.602348    -0.006505    Cartesian   -0.10
    178 y         11.014756     11.001293    -0.013463    Cartesian   -0.12
    178 z         -2.202951     -2.199822     0.003129    Cartesian   -0.14
    179 x         11.014756     10.988922    -0.025834    Cartesian   -0.23
    179 y         -2.202951     -2.207275    -0.004324    Cartesian    0.20
    179 z         -2.202951     -2.201254     0.001697    Cartesian   -0.08
    180 x          6.608853      6.573799    -0.035054    Cartesian   -0.53
    180 y         -6.608853     -6.584312     0.024541    Cartesian   -0.37
    180 z         -2.202951     -2.190083     0.012868    Cartesian   -0.58
    181 x         -2.202951     -2.226892    -0.023941    Cartesian    1.09
    181 y         -6.608853     -6.566128     0.042726    Cartesian   -0.65
    181 z         -2.202951     -2.211356    -0.008405    Cartesian    0.38
    182 x          8.811805      8.820856     0.009052    Cartesian    0.10
    182 y          8.811805      8.820856     0.009052    Cartesian    0.10
    182 z          4.405902      4.408978     0.003075    Cartesian    0.07
    183 x          8.811805      8.819022     0.007217    Cartesian    0.08
    183 y         -4.405902     -4.411193    -0.005290    Cartesian    0.12
    183 z          4.405902      4.407215     0.001313    Cartesian    0.03
    184 x         -4.405902     -4.398362     0.007540    Cartesian   -0.17
    184 y         -4.405902     -4.398362     0.007540    Cartesian   -0.17
    184 z          4.405902      4.393334    -0.012568    Cartesian   -0.29
    185 x          2.202951      2.193447    -0.009504    Cartesian   -0.43
    185 y         11.014756     10.990593    -0.024162    Cartesian   -0.22
    185 z          6.608853      6.599282    -0.009572    Cartesian   -0.14
    186 x          2.202951      2.197670    -0.005281    Cartesian   -0.24
    186 y          2.202951      2.197670    -0.005281    Cartesian   -0.24
    186 z         11.014756     10.982333    -0.032423    Cartesian   -0.29
    187 x          2.202951      2.181894    -0.021057    Cartesian   -0.96
    187 y         -6.608853     -6.583098     0.025756    Cartesian   -0.39
    187 z          6.608853      6.575506    -0.033347    Cartesian   -0.50
    188 x          4.405902      4.408434     0.002532    Cartesian    0.06
    188 y         13.217707     13.227152     0.009445    Cartesian    0.07
    188 z          0.000000      0.000000     0.000000    Cartesian    0.00
    189 x          4.405902      4.405244    -0.000659    Cartesian   -0.01
    189 y          8.811805      8.808805    -0.002999    Cartesian   -0.03
    189 z          8.811805      8.808010    -0.003794    Cartesian   -0.04
    190 x         13.217707     13.230877     0.013170    Cartesian    0.10
    190 y          0.000000     -0.000490    -0.000490    Cartesian    0.00
    190 z          0.000000      0.000000     0.000000    Cartesian    0.00
    191 x          8.811805      8.809134    -0.002671    Cartesian   -0.03
    191 y          0.000000     -0.001523    -0.001523    Cartesian    0.00
    191 z          8.811805      8.807258    -0.004546    Cartesian   -0.05
    192 x          4.405902      4.406810     0.000907    Cartesian    0.02
    192 y         -4.405902     -4.403684     0.002218    Cartesian   -0.05
    192 z          8.811805      8.806401    -0.005404    Cartesian   -0.06
    193 x          4.405902      4.408372     0.002470    Cartesian    0.06
    193 y         -8.811805     -8.813353    -0.001549    Cartesian    0.02
    193 z          0.000000      0.000000     0.000000    Cartesian    0.00
    194 x          0.000000     -0.002302    -0.002302    Cartesian    0.00
    194 y         -4.405902     -4.401453     0.004449    Cartesian   -0.10
    194 z          8.811805      8.809506    -0.002299    Cartesian   -0.03
    195 x          0.000000     -0.000472    -0.000472    Cartesian    0.00
    195 y         -8.811805     -8.841703    -0.029899    Cartesian    0.34
    195 z          0.000000      0.000000     0.000000    Cartesian    0.00
    196 x          6.608853      6.591114    -0.017740    Cartesian   -0.27
    196 y         11.014756     10.984588    -0.030168    Cartesian   -0.27
    196 z          6.608853      6.597163    -0.011690    Cartesian   -0.18
    197 x          2.202951      2.193570    -0.009381    Cartesian   -0.43
    197 y          6.608853      6.590045    -0.018809    Cartesian   -0.28
    197 z         11.014756     10.978424    -0.036332    Cartesian   -0.33
    198 x         11.014756     10.978529    -0.036227    Cartesian   -0.33
    198 y         -2.202951     -2.195382     0.007570    Cartesian   -0.34
    198 z          6.608853      6.594126    -0.014727    Cartesian   -0.22
    199 x          2.202951      2.196807    -0.006144    Cartesian   -0.28
    199 y         -2.202951     -2.200654     0.002297    Cartesian   -0.10
    199 z         11.014756     10.969980    -0.044775    Cartesian   -0.41
    200 x          6.608853      6.573191    -0.035662    Cartesian   -0.54
    200 y         -6.608853     -6.574457     0.034396    Cartesian   -0.52
    200 z          6.608853      6.575932    -0.032921    Cartesian   -0.50
    201 x         -2.202951     -2.191925     0.011027    Cartesian   -0.50
    201 y         -6.608853     -6.571109     0.037744    Cartesian   -0.57
    201 z          6.608853      6.572021    -0.036832    Cartesian   -0.56
--------------------------------------------------------------------------------


  Time to end of optimisation  =       24.0462 seconds


  Peak dynamic memory used =      90.31 MB 


  Timing analysis for GULP :

--------------------------------------------------------------------------------
  Task / Subroutine                                          Time (Seconds)
--------------------------------------------------------------------------------
  Calculation of reciprocal space energy and derivatives          0.0008
  Calculation of reciprocal space energy using symmetry           0.0014
  Calculation of real space energy and derivatives                0.0043
  Calculation of real space energy using symmetry                 0.0135
  Calculation for region 1 energy and derivatives (2-b)          12.5203
  Calculation for region 2a energy                                8.0881
  Calculation for region 2b energy                                0.0060
  Calculation and manipulation of Hessian matrix                  2.9576
  Calculation of matrix inversion                                 0.3217
  Symmetry generation of equivalent positions                     0.0048
--------------------------------------------------------------------------------
  Total CPU time                                                 24.0462
--------------------------------------------------------------------------------


  Dump file written as Na3OCl.grs


  Job Finished at 15:19.31 19th January    2021                               

