********************************************************************************
*                       GENERAL UTILITY LATTICE PROGRAM                        *
*                                 Julian Gale                                  *
*                       Curtin Institute for Computation                       *
*                    School of Molecular and Life Sciences                     *
*                    Curtin University, Western Australia                      *
********************************************************************************
* Version = 5.2.0 * Last modified =  10th September 2020                       *
********************************************************************************
*  optimise     - perform optimisation run                                     *
*  conp         - constant pressure calculation                                *
*  property     - calculate properties for final geometry                      *
*  defect       - perform defect calculation after bulk run                    *
*  compare      - compare initial and final structures                         *
********************************************************************************

  Job Started  at 15:19.07 19th January    2021                               

  Number of CPUs =     1


  Total number of configurations input =      1

********************************************************************************
*  Input for Configuration =   1                                               *
********************************************************************************

  Formula = OClNa3                                                      

  Number of irreducible atoms/shells =       5


  Total number atoms/shells =       7

  Dimensionality = 3               :  Bulk   


  Symmetry :

  Crystal family                   :  Cubic       
  Crystal class  (Groth - 1921)    :  Cubic Hexakisoctahedral              

  Space group (centrosymmetric)    :  P M 3 M         

  Patterson group                  :  P m -3 m 

  Cartesian lattice vectors (Angstroms) :

        4.504000    0.000000    0.000000
        0.000000    4.504000    0.000000
        0.000000    0.000000    4.504000

  Cell parameters (Angstroms/Degrees):

  a =       4.5040    alpha =  90.0000
  b =       4.5040    beta  =  90.0000
  c =       4.5040    gamma =  90.0000

  Initial cell volume =          91.368216 Angs**3

  Temperature of configuration =   0.00     K 

  Pressure of configuration =         0.000 GPa 

  Fractional coordinates of asymmetric unit :

--------------------------------------------------------------------------------
   No.  Atomic       x           y          z         Charge      Occupancy
        Label      (Frac)      (Frac)     (Frac)        (e)         (Frac)  
--------------------------------------------------------------------------------
      1 O     c    0.000000    0.000000    0.000000     0.18300    1.000000    
      2 Cl    c    0.500000    0.500000    0.500000     1.48500    1.000000    
      3 Na    c    0.500000    0.000000    0.000000     1.00000    1.000000    
      4 O     s    0.000000    0.000000    0.000000    -2.18300    1.000000    
      5 Cl    s    0.500000    0.500000    0.500000    -2.48500    1.000000    
--------------------------------------------------------------------------------


  Constraints : 

--------------------------------------------------------------------------------
  Constraint no.      Unconstrained     Constrained    Coefficient    Offset
                         Variable         Variable
--------------------------------------------------------------------------------
           1              Strain 1        Strain 2       1.00000      0.0000
           2              Strain 1        Strain 3       1.00000      0.0000
--------------------------------------------------------------------------------


********************************************************************************
*  General input information                                                   *
********************************************************************************

  Species output for all configurations : 

--------------------------------------------------------------------------------
  Species    Type    Atomic    Atomic    Charge       Radii (Angs)     Library
                     Number     Mass       (e)     Cova   Ionic  VDW   Symbol
--------------------------------------------------------------------------------
    Na       Core       11      22.99   1.000000   0.970  0.000  2.300          
    O        Core        8      16.00   0.183000   0.730  0.000  1.360          
    O        Shell       8       0.00  -2.183000   0.730  0.000  1.360          
    Cl       Core       17      35.45   1.485000   0.990  0.000  1.650          
    Cl       Shell      17       0.00  -2.485000   0.990  0.000  1.650          
    Mg       Core       12      24.31   0.415000   1.100  0.000  0.000          
    Mg       Shell      12       0.00   1.585000   1.100  0.000  0.000          
    Ca       Core       20      40.08  -1.135000   0.990  0.000  0.000          
    Ca       Shell      20       0.00   3.135000   0.990  0.000  0.000          
    Sr       Core       38      87.62  -1.251000   1.120  0.000  0.000          
    Sr       Shell      38       0.00   3.251000   1.120  0.000  0.000          
    Ba       Core       56     137.33  -7.203000   1.340  0.000  0.000          
    Ba       Shell      56       0.00   9.203000   1.340  0.000  0.000          
--------------------------------------------------------------------------------


  Lattice summation method               =    Ewald          (3-D)
                                         =    Parry          (2-D)
                                         =    Saunders et al (1-D)
  Accuracy factor for lattice sums       =   12.000


  Analytic derivatives to be used

  Time limit = Infinity

  Maximum range for interatomic potentials =    100000.000000 Angstroms

  General interatomic potentials :

--------------------------------------------------------------------------------
Atom  Types   Potential      Parameter       Value         Units   Cutoffs(Ang)
  1     2                                                            Min /  Max 
--------------------------------------------------------------------------------
O    c O    s Spring (c-s)  Spring k 2       593.71600    eV*Ang^-2 0.000  0.800
                            Spring k 4       0.0000000    eV*Ang^-4 
--------------------------------------------------------------------------------
Cl   c Cl   s Spring (c-s)  Spring k 2       29.380000    eV*Ang^-2 0.000  0.800
                            Spring k 4       0.0000000    eV*Ang^-4 
--------------------------------------------------------------------------------
Mg   c Mg   s Spring (c-s)  Spring k 2       361.60000    eV*Ang^-2 0.000  0.800
                            Spring k 4       0.0000000    eV*Ang^-4 
--------------------------------------------------------------------------------
Ca   c Ca   s Spring (c-s)  Spring k 2       110.20000    eV*Ang^-2 0.000  0.800
                            Spring k 4       0.0000000    eV*Ang^-4 
--------------------------------------------------------------------------------
Sr   c Sr   s Spring (c-s)  Spring k 2       71.700000    eV*Ang^-2 0.000  0.800
                            Spring k 4       0.0000000    eV*Ang^-4 
--------------------------------------------------------------------------------
Ba   c Ba   s Spring (c-s)  Spring k 2       495.20000    eV*Ang^-2 0.000  0.800
                            Spring k 4       0.0000000    eV*Ang^-4 
--------------------------------------------------------------------------------
Na   c Na   c Buckingham    Buckingham A     1788.1900    eV        0.000 12.000
                            Buckingham rho  0.15900000    Ang       
                            Buckingham C     0.0000000    eV*Ang^6  
--------------------------------------------------------------------------------
Na   c O    s Buckingham    Buckingham A     588.38000    eV        0.000 12.000
                            Buckingham rho  0.33800000    Ang       
                            Buckingham C     0.0000000    eV*Ang^6  
--------------------------------------------------------------------------------
Na   c Cl   s Buckingham    Buckingham A     1170.4100    eV        0.000 12.000
                            Buckingham rho  0.31500000    Ang       
                            Buckingham C     0.0000000    eV*Ang^6  
--------------------------------------------------------------------------------
O    s O    s Buckingham    Buckingham A     22764.300    eV        0.000 12.000
                            Buckingham rho  0.14900000    Ang       
                            Buckingham C     13.190000    eV*Ang^6  
--------------------------------------------------------------------------------
O    s Cl   s Buckingham    Buckingham A     8286.9100    eV        0.000 12.000
                            Buckingham rho  0.25900000    Ang       
                            Buckingham C     62.200000    eV*Ang^6  
--------------------------------------------------------------------------------
Cl   s Cl   s Buckingham    Buckingham A     1227.2000    eV        0.000 12.000
                            Buckingham rho  0.32100000    Ang       
                            Buckingham C     14.530000    eV*Ang^6  
--------------------------------------------------------------------------------
O    s Mg   s Buckingham    Buckingham A     1428.5000    eV        0.000 12.000
                            Buckingham rho  0.29450000    Ang       
                            Buckingham C     0.0000000    eV*Ang^6  
--------------------------------------------------------------------------------
Mg   s Cl   s Buckingham    Buckingham A     4914.5400    eV        0.000 12.000
                            Buckingham rho  0.25700000    Ang       
                            Buckingham C     0.0000000    eV*Ang^6  
--------------------------------------------------------------------------------
O    s Ca   s Buckingham    Buckingham A     1090.4000    eV        0.000 12.000
                            Buckingham rho  0.34370000    Ang       
                            Buckingham C     0.0000000    eV*Ang^6  
--------------------------------------------------------------------------------
Cl   s Ca   s Buckingham    Buckingham A     2302.0000    eV        0.000 12.000
                            Buckingham rho  0.34020000    Ang       
                            Buckingham C     0.0000000    eV*Ang^6  
--------------------------------------------------------------------------------
O    s Sr   s Buckingham    Buckingham A     959.10000    eV        0.000 12.000
                            Buckingham rho  0.37210000    Ang       
                            Buckingham C     0.0000000    eV*Ang^6  
--------------------------------------------------------------------------------
Cl   s Sr   s Buckingham    Buckingham A     2191.0900    eV        0.000 12.000
                            Buckingham rho  0.34570000    Ang       
                            Buckingham C     0.0000000    eV*Ang^6  
--------------------------------------------------------------------------------
O    s Ba   s Buckingham    Buckingham A     905.70000    eV        0.000 12.000
                            Buckingham rho  0.39760000    Ang       
                            Buckingham C     0.0000000    eV*Ang^6  
--------------------------------------------------------------------------------
Cl   s Ba   s Buckingham    Buckingham A     2704.5500    eV        0.000 12.000
                            Buckingham rho  0.35280000    Ang       
                            Buckingham C     0.0000000    eV*Ang^6  
--------------------------------------------------------------------------------

********************************************************************************
*  Output for configuration   1                                                *
********************************************************************************


  Components of energy : 

--------------------------------------------------------------------------------
  Interatomic potentials     =           4.94315381 eV    
  Monopole - monopole (real) =         -10.03624526 eV    
  Monopole - monopole (recip)=         -29.53581274 eV    
  Monopole - monopole (total)=         -39.57205800 eV    
--------------------------------------------------------------------------------
  Total lattice energy       =         -34.62890419 eV    
--------------------------------------------------------------------------------
  Total lattice energy       =           -3341.1599 kJ/(mole unit cells)
--------------------------------------------------------------------------------


  Number of variables =        1

  Maximum number of calculations  =          1000
  Maximum Hessian update interval =            10
  Maximum step size               =   1.000000000
  Maximum parameter tolerance     =   0.000010000
  Maximum function  tolerance     =   0.000010000
  Maximum gradient  tolerance     =   0.001000000
  Maximum gradient  component     =   0.010000000

  Symmetry constrained optimisation

  Symmetry used for second derivatives

  Cell parameters to be optimised using strains

  Newton-Raphson optimiser to be used

  BFGS hessian update to be used

  Lower half triangular hessian to be used

  Start of bulk optimisation :

  Cycle:      0 Energy:       -34.628904  Gnorm:      4.328237  CPU:    0.016
  ** Hessian calculated **
  Cycle:      1 Energy:       -34.677667  Gnorm:      0.044008  CPU:    0.021
  Cycle:      2 Energy:       -34.677671  Gnorm:      0.003653  CPU:    0.025


  **** Optimisation achieved ****


  Final energy =     -34.67767136 eV
  Final Gnorm  =       0.00000010

  Components of energy : 

--------------------------------------------------------------------------------
  Interatomic potentials     =           5.77546103 eV    
  Monopole - monopole (real) =         -10.25970290 eV    
  Monopole - monopole (recip)=         -30.19342950 eV    
  Monopole - monopole (total)=         -40.45313239 eV    
--------------------------------------------------------------------------------
  Total lattice energy       =         -34.67767136 eV    
--------------------------------------------------------------------------------
  Total lattice energy       =           -3345.8652 kJ/(mole unit cells)
--------------------------------------------------------------------------------

  Final asymmetric unit coordinates :

--------------------------------------------------------------------------------
   No.  Atomic        x           y           z         Radius
        Label       (Frac)      (Frac)      (Frac)       (Angs) 
--------------------------------------------------------------------------------
     1  O     c     0.000000    0.000000    0.000000    0.000000
     2  Cl    c     0.500000    0.500000    0.500000    0.000000
     3  Na    c     0.500000    0.000000    0.000000    0.000000
     4  O     s     0.000000    0.000000    0.000000    0.000000
     5  Cl    s     0.500000    0.500000    0.500000    0.000000
--------------------------------------------------------------------------------

  Final Cartesian lattice vectors (Angstroms) :

        4.405902    0.000000    0.000000
        0.000000    4.405902    0.000000
        0.000000    0.000000    4.405902


  Final cell parameters and derivatives :

--------------------------------------------------------------------------------
       a            4.405902 Angstrom     dE/de1(xx)     0.000000 eV/strain
       b            4.405902 Angstrom     dE/de2(yy)     0.000000 eV/strain
       c            4.405902 Angstrom     dE/de3(zz)     0.000000 eV/strain
       alpha       90.000000 Degrees      dE/de4(yz)     0.000000 eV/strain
       beta        90.000000 Degrees      dE/de5(xz)     0.000000 eV/strain
       gamma       90.000000 Degrees      dE/de6(xy)     0.000000 eV/strain
--------------------------------------------------------------------------------

  Primitive cell volume =            85.527266 Angs**3

  Density of cell =      2.338030 g/cm**3

  Non-primitive cell volume =            85.527266 Angs**3


  Final internal derivatives :

--------------------------------------------------------------------------------
   No.  Atomic          a             b             c           Radius
        Label          (eV)          (eV)          (eV)        (eV/Angs)
--------------------------------------------------------------------------------
      1 O     c       0.000000      0.000000      0.000000      0.000000
      2 Cl    c       0.000000      0.000000      0.000000      0.000000
      3 Na    c       0.000000      0.000000      0.000000      0.000000
      4 O     s       0.000000      0.000000      0.000000      0.000000
      5 Cl    s       0.000000      0.000000      0.000000      0.000000
--------------------------------------------------------------------------------
  Maximum abs         0.000000      0.000000      0.000000      0.000000
--------------------------------------------------------------------------------

  Comparison of initial and final structures : 

--------------------------------------------------------------------------------
  Parameter   Initial value   Final value   Difference    Units      Percent
--------------------------------------------------------------------------------
    Volume        91.368216     85.527266    -5.840950    Angs**3     -6.39
    a              4.504000      4.405902    -0.098098    Angstroms   -2.18
    b              4.504000      4.405902    -0.098098    Angstroms   -2.18
    c              4.504000      4.405902    -0.098098    Angstroms   -2.18
    alpha         90.000000     90.000000     0.000000    Degrees      0.00
    beta          90.000000     90.000000     0.000000    Degrees      0.00
    gamma         90.000000     90.000000     0.000000    Degrees      0.00
      1 x          0.000000      0.000000     0.000000    Fractional   0.00
      1 y          0.000000      0.000000     0.000000    Fractional   0.00
      1 z          0.000000      0.000000     0.000000    Fractional   0.00
      2 x          0.500000      0.500000     0.000000    Fractional   0.00
      2 y          0.500000      0.500000     0.000000    Fractional   0.00
      2 z          0.500000      0.500000     0.000000    Fractional   0.00
      3 x          0.500000      0.500000     0.000000    Fractional   0.00
      3 y          0.000000      0.000000     0.000000    Fractional   0.00
      3 z          0.000000      0.000000     0.000000    Fractional   0.00
      4 x          0.000000      0.000000     0.000000    Fractional   0.00
      4 y          0.000000      0.000000     0.000000    Fractional   0.00
      4 z          0.000000      0.000000     0.000000    Fractional   0.00
      5 x          0.500000      0.500000     0.000000    Fractional   0.00
      5 y          0.500000      0.500000     0.000000    Fractional   0.00
      5 z          0.500000      0.500000     0.000000    Fractional   0.00
--------------------------------------------------------------------------------


  Born effective charge tensors : 

-------------------------------------------------------------------------------
  Atom             x           y             z
-------------------------------------------------------------------------------
    1 O     x      -2.2939      0.0000      0.0000
            y       0.0000     -2.2939      0.0000
            z       0.0000      0.0000     -2.2939
-------------------------------------------------------------------------------
    2 Cl    x      -0.9918     -0.0000      0.0000
            y      -0.0000     -0.9918      0.0000
            z       0.0000      0.0000     -0.9918
-------------------------------------------------------------------------------
    3 Na    x       0.8372     -0.0000     -0.0000
            y      -0.0000      1.2243     -0.0000
            z       0.0000     -0.0000      1.2243
-------------------------------------------------------------------------------




  Elastic Constant Matrix: (Units=GPa)

-------------------------------------------------------------------------------
  Indices      1         2         3         4         5         6    
-------------------------------------------------------------------------------
       1     82.7680   24.3534   24.3534   -0.0000    0.0000   -0.0000
       2     24.3534   82.7680   24.3534   -0.0000   -0.0000   -0.0000
       3     24.3534   24.3534   82.7680    0.0000   -0.0000    0.0000
       4     -0.0000   -0.0000    0.0000   24.3534   -0.0000   -0.0000
       5      0.0000   -0.0000   -0.0000   -0.0000   24.3534   -0.0000
       6     -0.0000   -0.0000    0.0000   -0.0000   -0.0000   24.3534
-------------------------------------------------------------------------------


  Elastic Compliance Matrix: (Units=1/GPa)

-------------------------------------------------------------------------------
  Indices      1         2         3         4         5         6    
-------------------------------------------------------------------------------
       1    0.013948 -0.003171 -0.003171 -0.000000 -0.000000  0.000000
       2   -0.003171  0.013948 -0.003171  0.000000 -0.000000  0.000000
       3   -0.003171 -0.003171  0.013948 -0.000000  0.000000 -0.000000
       4   -0.000000  0.000000 -0.000000  0.041062  0.000000  0.000000
       5   -0.000000 -0.000000  0.000000  0.000000  0.041062  0.000000
       6    0.000000  0.000000 -0.000000  0.000000  0.000000  0.041062
-------------------------------------------------------------------------------

  Mechanical properties :

-------------------------------------------------------------------------------
  Convention :                    Reuss         Voigt         Hill
-------------------------------------------------------------------------------
  Bulk  Modulus (GPa)     =      43.82493      43.82493      43.82493
  Shear Modulus (GPa)     =      26.08758      26.29496      26.19127
-------------------------------------------------------------------------------
  Velocity S-wave (km/s)  =       3.34035       3.35360       3.34698
  Velocity P-wave (km/s)  =       5.79842       5.80861       5.80351
-------------------------------------------------------------------------------
  Compressibility (1/GPa) =    0.02281806
-------------------------------------------------------------------------------
  Stress axis :                     x             y             z
-------------------------------------------------------------------------------
  Youngs Moduli (GPa)     =      71.69479      71.69479      71.69479
-------------------------------------------------------------------------------
  Poissons Ratio (x)      =                     0.22734       0.22734
  Poissons Ratio (y)      =       0.22734                     0.22734
  Poissons Ratio (z)      =       0.22734       0.22734
-------------------------------------------------------------------------------


  Piezoelectric Strain Matrix: (Units=C/m**2)

-------------------------------------------------------------------------------
  Indices      1         2         3         4         5         6    
-------------------------------------------------------------------------------
       x    -0.00000  -0.00000  -0.00000  -0.00000   0.00000   0.00000
       y    -0.00000   0.00000  -0.00000   0.00000  -0.00000   0.00000
       z     0.00000   0.00000   0.00000  -0.00000   0.00000  -0.00000
-------------------------------------------------------------------------------


  Piezoelectric Stress Matrix: (Units=10**-11 C/N)

-------------------------------------------------------------------------------
  Indices      1         2         3         4         5         6    
-------------------------------------------------------------------------------
       x    -0.00000  -0.00000  -0.00000  -0.00000   0.00000   0.00000
       y    -0.00000   0.00000  -0.00000   0.00000  -0.00000   0.00000
       z     0.00000   0.00000  -0.00000  -0.00000   0.00000  -0.00000
-------------------------------------------------------------------------------


  Static dielectric constant tensor : 

-------------------------------------------------------------------------------
              x         y         z
-------------------------------------------------------------------------------
       x    11.08357  -0.00000  -0.00000
       y    -0.00000  11.08357  -0.00000
       z    -0.00000  -0.00000  11.08357
--------------------------------------------------------------------------------

  High frequency dielectric constant tensor : 

-------------------------------------------------------------------------------
              x         y         z
-------------------------------------------------------------------------------
       x     1.50771  -0.00000  -0.00000
       y    -0.00000   1.50771  -0.00000
       z    -0.00000  -0.00000   1.50771
-------------------------------------------------------------------------------

  Static refractive indices : 

-------------------------------------------------------------------------------
    1 =    3.32920      2 =    3.32920      3 =    3.32920
-------------------------------------------------------------------------------

  High frequency refractive indices : 

-------------------------------------------------------------------------------
    1 =    1.22789      2 =    1.22789      3 =    1.22789
-------------------------------------------------------------------------------


  Time to end of optimisation =       0.0348 seconds

********************************************************************************
*  Defect calculation for configuration   1 :                                  *
********************************************************************************

  Total number of defects =      3

  Total charge on defect  =   2.00

  Defect centre is at   2.2520   2.2520   0.0000  Angs

  Region 1 radius =  12.0000      Number of ions =    622

  Number of symmetry inequivalent region 1 ions  =    201

  Region 2 radius =  16.0000      Number of ions =    762

  Number of symmetry inequivalent region 2a ions =    224

  Region 2a mode = 4 : screened electrostatics due to region 1 
                       neglect correction to region 1 forces from 2a
                       region 2a displacements based on defects only

  Region 2a ions will only interact with defects in region 1

  Vacancies:

--------------------------------------------------------------------------------
    Specification type     Symbol/Number         x          y          z
--------------------------------------------------------------------------------
    Cartesian                                0.000000   0.000000   0.000000
    Cartesian                                4.504000   4.504000   0.000000
--------------------------------------------------------------------------------

  Interstitials:

--------------------------------------------------------------------------------
    Specification type     Symbol/Number         x          y          z
--------------------------------------------------------------------------------
    Atom/Cartesian          O                0.540480   0.540480   0.000000
--------------------------------------------------------------------------------


  Symmetry reduced region 1 (Relative to defect centre) :

--------------------------------------------------------------------------------
   No.   Atomic       x            y             z       Radius  Multiplicity   
         Label      (Angs)       (Angs)        (Angs)    (Angs)     
--------------------------------------------------------------------------------
     1  Na    c     -0.0490 *     2.1539 *     0.0000    0.0000     2          
     2  Cl    c     -0.0490 *    -0.0490      -2.2030 *  0.0000     2          
     3  Na    c     -0.0490 *    -2.2520 *     0.0000    0.0000     2          
     4  O     c     -1.7115      -1.7115       0.0000    0.0000     1    Defect
     5  O     c      2.1539 *    -2.2520 *     0.0000    0.0000     2          
     6  Na    c      2.1539 *     2.1539      -2.2030 *  0.0000     2          
     7  Na    c      2.1539 *    -2.2520 *    -2.2030 *  0.0000     4          
     8  Na    c     -2.2520 *    -2.2520      -2.2030 *  0.0000     2          
     9  Na    c      4.3569 *     2.1539 *     0.0000    0.0000     2          
    10  Cl    c     -0.0490 *     4.3569 *    -2.2030 *  0.0000     4          
    11  Na    c     -0.0490 *     2.1539 *     4.4059 *  0.0000     4          
    12  Na    c      4.3569 *    -2.2520 *     0.0000    0.0000     2          
    13  Na    c     -0.0490 *    -2.2520 *     4.4059 *  0.0000     4          
    14  Na    c     -4.4550 *     2.1539 *     0.0000    0.0000     2          
    15  Cl    c     -0.0490 *    -4.4550 *    -2.2030 *  0.0000     4          
    16  Na    c     -4.4550 *    -2.2520 *     0.0000    0.0000     2          
    17  O     c      2.1539 *     2.1539       4.4059 *  0.0000     2          
    18  O     c      2.1539 *    -2.2520 *     4.4059 *  0.0000     4          
    19  O     c     -2.2520 *    -2.2520       4.4059 *  0.0000     2          
    20  Cl    c      4.3569 *     4.3569      -2.2030 *  0.0000     2          
    21  Na    c     -0.0490 *     6.5598 *     0.0000    0.0000     2          
    22  Na    c      4.3569 *     2.1539 *     4.4059 *  0.0000     4          
    23  Na    c      4.3569 *    -2.2520 *     4.4059 *  0.0000     4          
    24  Cl    c     -0.0490 *    -0.0490       6.6089 *  0.0000     2          
    25  Cl    c      4.3569 *    -4.4550 *    -2.2030 *  0.0000     4          
    26  Na    c     -4.4550 *     2.1539 *     4.4059 *  0.0000     4          
    27  Na    c     -0.0490 *    -6.6579 *     0.0000    0.0000     2          
    28  Na    c     -4.4550 *    -2.2520 *     4.4059 *  0.0000     4          
    29  Cl    c     -4.4550 *    -4.4550      -2.2030 *  0.0000     2          
    30  O     c      2.1539 *     6.5598 *     0.0000    0.0000     2          
    31  O     c      6.5598 *    -2.2520 *     0.0000    0.0000     2          
    32  O     c      2.1539 *    -6.6579 *     0.0000    0.0000     2          
    33  O     c     -2.2520 *    -6.6579 *     0.0000    0.0000     2          
    34  Na    c      2.1539 *     6.5598 *    -2.2030 *  0.0000     4          
    35  Na    c      2.1539 *     2.1539       6.6089 *  0.0000     2          
    36  Na    c      6.5598 *    -2.2520 *    -2.2030 *  0.0000     4          
    37  Na    c      2.1539 *    -2.2520 *     6.6089 *  0.0000     4          
    38  Na    c      2.1539 *    -6.6579 *    -2.2030 *  0.0000     4          
    39  Na    c     -2.2520 *    -2.2520       6.6089 *  0.0000     2          
    40  Na    c     -2.2520 *    -6.6579 *    -2.2030 *  0.0000     4          
    41  Na    c      4.3569 *     6.5598 *     0.0000    0.0000     2          
    42  Na    c     -0.0490 *     6.5598 *     4.4059 *  0.0000     4          
    43  Cl    c     -0.0490 *     4.3569 *     6.6089 *  0.0000     4          
    44  Na    c     -4.4550 *     6.5598 *     0.0000    0.0000     2          
    45  Na    c      4.3569 *    -6.6579 *     0.0000    0.0000     2          
    46  Cl    c     -0.0490 *    -4.4550 *     6.6089 *  0.0000     4          
    47  Na    c     -0.0490 *    -6.6579 *     4.4059 *  0.0000     4          
    48  Na    c     -4.4550 *    -6.6579 *     0.0000    0.0000     2          
    49  O     c      2.1539 *     6.5598 *     4.4059 *  0.0000     4          
    50  O     c      6.5598 *    -2.2520 *     4.4059 *  0.0000     4          
    51  O     c      2.1539 *    -6.6579 *     4.4059 *  0.0000     4          
    52  O     c     -2.2520 *    -6.6579 *     4.4059 *  0.0000     4          
    53  Na    c      4.3569 *     6.5598 *     4.4059 *  0.0000     4          
    54  Na    c      8.7628 *     2.1539 *     0.0000    0.0000     2          
    55  Cl    c     -0.0490 *     8.7628 *    -2.2030 *  0.0000     4          
    56  Cl    c      4.3569 *     4.3569       6.6089 *  0.0000     2          
    57  Na    c      8.7628 *    -2.2520 *     0.0000    0.0000     2          
    58  Na    c     -0.0490 *     2.1539 *     8.8118 *  0.0000     4          
    59  Na    c     -4.4550 *     6.5598 *     4.4059 *  0.0000     4          
    60  Cl    c      4.3569 *    -4.4550 *     6.6089 *  0.0000     4          
    61  Na    c     -0.0490 *    -2.2520 *     8.8118 *  0.0000     4          
    62  Na    c      4.3569 *    -6.6579 *     4.4059 *  0.0000     4          
    63  Na    c     -8.8609 *     2.1539 *     0.0000    0.0000     2          
    64  Cl    c     -0.0490 *    -8.8609 *    -2.2030 *  0.0000     4          
    65  Cl    c     -4.4550 *    -4.4550       6.6089 *  0.0000     2          
    66  Na    c     -8.8609 *    -2.2520 *     0.0000    0.0000     2          
    67  Na    c     -4.4550 *    -6.6579 *     4.4059 *  0.0000     4          
    68  O     c      6.5598 *     6.5598       0.0000    0.0000     1          
    69  O     c      2.1539 *     2.1539       8.8118 *  0.0000     2          
    70  O     c      2.1539 *    -2.2520 *     8.8118 *  0.0000     4          
    71  O     c      6.5598 *    -6.6579 *     0.0000    0.0000     2          
    72  O     c     -2.2520 *    -2.2520       8.8118 *  0.0000     2          
    73  O     c     -6.6579 *    -6.6579       0.0000    0.0000     1          
    74  Na    c      6.5598 *     6.5598      -2.2030 *  0.0000     2          
    75  Na    c      2.1539 *     6.5598 *     6.6089 *  0.0000     4          
    76  Na    c      6.5598 *    -2.2520 *     6.6089 *  0.0000     4          
    77  Na    c      6.5598 *    -6.6579 *    -2.2030 *  0.0000     4          
    78  Na    c      2.1539 *    -6.6579 *     6.6089 *  0.0000     4          
    79  Na    c     -2.2520 *    -6.6579 *     6.6089 *  0.0000     4          
    80  Na    c     -6.6579 *    -6.6579      -2.2030 *  0.0000     2          
    81  Cl    c      4.3569 *     8.7628 *    -2.2030 *  0.0000     4          
    82  Na    c      8.7628 *     2.1539 *     4.4059 *  0.0000     4          
    83  Na    c      4.3569 *     2.1539 *     8.8118 *  0.0000     4          
    84  Na    c      8.7628 *    -2.2520 *     4.4059 *  0.0000     4          
    85  Cl    c      8.7628 *    -4.4550 *    -2.2030 *  0.0000     4          
    86  Na    c      4.3569 *    -2.2520 *     8.8118 *  0.0000     4          
    87  Na    c     -4.4550 *     2.1539 *     8.8118 *  0.0000     4          
    88  Cl    c      4.3569 *    -8.8609 *    -2.2030 *  0.0000     4          
    89  Na    c     -8.8609 *     2.1539 *     4.4059 *  0.0000     4          
    90  Na    c     -4.4550 *    -2.2520 *     8.8118 *  0.0000     4          
    91  Na    c     -8.8609 *    -2.2520 *     4.4059 *  0.0000     4          
    92  Cl    c     -4.4550 *    -8.8609 *    -2.2030 *  0.0000     4          
    93  O     c      6.5598 *     6.5598       4.4059 *  0.0000     2          
    94  O     c      6.5598 *    -6.6579 *     4.4059 *  0.0000     4          
    95  O     c     -6.6579 *    -6.6579       4.4059 *  0.0000     2          
    96  Na    c      8.7628 *     6.5598 *     0.0000    0.0000     2          
    97  Na    c     -0.0490 *    10.9657 *     0.0000    0.0000     2          
    98  Cl    c     -0.0490 *     8.7628 *     6.6089 *  0.0000     4          
    99  Na    c     -0.0490 *     6.5598 *     8.8118 *  0.0000     4          
   100  Na    c      8.7628 *    -6.6579 *     0.0000    0.0000     2          
   101  Cl    c     -0.0490 *    -0.0490      11.0148 *  0.0000     2          
   102  Na    c     -8.8609 *     6.5598 *     0.0000    0.0000     2          
   103  Na    c     -0.0490 *    -6.6579 *     8.8118 *  0.0000     4          
   104  Cl    c     -0.0490 *    -8.8609 *     6.6089 *  0.0000     4          
   105  Na    c     -0.0490 *   -11.0638 *     0.0000    0.0000     2          
   106  Na    c     -8.8609 *    -6.6579 *     0.0000    0.0000     2          
   107  O     c      2.1539 *    10.9657 *     0.0000    0.0000     2          
   108  O     c      2.1539 *     6.5598 *     8.8118 *  0.0000     4          
   109  O     c     10.9657 *    -2.2520 *     0.0000    0.0000     2          
   110  O     c      6.5598 *    -2.2520 *     8.8118 *  0.0000     4          
   111  O     c      2.1539 *    -6.6579 *     8.8118 *  0.0000     4          
   112  O     c      2.1539 *   -11.0638 *     0.0000    0.0000     2          
   113  O     c     -2.2520 *    -6.6579 *     8.8118 *  0.0000     4          
   114  O     c     -2.2520 *   -11.0638 *     0.0000    0.0000     2          
   115  Na    c      6.5598 *     6.5598       6.6089 *  0.0000     2          
   116  Na    c      2.1539 *    10.9657 *    -2.2030 *  0.0000     4          
   117  Na    c     10.9657 *    -2.2520 *    -2.2030 *  0.0000     4          
   118  Na    c      2.1539 *     2.1539      11.0148 *  0.0000     2          
   119  Na    c      2.1539 *    -2.2520 *    11.0148 *  0.0000     4          
   120  Na    c      6.5598 *    -6.6579 *     6.6089 *  0.0000     4          
   121  Na    c     -2.2520 *    -2.2520      11.0148 *  0.0000     2          
   122  Na    c      2.1539 *   -11.0638 *    -2.2030 *  0.0000     4          
   123  Na    c     -2.2520 *   -11.0638 *    -2.2030 *  0.0000     4          
   124  Na    c     -6.6579 *    -6.6579       6.6089 *  0.0000     2          
   125  Na    c      4.3569 *    10.9657 *     0.0000    0.0000     2          
   126  Na    c      8.7628 *     6.5598 *     4.4059 *  0.0000     4          
   127  Cl    c      4.3569 *     8.7628 *     6.6089 *  0.0000     4          
   128  Na    c     -0.0490 *    10.9657 *     4.4059 *  0.0000     4          
   129  Na    c      4.3569 *     6.5598 *     8.8118 *  0.0000     4          
   130  Na    c     -4.4550 *    10.9657 *     0.0000    0.0000     2          
   131  Cl    c     -0.0490 *     4.3569 *    11.0148 *  0.0000     4          
   132  Cl    c      8.7628 *    -4.4550 *     6.6089 *  0.0000     4          
   133  Na    c     -4.4550 *     6.5598 *     8.8118 *  0.0000     4          
   134  Na    c      8.7628 *    -6.6579 *     4.4059 *  0.0000     4          
   135  Na    c      4.3569 *    -6.6579 *     8.8118 *  0.0000     4          
   136  Na    c     -8.8609 *     6.5598 *     4.4059 *  0.0000     4          
   137  Cl    c     -0.0490 *    -4.4550 *    11.0148 *  0.0000     4          
   138  Cl    c      4.3569 *    -8.8609 *     6.6089 *  0.0000     4          
   139  Na    c      4.3569 *   -11.0638 *     0.0000    0.0000     2          
   140  Na    c     -0.0490 *   -11.0638 *     4.4059 *  0.0000     4          
   141  Na    c     -4.4550 *    -6.6579 *     8.8118 *  0.0000     4          
   142  Cl    c     -4.4550 *    -8.8609 *     6.6089 *  0.0000     4          
   143  Na    c     -4.4550 *   -11.0638 *     0.0000    0.0000     2          
   144  Na    c     -8.8609 *    -6.6579 *     4.4059 *  0.0000     4          
   145  Cl    s     -0.0490 *    -0.0490      -2.2030 *  0.0000     2          
   146  O     s     -1.7115      -1.7115       0.0000    0.0000     1    Defect
   147  O     s      2.1539 *    -2.2520 *     0.0000    0.0000     2          
   148  Cl    s     -0.0490 *     4.3569 *    -2.2030 *  0.0000     4          
   149  Cl    s     -0.0490 *    -4.4550 *    -2.2030 *  0.0000     4          
   150  O     s      2.1539 *     2.1539       4.4059 *  0.0000     2          
   151  O     s      2.1539 *    -2.2520 *     4.4059 *  0.0000     4          
   152  O     s     -2.2520 *    -2.2520       4.4059 *  0.0000     2          
   153  Cl    s      4.3569 *     4.3569      -2.2030 *  0.0000     2          
   154  Cl    s     -0.0490 *    -0.0490       6.6089 *  0.0000     2          
   155  Cl    s      4.3569 *    -4.4550 *    -2.2030 *  0.0000     4          
   156  Cl    s     -4.4550 *    -4.4550      -2.2030 *  0.0000     2          
   157  O     s      2.1539 *     6.5598 *     0.0000    0.0000     2          
   158  O     s      6.5598 *    -2.2520 *     0.0000    0.0000     2          
   159  O     s      2.1539 *    -6.6579 *     0.0000    0.0000     2          
   160  O     s     -2.2520 *    -6.6579 *     0.0000    0.0000     2          
   161  Cl    s     -0.0490 *     4.3569 *     6.6089 *  0.0000     4          
   162  Cl    s     -0.0490 *    -4.4550 *     6.6089 *  0.0000     4          
   163  O     s      2.1539 *     6.5598 *     4.4059 *  0.0000     4          
   164  O     s      6.5598 *    -2.2520 *     4.4059 *  0.0000     4          
   165  O     s      2.1539 *    -6.6579 *     4.4059 *  0.0000     4          
   166  O     s     -2.2520 *    -6.6579 *     4.4059 *  0.0000     4          
   167  Cl    s     -0.0490 *     8.7628 *    -2.2030 *  0.0000     4          
   168  Cl    s      4.3569 *     4.3569       6.6089 *  0.0000     2          
   169  Cl    s      4.3569 *    -4.4550 *     6.6089 *  0.0000     4          
   170  Cl    s     -0.0490 *    -8.8609 *    -2.2030 *  0.0000     4          
   171  Cl    s     -4.4550 *    -4.4550       6.6089 *  0.0000     2          
   172  O     s      6.5598 *     6.5598       0.0000    0.0000     1          
   173  O     s      2.1539 *     2.1539       8.8118 *  0.0000     2          
   174  O     s      2.1539 *    -2.2520 *     8.8118 *  0.0000     4          
   175  O     s      6.5598 *    -6.6579 *     0.0000    0.0000     2          
   176  O     s     -2.2520 *    -2.2520       8.8118 *  0.0000     2          
   177  O     s     -6.6579 *    -6.6579       0.0000    0.0000     1          
   178  Cl    s      4.3569 *     8.7628 *    -2.2030 *  0.0000     4          
   179  Cl    s      8.7628 *    -4.4550 *    -2.2030 *  0.0000     4          
   180  Cl    s      4.3569 *    -8.8609 *    -2.2030 *  0.0000     4          
   181  Cl    s     -4.4550 *    -8.8609 *    -2.2030 *  0.0000     4          
   182  O     s      6.5598 *     6.5598       4.4059 *  0.0000     2          
   183  O     s      6.5598 *    -6.6579 *     4.4059 *  0.0000     4          
   184  O     s     -6.6579 *    -6.6579       4.4059 *  0.0000     2          
   185  Cl    s     -0.0490 *     8.7628 *     6.6089 *  0.0000     4          
   186  Cl    s     -0.0490 *    -0.0490      11.0148 *  0.0000     2          
   187  Cl    s     -0.0490 *    -8.8609 *     6.6089 *  0.0000     4          
   188  O     s      2.1539 *    10.9657 *     0.0000    0.0000     2          
   189  O     s      2.1539 *     6.5598 *     8.8118 *  0.0000     4          
   190  O     s     10.9657 *    -2.2520 *     0.0000    0.0000     2          
   191  O     s      6.5598 *    -2.2520 *     8.8118 *  0.0000     4          
   192  O     s      2.1539 *    -6.6579 *     8.8118 *  0.0000     4          
   193  O     s      2.1539 *   -11.0638 *     0.0000    0.0000     2          
   194  O     s     -2.2520 *    -6.6579 *     8.8118 *  0.0000     4          
   195  O     s     -2.2520 *   -11.0638 *     0.0000    0.0000     2          
   196  Cl    s      4.3569 *     8.7628 *     6.6089 *  0.0000     4          
   197  Cl    s     -0.0490 *     4.3569 *    11.0148 *  0.0000     4          
   198  Cl    s      8.7628 *    -4.4550 *     6.6089 *  0.0000     4          
   199  Cl    s     -0.0490 *    -4.4550 *    11.0148 *  0.0000     4          
   200  Cl    s      4.3569 *    -8.8609 *     6.6089 *  0.0000     4          
   201  Cl    s     -4.4550 *    -8.8609 *     6.6089 *  0.0000     4          
--------------------------------------------------------------------------------


  Constraints on symmetry reduced coordinates :

--------------------------------------------------------------------------------
  Constraint no.      Unconstrained     Constrained    Coefficient    
                         Variable         Variable
--------------------------------------------------------------------------------
           1                 2 x             2 y         1.00000
           2                 6 x             6 y         1.00000
           3                 8 x             8 y         1.00000
           4                17 x            17 y         1.00000
           5                19 x            19 y         1.00000
           6                20 x            20 y         1.00000
           7                24 x            24 y         1.00000
           8                29 x            29 y         1.00000
           9                35 x            35 y         1.00000
          10                39 x            39 y         1.00000
          11                56 x            56 y         1.00000
          12                65 x            65 y         1.00000
          13                68 x            68 y         1.00000
          14                69 x            69 y         1.00000
          15                72 x            72 y         1.00000
          16                73 x            73 y         1.00000
          17                74 x            74 y         1.00000
          18                80 x            80 y         1.00000
          19                93 x            93 y         1.00000
          20                95 x            95 y         1.00000
          21               101 x           101 y         1.00000
          22               115 x           115 y         1.00000
          23               118 x           118 y         1.00000
          24               121 x           121 y         1.00000
          25               124 x           124 y         1.00000
          26               145 x           145 y         1.00000
          27               150 x           150 y         1.00000
          28               152 x           152 y         1.00000
          29               153 x           153 y         1.00000
          30               154 x           154 y         1.00000
          31               156 x           156 y         1.00000
          32               168 x           168 y         1.00000
          33               171 x           171 y         1.00000
          34               172 x           172 y         1.00000
          35               173 x           173 y         1.00000
          36               176 x           176 y         1.00000
          37               177 x           177 y         1.00000
          38               182 x           182 y         1.00000
          39               184 x           184 y         1.00000
          40               186 x           186 y         1.00000
--------------------------------------------------------------------------------


  Components of defect energy : 

--------------------------------------------------------------------------------
  Region 1 - region 1                   =     91.79203671 eV
  Region 1 - region 2a (unrelaxed)      =    -54.53702426 eV
  Region 1 - 2a (relaxed - correction)  =     -1.05221904 eV
  Region 1 (Total)                      =     36.20279341 eV
  Region 2a                             =      0.52656199 eV
  Region 2b                             =     -1.66384195 eV
--------------------------------------------------------------------------------
  Total defect energy                   =     35.06551345 eV
--------------------------------------------------------------------------------

  Largest displacement in region 2 =   0.0492 Angstroms


  Number of variables =      507

  Maximum number of calculations  =        1000
  Maximum Hessian update interval =          10
  Maximum step size               =   1.0000000
  Maximum parameter tolerance     =   0.0000100
  Maximum function  tolerance     =   0.0000100
  Maximum gradient  tolerance     =   0.0010000

  Symmetry adapted optimisation

  Symmetry to be used for second derivatives

  Newton-Raphson optimiser to be used

  BFGS hessian update to be used

  Lower half triangular hessian to be used

  Start of defect optimisation :

  Cycle:      0 Defect Energy:  35.065513  Gnorm:     0.086820  CPU:    2.612
  ** Hessian calculated **
  Cycle:      1 Defect Energy:  32.063480  Gnorm:     0.075940  CPU:    8.657
  Cycle:      2 Defect Energy:  31.263551  Gnorm:     0.069428  CPU:   11.577
  ** Hessian calculated **
  Cycle:      3 Defect Energy:  26.146843  Gnorm:     0.039355  CPU:   16.909
  Cycle:      4 Defect Energy:  25.322237  Gnorm:     0.033090  CPU:   19.184
  ** Hessian calculated **
  Cycle:      5 Defect Energy:  24.237809  Gnorm:     0.025306  CPU:   22.997
  Cycle:      6 Defect Energy:  23.041186  Gnorm:     0.003869  CPU:   24.038
  Cycle:      7 Defect Energy:  22.958861  Gnorm:     0.002413  CPU:   24.311
  Cycle:      8 Defect Energy:  22.917432  Gnorm:     0.001524  CPU:   24.616
  Cycle:      9 Defect Energy:  22.902024  Gnorm:     0.001011  CPU:   24.920
  Cycle:     10 Defect Energy:  22.894712  Gnorm:     0.000705  CPU:   25.257
  Cycle:     11 Defect Energy:  22.890481  Gnorm:     0.000395  CPU:   25.573
  Cycle:     12 Defect Energy:  22.889288  Gnorm:     0.000259  CPU:   25.886
  Cycle:     13 Defect Energy:  22.888837  Gnorm:     0.000181  CPU:   26.192
  Cycle:     14 Defect Energy:  22.888636  Gnorm:     0.000128  CPU:   26.529
  ** Hessian calculated **
  Cycle:     15 Defect Energy:  22.888545  Gnorm:     0.000089  CPU:   27.992
  Cycle:     16 Defect Energy:  22.888513  Gnorm:     0.000063  CPU:   28.295


  **** Optimisation achieved ****


  Final defect energy  =       22.88850599
  Final defect Gnorm   =        0.00004397

  Components of defect energy : 

--------------------------------------------------------------------------------
  Region 1 - region 1                   =     72.02000005 eV
  Region 1 - region 2a (unrelaxed)      =    -47.10771397 eV
  Region 1 - 2a (relaxed - correction)  =     -0.75483067 eV
  Region 1 (Total)                      =     24.15745541 eV
  Region 2a                             =      0.37672375 eV
  Region 2b                             =     -1.64567317 eV
--------------------------------------------------------------------------------
  Total defect energy                   =     22.88850599 eV
--------------------------------------------------------------------------------

  Largest displacement in region 2 =   0.0492 Angstroms

  Final coordinates of region 1 :

--------------------------------------------------------------------------------
   No.  Atomic        x           y           z          Radius      Charge
        Label       (Angs)      (Angs)      (Angs)       (Angs)       (e) 
--------------------------------------------------------------------------------
     1  Na    c     1.981693    4.638611    0.000000    0.000000    1.000000
     2  Na    c     4.638611    1.981693    0.000000    0.000000    1.000000
     3  Cl    c     2.704984    2.704984   -1.880132    0.000000    1.485000
     4  Cl    c     2.704984    2.704984    1.880132    0.000000    1.485000
     5  Na    c     2.510278    0.150983    0.000000    0.000000    1.000000
     6  Na    c     0.150983    2.510278    0.000000    0.000000    1.000000
     7  O     c     0.540480    0.540480    0.000000    0.000000    0.183000
     8  O     c     4.615432   -0.111546    0.000000    0.000000    0.183000
     9  O     c    -0.111546    4.615432    0.000000    0.000000    0.183000
    10  Na    c     4.525128    4.525128   -2.517686    0.000000    1.000000
    11  Na    c     4.525128    4.525128    2.517686    0.000000    1.000000
    12  Na    c     4.546550   -0.144330   -2.230257    0.000000    1.000000
    13  Na    c     4.546550   -0.144330    2.230257    0.000000    1.000000
    14  Na    c    -0.144330    4.546550   -2.230257    0.000000    1.000000
    15  Na    c    -0.144330    4.546550    2.230257    0.000000    1.000000
    16  Na    c     0.236990    0.236990   -2.153195    0.000000    1.000000
    17  Na    c     0.236990    0.236990    2.153195    0.000000    1.000000
    18  Na    c     6.943916    4.457300    0.000000    0.000000    1.000000
    19  Na    c     4.457300    6.943916    0.000000    0.000000    1.000000
    20  Cl    c     2.560844    6.458996   -1.959438    0.000000    1.485000
    21  Cl    c     2.560844    6.458996    1.959438    0.000000    1.485000
    22  Cl    c     6.458996    2.560844   -1.959438    0.000000    1.485000
    23  Cl    c     6.458996    2.560844    1.959438    0.000000    1.485000
    24  Na    c     2.216055    4.431879    4.456347    0.000000    1.000000
    25  Na    c     2.216055    4.431879   -4.456347    0.000000    1.000000
    26  Na    c     4.431879    2.216055    4.456347    0.000000    1.000000
    27  Na    c     4.431879    2.216055   -4.456347    0.000000    1.000000
    28  Na    c     6.752571   -0.224217    0.000000    0.000000    1.000000
    29  Na    c    -0.224217    6.752571    0.000000    0.000000    1.000000
    30  Na    c     2.253102   -0.057312    4.523868    0.000000    1.000000
    31  Na    c     2.253102   -0.057312   -4.523868    0.000000    1.000000
    32  Na    c    -0.057312    2.253102    4.523868    0.000000    1.000000
    33  Na    c    -0.057312    2.253102   -4.523868    0.000000    1.000000
    34  Na    c    -2.276058    4.406027    0.000000    0.000000    1.000000
    35  Na    c     4.406027   -2.276058    0.000000    0.000000    1.000000
    36  Cl    c     2.272779   -2.113008   -2.179535    0.000000    1.485000
    37  Cl    c     2.272779   -2.113008    2.179535    0.000000    1.485000
    38  Cl    c    -2.113008    2.272779   -2.179535    0.000000    1.485000
    39  Cl    c    -2.113008    2.272779    2.179535    0.000000    1.485000
    40  Na    c    -2.093871    0.236990    0.000000    0.000000    1.000000
    41  Na    c     0.236990   -2.093871    0.000000    0.000000    1.000000
    42  O     c     4.441966    4.441966    4.582156    0.000000    0.183000
    43  O     c     4.441966    4.441966   -4.582156    0.000000    0.183000
    44  O     c     4.451111    0.019712    4.406262    0.000000    0.183000
    45  O     c     4.451111    0.019712   -4.406262    0.000000    0.183000
    46  O     c     0.019712    4.451111    4.406262    0.000000    0.183000
    47  O     c     0.019712    4.451111   -4.406262    0.000000    0.183000
    48  O     c     0.080503    0.080503    4.360122    0.000000    0.183000
    49  O     c     0.080503    0.080503   -4.360122    0.000000    0.183000
    50  Cl    c     6.386830    6.386830   -1.892407    0.000000    1.485000
    51  Cl    c     6.386830    6.386830    1.892407    0.000000    1.485000
    52  Na    c     2.191772    8.957580    0.000000    0.000000    1.000000
    53  Na    c     8.957580    2.191772    0.000000    0.000000    1.000000
    54  Na    c     6.652202    4.416976    4.618857    0.000000    1.000000
    55  Na    c     6.652202    4.416976   -4.618857    0.000000    1.000000
    56  Na    c     4.416976    6.652202    4.618857    0.000000    1.000000
    57  Na    c     4.416976    6.652202   -4.618857    0.000000    1.000000
    58  Na    c     6.645670   -0.065337    4.509187    0.000000    1.000000
    59  Na    c     6.645670   -0.065337   -4.509187    0.000000    1.000000
    60  Na    c    -0.065337    6.645670    4.509187    0.000000    1.000000
    61  Na    c    -0.065337    6.645670   -4.509187    0.000000    1.000000
    62  Cl    c     2.215540    2.215540    6.572570    0.000000    1.485000
    63  Cl    c     2.215540    2.215540   -6.572570    0.000000    1.485000
    64  Cl    c     6.675967   -2.186103   -2.236775    0.000000    1.485000
    65  Cl    c     6.675967   -2.186103    2.236775    0.000000    1.485000
    66  Cl    c    -2.186103    6.675967   -2.236775    0.000000    1.485000
    67  Cl    c    -2.186103    6.675967    2.236775    0.000000    1.485000
    68  Na    c    -2.216780    4.433075    4.463591    0.000000    1.000000
    69  Na    c    -2.216780    4.433075   -4.463591    0.000000    1.000000
    70  Na    c     4.433075   -2.216780    4.463591    0.000000    1.000000
    71  Na    c     4.433075   -2.216780   -4.463591    0.000000    1.000000
    72  Na    c     2.239473   -4.513576    0.000000    0.000000    1.000000
    73  Na    c    -4.513576    2.239473    0.000000    0.000000    1.000000
    74  Na    c    -2.152354    0.007833    4.291197    0.000000    1.000000
    75  Na    c    -2.152354    0.007833   -4.291197    0.000000    1.000000
    76  Na    c     0.007833   -2.152354    4.291197    0.000000    1.000000
    77  Na    c     0.007833   -2.152354   -4.291197    0.000000    1.000000
    78  Cl    c    -1.973619   -1.973619   -2.037973    0.000000    1.485000
    79  Cl    c    -1.973619   -1.973619    2.037973    0.000000    1.485000
    80  O     c     4.424089    8.995966    0.000000    0.000000    0.183000
    81  O     c     8.995966    4.424089    0.000000    0.000000    0.183000
    82  O     c     8.889744   -0.010916    0.000000    0.000000    0.183000
    83  O     c    -0.010916    8.889744    0.000000    0.000000    0.183000
    84  O     c     4.439664   -4.437219    0.000000    0.000000    0.183000
    85  O     c    -4.437219    4.439664    0.000000    0.000000    0.183000
    86  O     c     0.061819   -4.346690    0.000000    0.000000    0.183000
    87  O     c    -4.346690    0.061819    0.000000    0.000000    0.183000
    88  Na    c     4.398069    8.929121   -2.229091    0.000000    1.000000
    89  Na    c     4.398069    8.929121    2.229091    0.000000    1.000000
    90  Na    c     8.929121    4.398069   -2.229091    0.000000    1.000000
    91  Na    c     8.929121    4.398069    2.229091    0.000000    1.000000
    92  Na    c     4.344333    4.344333    6.714286    0.000000    1.000000
    93  Na    c     4.344333    4.344333   -6.714286    0.000000    1.000000
    94  Na    c     8.928082   -0.061870   -2.211678    0.000000    1.000000
    95  Na    c     8.928082   -0.061870    2.211678    0.000000    1.000000
    96  Na    c    -0.061870    8.928082   -2.211678    0.000000    1.000000
    97  Na    c    -0.061870    8.928082    2.211678    0.000000    1.000000
    98  Na    c     4.443944    0.027714    6.635124    0.000000    1.000000
    99  Na    c     4.443944    0.027714   -6.635124    0.000000    1.000000
   100  Na    c     0.027714    4.443944    6.635124    0.000000    1.000000
   101  Na    c     0.027714    4.443944   -6.635124    0.000000    1.000000
   102  Na    c     4.427392   -4.452257   -2.210114    0.000000    1.000000
   103  Na    c     4.427392   -4.452257    2.210114    0.000000    1.000000
   104  Na    c    -4.452257    4.427392   -2.210114    0.000000    1.000000
   105  Na    c    -4.452257    4.427392    2.210114    0.000000    1.000000
   106  Na    c    -0.027158   -0.027158    6.591779    0.000000    1.000000
   107  Na    c    -0.027158   -0.027158   -6.591779    0.000000    1.000000
   108  Na    c     0.023117   -4.385389   -2.186692    0.000000    1.000000
   109  Na    c     0.023117   -4.385389    2.186692    0.000000    1.000000
   110  Na    c    -4.385389    0.023117   -2.186692    0.000000    1.000000
   111  Na    c    -4.385389    0.023117    2.186692    0.000000    1.000000
   112  Na    c     6.644264    8.969791    0.000000    0.000000    1.000000
   113  Na    c     8.969791    6.644264    0.000000    0.000000    1.000000
   114  Na    c     2.206538    8.874407    4.471755    0.000000    1.000000
   115  Na    c     2.206538    8.874407   -4.471755    0.000000    1.000000
   116  Na    c     8.874407    2.206538    4.471755    0.000000    1.000000
   117  Na    c     8.874407    2.206538   -4.471755    0.000000    1.000000
   118  Cl    c     2.193943    6.640910    6.582994    0.000000    1.485000
   119  Cl    c     2.193943    6.640910   -6.582994    0.000000    1.485000
   120  Cl    c     6.640910    2.193943    6.582994    0.000000    1.485000
   121  Cl    c     6.640910    2.193943   -6.582994    0.000000    1.485000
   122  Na    c    -2.241253    8.963667    0.000000    0.000000    1.000000
   123  Na    c     8.963667   -2.241253    0.000000    0.000000    1.000000
   124  Na    c     6.642630   -4.426382    0.000000    0.000000    1.000000
   125  Na    c    -4.426382    6.642630    0.000000    0.000000    1.000000
   126  Cl    c     2.233911   -2.157105    6.570247    0.000000    1.485000
   127  Cl    c     2.233911   -2.157105   -6.570247    0.000000    1.485000
   128  Cl    c    -2.157105    2.233911    6.570247    0.000000    1.485000
   129  Cl    c    -2.157105    2.233911   -6.570247    0.000000    1.485000
   130  Na    c     2.209168   -4.403199    4.420708    0.000000    1.000000
   131  Na    c     2.209168   -4.403199   -4.420708    0.000000    1.000000
   132  Na    c    -4.403199    2.209168    4.420708    0.000000    1.000000
   133  Na    c    -4.403199    2.209168   -4.420708    0.000000    1.000000
   134  Na    c    -2.147327   -4.289507    0.000000    0.000000    1.000000
   135  Na    c    -4.289507   -2.147327    0.000000    0.000000    1.000000
   136  O     c     4.416050    8.830835    4.422224    0.000000    0.183000
   137  O     c     4.416050    8.830835   -4.422224    0.000000    0.183000
   138  O     c     8.830835    4.416050    4.422224    0.000000    0.183000
   139  O     c     8.830835    4.416050   -4.422224    0.000000    0.183000
   140  O     c     8.820918    0.017233    4.396847    0.000000    0.183000
   141  O     c     8.820918    0.017233   -4.396847    0.000000    0.183000
   142  O     c     0.017233    8.820918    4.396847    0.000000    0.183000
   143  O     c     0.017233    8.820918   -4.396847    0.000000    0.183000
   144  O     c     4.414811   -4.403694    4.405502    0.000000    0.183000
   145  O     c     4.414811   -4.403694   -4.405502    0.000000    0.183000
   146  O     c    -4.403694    4.414811    4.405502    0.000000    0.183000
   147  O     c    -4.403694    4.414811   -4.405502    0.000000    0.183000
   148  O     c     0.010381   -4.367004    4.379711    0.000000    0.183000
   149  O     c     0.010381   -4.367004   -4.379711    0.000000    0.183000
   150  O     c    -4.367004    0.010381    4.379711    0.000000    0.183000
   151  O     c    -4.367004    0.010381   -4.379711    0.000000    0.183000
   152  Na    c     6.619413    8.896862    4.470145    0.000000    1.000000
   153  Na    c     6.619413    8.896862   -4.470145    0.000000    1.000000
   154  Na    c     8.896862    6.619413    4.470145    0.000000    1.000000
   155  Na    c     8.896862    6.619413   -4.470145    0.000000    1.000000
   156  Na    c    11.117507    4.412124    0.000000    0.000000    1.000000
   157  Na    c     4.412124   11.117507    0.000000    0.000000    1.000000
   158  Cl    c     2.201563   11.009315   -2.221703    0.000000    1.485000
   159  Cl    c     2.201563   11.009315    2.221703    0.000000    1.485000
   160  Cl    c    11.009315    2.201563   -2.221703    0.000000    1.485000
   161  Cl    c    11.009315    2.201563    2.221703    0.000000    1.485000
   162  Cl    c     6.644807    6.644807    6.592001    0.000000    1.485000
   163  Cl    c     6.644807    6.644807   -6.592001    0.000000    1.485000
   164  Na    c    11.075995   -0.015426    0.000000    0.000000    1.000000
   165  Na    c    -0.015426   11.075995    0.000000    0.000000    1.000000
   166  Na    c     2.195973    4.408085    8.924480    0.000000    1.000000
   167  Na    c     2.195973    4.408085   -8.924480    0.000000    1.000000
   168  Na    c     4.408085    2.195973    8.924480    0.000000    1.000000
   169  Na    c     4.408085    2.195973   -8.924480    0.000000    1.000000
   170  Na    c    -2.216912    8.838860    4.413695    0.000000    1.000000
   171  Na    c    -2.216912    8.838860   -4.413695    0.000000    1.000000
   172  Na    c     8.838860   -2.216912    4.413695    0.000000    1.000000
   173  Na    c     8.838860   -2.216912   -4.413695    0.000000    1.000000
   174  Cl    c     6.609866   -2.167952    6.586033    0.000000    1.485000
   175  Cl    c     6.609866   -2.167952   -6.586033    0.000000    1.485000
   176  Cl    c    -2.167952    6.609866    6.586033    0.000000    1.485000
   177  Cl    c    -2.167952    6.609866   -6.586033    0.000000    1.485000
   178  Na    c     2.201741   -0.006536    8.814303    0.000000    1.000000
   179  Na    c     2.201741   -0.006536   -8.814303    0.000000    1.000000
   180  Na    c    -0.006536    2.201741    8.814303    0.000000    1.000000
   181  Na    c    -0.006536    2.201741   -8.814303    0.000000    1.000000
   182  Na    c     6.622621   -4.440865    4.412653    0.000000    1.000000
   183  Na    c     6.622621   -4.440865   -4.412653    0.000000    1.000000
   184  Na    c    -4.440865    6.622621    4.412653    0.000000    1.000000
   185  Na    c    -4.440865    6.622621   -4.412653    0.000000    1.000000
   186  Na    c    -6.635728    4.470368    0.000000    0.000000    1.000000
   187  Na    c     4.470368   -6.635728    0.000000    0.000000    1.000000
   188  Cl    c     2.212814   -6.581122   -2.201234    0.000000    1.485000
   189  Cl    c     2.212814   -6.581122    2.201234    0.000000    1.485000
   190  Cl    c    -6.581122    2.212814   -2.201234    0.000000    1.485000
   191  Cl    c    -6.581122    2.212814    2.201234    0.000000    1.485000
   192  Cl    c    -2.163281   -2.163281    6.551394    0.000000    1.485000
   193  Cl    c    -2.163281   -2.163281   -6.551394    0.000000    1.485000
   194  Na    c    -6.590052   -0.047751    0.000000    0.000000    1.000000
   195  Na    c    -0.047751   -6.590052    0.000000    0.000000    1.000000
   196  Na    c    -2.191624   -4.433394    4.431773    0.000000    1.000000
   197  Na    c    -2.191624   -4.433394   -4.431773    0.000000    1.000000
   198  Na    c    -4.433394   -2.191624    4.431773    0.000000    1.000000
   199  Na    c    -4.433394   -2.191624   -4.431773    0.000000    1.000000
   200  O     c     8.835447    8.835447    0.000000    0.000000    0.183000
   201  O     c     4.406310    4.406310    8.862626    0.000000    0.183000
   202  O     c     4.406310    4.406310   -8.862626    0.000000    0.183000
   203  O     c     4.412606    0.002947    8.819433    0.000000    0.183000
   204  O     c     4.412606    0.002947   -8.819433    0.000000    0.183000
   205  O     c     0.002947    4.412606    8.819433    0.000000    0.183000
   206  O     c     0.002947    4.412606   -8.819433    0.000000    0.183000
   207  O     c     8.839020   -4.418278    0.000000    0.000000    0.183000
   208  O     c    -4.418278    8.839020    0.000000    0.000000    0.183000
   209  O     c     0.000162    0.000162    8.798445    0.000000    0.183000
   210  O     c     0.000162    0.000162   -8.798445    0.000000    0.183000
   211  O     c    -4.362477   -4.362477    0.000000    0.000000    0.183000
   212  Na    c     8.880332    8.880332   -2.207484    0.000000    1.000000
   213  Na    c     8.880332    8.880332    2.207484    0.000000    1.000000
   214  Na    c     4.416074    8.876535    6.636494    0.000000    1.000000
   215  Na    c     4.416074    8.876535   -6.636494    0.000000    1.000000
   216  Na    c     8.876535    4.416074    6.636494    0.000000    1.000000
   217  Na    c     8.876535    4.416074   -6.636494    0.000000    1.000000
   218  Na    c     8.839011   -0.023437    6.620528    0.000000    1.000000
   219  Na    c     8.839011   -0.023437   -6.620528    0.000000    1.000000
   220  Na    c    -0.023437    8.839011    6.620528    0.000000    1.000000
   221  Na    c    -0.023437    8.839011   -6.620528    0.000000    1.000000
   222  Na    c     8.825477   -4.438506   -2.211042    0.000000    1.000000
   223  Na    c     8.825477   -4.438506    2.211042    0.000000    1.000000
   224  Na    c    -4.438506    8.825477   -2.211042    0.000000    1.000000
   225  Na    c    -4.438506    8.825477    2.211042    0.000000    1.000000
   226  Na    c     4.422318   -4.444261    6.611549    0.000000    1.000000
   227  Na    c     4.422318   -4.444261   -6.611549    0.000000    1.000000
   228  Na    c    -4.444261    4.422318    6.611549    0.000000    1.000000
   229  Na    c    -4.444261    4.422318   -6.611549    0.000000    1.000000
   230  Na    c    -0.009822   -4.361830    6.593673    0.000000    1.000000
   231  Na    c    -0.009822   -4.361830   -6.593673    0.000000    1.000000
   232  Na    c    -4.361830   -0.009822    6.593673    0.000000    1.000000
   233  Na    c    -4.361830   -0.009822   -6.593673    0.000000    1.000000
   234  Na    c    -4.430756   -4.430756   -2.194209    0.000000    1.000000
   235  Na    c    -4.430756   -4.430756    2.194209    0.000000    1.000000
   236  Cl    c     6.640470   10.995953   -2.220789    0.000000    1.485000
   237  Cl    c     6.640470   10.995953    2.220789    0.000000    1.485000
   238  Cl    c    10.995953    6.640470   -2.220789    0.000000    1.485000
   239  Cl    c    10.995953    6.640470    2.220789    0.000000    1.485000
   240  Na    c    11.040551    4.392661    4.425516    0.000000    1.000000
   241  Na    c    11.040551    4.392661   -4.425516    0.000000    1.000000
   242  Na    c     4.392661   11.040551    4.425516    0.000000    1.000000
   243  Na    c     4.392661   11.040551   -4.425516    0.000000    1.000000
   244  Na    c     6.613612    4.403804    8.840339    0.000000    1.000000
   245  Na    c     6.613612    4.403804   -8.840339    0.000000    1.000000
   246  Na    c     4.403804    6.613612    8.840339    0.000000    1.000000
   247  Na    c     4.403804    6.613612   -8.840339    0.000000    1.000000
   248  Na    c    11.031709   -0.004950    4.424847    0.000000    1.000000
   249  Na    c    11.031709   -0.004950   -4.424847    0.000000    1.000000
   250  Na    c    -0.004950   11.031709    4.424847    0.000000    1.000000
   251  Na    c    -0.004950   11.031709   -4.424847    0.000000    1.000000
   252  Cl    c    11.015891   -2.183126   -2.198743    0.000000    1.485000
   253  Cl    c    11.015891   -2.183126    2.198743    0.000000    1.485000
   254  Cl    c    -2.183126   11.015891   -2.198743    0.000000    1.485000
   255  Cl    c    -2.183126   11.015891    2.198743    0.000000    1.485000
   256  Na    c     6.615984   -0.015477    8.837685    0.000000    1.000000
   257  Na    c     6.615984   -0.015477   -8.837685    0.000000    1.000000
   258  Na    c    -0.015477    6.615984    8.837685    0.000000    1.000000
   259  Na    c    -0.015477    6.615984   -8.837685    0.000000    1.000000
   260  Na    c    -2.206857    4.396583    8.806703    0.000000    1.000000
   261  Na    c    -2.206857    4.396583   -8.806703    0.000000    1.000000
   262  Na    c     4.396583   -2.206857    8.806703    0.000000    1.000000
   263  Na    c     4.396583   -2.206857   -8.806703    0.000000    1.000000
   264  Cl    c     6.618220   -6.586954   -2.201703    0.000000    1.485000
   265  Cl    c     6.618220   -6.586954    2.201703    0.000000    1.485000
   266  Cl    c    -6.586954    6.618220   -2.201703    0.000000    1.485000
   267  Cl    c    -6.586954    6.618220    2.201703    0.000000    1.485000
   268  Na    c    -6.617273    4.390068    4.408316    0.000000    1.000000
   269  Na    c    -6.617273    4.390068   -4.408316    0.000000    1.000000
   270  Na    c     4.390068   -6.617273    4.408316    0.000000    1.000000
   271  Na    c     4.390068   -6.617273   -4.408316    0.000000    1.000000
   272  Na    c    -2.201187   -0.004019    8.827854    0.000000    1.000000
   273  Na    c    -2.201187   -0.004019   -8.827854    0.000000    1.000000
   274  Na    c    -0.004019   -2.201187    8.827854    0.000000    1.000000
   275  Na    c    -0.004019   -2.201187   -8.827854    0.000000    1.000000
   276  Na    c    -6.598654    0.015236    4.395972    0.000000    1.000000
   277  Na    c    -6.598654    0.015236   -4.395972    0.000000    1.000000
   278  Na    c     0.015236   -6.598654    4.395972    0.000000    1.000000
   279  Na    c     0.015236   -6.598654   -4.395972    0.000000    1.000000
   280  Cl    c    -2.182694   -6.559597   -2.193131    0.000000    1.485000
   281  Cl    c    -2.182694   -6.559597    2.193131    0.000000    1.485000
   282  Cl    c    -6.559597   -2.182694   -2.193131    0.000000    1.485000
   283  Cl    c    -6.559597   -2.182694    2.193131    0.000000    1.485000
   284  O     c     8.810212    8.810212    4.394976    0.000000    0.183000
   285  O     c     8.810212    8.810212   -4.394976    0.000000    0.183000
   286  O     c     8.824827   -4.414024    4.411414    0.000000    0.183000
   287  O     c     8.824827   -4.414024   -4.411414    0.000000    0.183000
   288  O     c    -4.414024    8.824827    4.411414    0.000000    0.183000
   289  O     c    -4.414024    8.824827   -4.411414    0.000000    0.183000
   290  O     c    -4.391822   -4.391822    4.389901    0.000000    0.183000
   291  O     c    -4.391822   -4.391822   -4.389901    0.000000    0.183000
   292  Na    c    11.044151    8.847465    0.000000    0.000000    1.000000
   293  Na    c     8.847465   11.044151    0.000000    0.000000    1.000000
   294  Na    c     2.198764   13.279024    0.000000    0.000000    1.000000
   295  Na    c    13.279024    2.198764    0.000000    0.000000    1.000000
   296  Cl    c     2.219054   11.000763    6.591158    0.000000    1.485000
   297  Cl    c     2.219054   11.000763   -6.591158    0.000000    1.485000
   298  Cl    c    11.000763    2.219054    6.591158    0.000000    1.485000
   299  Cl    c    11.000763    2.219054   -6.591158    0.000000    1.485000
   300  Na    c     2.199635    8.808654    8.834449    0.000000    1.000000
   301  Na    c     2.199635    8.808654   -8.834449    0.000000    1.000000
   302  Na    c     8.808654    2.199635    8.834449    0.000000    1.000000
   303  Na    c     8.808654    2.199635   -8.834449    0.000000    1.000000
   304  Na    c    11.034966   -4.477847    0.000000    0.000000    1.000000
   305  Na    c    -4.477847   11.034966    0.000000    0.000000    1.000000
   306  Cl    c     2.202162    2.202162   10.989016    0.000000    1.485000
   307  Cl    c     2.202162    2.202162  -10.989016    0.000000    1.485000
   308  Na    c    -6.626269    8.810066    0.000000    0.000000    1.000000
   309  Na    c     8.810066   -6.626269    0.000000    0.000000    1.000000
   310  Na    c     2.202117   -4.423982    8.818660    0.000000    1.000000
   311  Na    c     2.202117   -4.423982   -8.818660    0.000000    1.000000
   312  Na    c    -4.423982    2.202117    8.818660    0.000000    1.000000
   313  Na    c    -4.423982    2.202117   -8.818660    0.000000    1.000000
   314  Cl    c     2.208427   -6.579234    6.589597    0.000000    1.485000
   315  Cl    c     2.208427   -6.579234   -6.589597    0.000000    1.485000
   316  Cl    c    -6.579234    2.208427    6.589597    0.000000    1.485000
   317  Cl    c    -6.579234    2.208427   -6.589597    0.000000    1.485000
   318  Na    c     2.201356   -8.800971    0.000000    0.000000    1.000000
   319  Na    c    -8.800971    2.201356    0.000000    0.000000    1.000000
   320  Na    c    -6.596964   -4.366490    0.000000    0.000000    1.000000
   321  Na    c    -4.366490   -6.596964    0.000000    0.000000    1.000000
   322  O     c     4.408777   13.258750    0.000000    0.000000    0.183000
   323  O     c    13.258750    4.408777    0.000000    0.000000    0.183000
   324  O     c     4.409168    8.811869    8.811806    0.000000    0.183000
   325  O     c     4.409168    8.811869   -8.811806    0.000000    0.183000
   326  O     c     8.811869    4.409168    8.811806    0.000000    0.183000
   327  O     c     8.811869    4.409168   -8.811806    0.000000    0.183000
   328  O     c    13.238302    0.002868    0.000000    0.000000    0.183000
   329  O     c     0.002868   13.238302    0.000000    0.000000    0.183000
   330  O     c     8.813162   -0.001399    8.810528    0.000000    0.183000
   331  O     c     8.813162   -0.001399   -8.810528    0.000000    0.183000
   332  O     c    -0.001399    8.813162    8.810528    0.000000    0.183000
   333  O     c    -0.001399    8.813162   -8.810528    0.000000    0.183000
   334  O     c     4.406467   -4.402480    8.805472    0.000000    0.183000
   335  O     c     4.406467   -4.402480   -8.805472    0.000000    0.183000
   336  O     c    -4.402480    4.406467    8.805472    0.000000    0.183000
   337  O     c    -4.402480    4.406467   -8.805472    0.000000    0.183000
   338  O     c     4.412457   -8.816605    0.000000    0.000000    0.183000
   339  O     c    -8.816605    4.412457    0.000000    0.000000    0.183000
   340  O     c     0.002496   -4.395174    8.801590    0.000000    0.183000
   341  O     c     0.002496   -4.395174   -8.801590    0.000000    0.183000
   342  O     c    -4.395174    0.002496    8.801590    0.000000    0.183000
   343  O     c    -4.395174    0.002496   -8.801590    0.000000    0.183000
   344  O     c    -0.003731   -8.797279    0.000000    0.000000    0.183000
   345  O     c    -8.797279   -0.003731    0.000000    0.000000    0.183000
   346  Na    c     8.810444    8.810444    6.620781    0.000000    1.000000
   347  Na    c     8.810444    8.810444   -6.620781    0.000000    1.000000
   348  Na    c     4.402877   13.271353   -2.211128    0.000000    1.000000
   349  Na    c     4.402877   13.271353    2.211128    0.000000    1.000000
   350  Na    c    13.271353    4.402877   -2.211128    0.000000    1.000000
   351  Na    c    13.271353    4.402877    2.211128    0.000000    1.000000
   352  Na    c    13.252806   -0.014224   -2.209204    0.000000    1.000000
   353  Na    c    13.252806   -0.014224    2.209204    0.000000    1.000000
   354  Na    c    -0.014224   13.252806   -2.209204    0.000000    1.000000
   355  Na    c    -0.014224   13.252806    2.209204    0.000000    1.000000
   356  Na    c     4.429026    4.429026   11.045711    0.000000    1.000000
   357  Na    c     4.429026    4.429026  -11.045711    0.000000    1.000000
   358  Na    c     4.400436   -0.042093   11.026412    0.000000    1.000000
   359  Na    c     4.400436   -0.042093  -11.026412    0.000000    1.000000
   360  Na    c    -0.042093    4.400436   11.026412    0.000000    1.000000
   361  Na    c    -0.042093    4.400436  -11.026412    0.000000    1.000000
   362  Na    c     8.813283   -4.421652    6.616384    0.000000    1.000000
   363  Na    c     8.813283   -4.421652   -6.616384    0.000000    1.000000
   364  Na    c    -4.421652    8.813283    6.616384    0.000000    1.000000
   365  Na    c    -4.421652    8.813283   -6.616384    0.000000    1.000000
   366  Na    c    -0.000527   -0.000527   11.016547    0.000000    1.000000
   367  Na    c    -0.000527   -0.000527  -11.016547    0.000000    1.000000
   368  Na    c     4.402863   -8.842507   -2.205561    0.000000    1.000000
   369  Na    c     4.402863   -8.842507    2.205561    0.000000    1.000000
   370  Na    c    -8.842507    4.402863   -2.205561    0.000000    1.000000
   371  Na    c    -8.842507    4.402863    2.205561    0.000000    1.000000
   372  Na    c    -0.002263   -8.827078   -2.203552    0.000000    1.000000
   373  Na    c    -0.002263   -8.827078    2.203552    0.000000    1.000000
[...]
    121 y          0.000000     -0.000527    -0.000527    Cartesian    0.00
    121 z         11.014756     11.016547     0.001792    Cartesian    0.02
    122 x          4.405902      4.402863    -0.003040    Cartesian   -0.07
    122 y         -8.811805     -8.842507    -0.030702    Cartesian    0.35
    122 z         -2.202951     -2.205561    -0.002610    Cartesian    0.12
    123 x          0.000000     -0.002263    -0.002263    Cartesian    0.00
    123 y         -8.811805     -8.827078    -0.015273    Cartesian    0.17
    123 z         -2.202951     -2.203552    -0.000601    Cartesian    0.03
    124 x         -4.405902     -4.410673    -0.004770    Cartesian    0.11
    124 y         -4.405902     -4.410673    -0.004770    Cartesian    0.11
    124 z          6.608853      6.609064     0.000210    Cartesian    0.00
    125 x          6.608853      6.618681     0.009828    Cartesian    0.15
    125 y         13.217707     13.284342     0.066635    Cartesian    0.50
    125 z          0.000000      0.000000     0.000000    Cartesian    0.00
    126 x         11.014756     11.028934     0.014178    Cartesian    0.13
    126 y          8.811805      8.834782     0.022977    Cartesian    0.26
    126 z          4.405902      4.425879     0.019976    Cartesian    0.45
    127 x          6.608853      6.600497    -0.008356    Cartesian   -0.13
    127 y         11.014756     10.992208    -0.022548    Cartesian   -0.20
    127 z          6.608853      6.586399    -0.022455    Cartesian   -0.34
    128 x          2.202951      2.199070    -0.003882    Cartesian   -0.18
    128 y         13.217707     13.252725     0.035018    Cartesian    0.26
    128 z          4.405902      4.418476     0.012574    Cartesian    0.29
    129 x          6.608853      6.614329     0.005476    Cartesian    0.08
    129 y          8.811805      8.819483     0.007678    Cartesian    0.09
    129 z          8.811805      8.847403     0.035598    Cartesian    0.40
    130 x         -2.202951     -2.212957    -0.010006    Cartesian    0.45
    130 y         13.217707     13.259523     0.041816    Cartesian    0.32
    130 z          0.000000      0.000000     0.000000    Cartesian    0.00
    131 x          2.202951      2.206355     0.003404    Cartesian    0.15
    131 y          6.608853      6.608983     0.000130    Cartesian    0.00
    131 z         11.014756     10.980757    -0.033999    Cartesian   -0.31
    132 x         11.014756     10.989298    -0.025458    Cartesian   -0.23
    132 y         -2.202951     -2.172862     0.030089    Cartesian   -1.37
    132 z          6.608853      6.586620    -0.022234    Cartesian   -0.34
    133 x         -2.202951     -2.209081    -0.006129    Cartesian    0.28
    133 y          8.811805      8.828598     0.016794    Cartesian    0.19
    133 z          8.811805      8.840316     0.028512    Cartesian    0.32
    134 x         11.014756     11.025296     0.010541    Cartesian    0.10
    134 y         -4.405902     -4.438447    -0.032545    Cartesian    0.74
    134 z          4.405902      4.425040     0.019138    Cartesian    0.43
    135 x          6.608853      6.611311     0.002458    Cartesian    0.04
    135 y         -4.405902     -4.424380    -0.018478    Cartesian    0.42
    135 z          8.811805      8.842393     0.030588    Cartesian    0.35
    136 x         -6.608853     -6.621780    -0.012926    Cartesian    0.20
    136 y          8.811805      8.831171     0.019366    Cartesian    0.22
    136 z          4.405902      4.419901     0.013999    Cartesian    0.32
    137 x          2.202951      2.206733     0.003781    Cartesian    0.17
    137 y         -2.202951     -2.185964     0.016987    Cartesian   -0.77
    137 z         11.014756     10.978957    -0.035798    Cartesian   -0.33
    138 x          6.608853      6.599897    -0.008956    Cartesian   -0.14
    138 y         -6.608853     -6.577196     0.031657    Cartesian   -0.48
    138 z          6.608853      6.596351    -0.012503    Cartesian   -0.19
    139 x          6.608853      6.616410     0.007556    Cartesian    0.11
    139 y         -8.811805     -8.866892    -0.055087    Cartesian    0.63
    139 z          0.000000      0.000000     0.000000    Cartesian    0.00
    140 x          2.202951      2.201192    -0.001759    Cartesian   -0.08
    140 y         -8.811805     -8.847909    -0.036105    Cartesian    0.41
    140 z          4.405902      4.420113     0.014211    Cartesian    0.32
    141 x         -2.202951     -2.204236    -0.001285    Cartesian    0.06
    141 y         -4.405902     -4.425365    -0.019463    Cartesian    0.44
    141 z          8.811805      8.831017     0.019212    Cartesian    0.22
    142 x         -2.202951     -2.192461     0.010490    Cartesian   -0.48
    142 y         -6.608853     -6.565990     0.042864    Cartesian   -0.65
    142 z          6.608853      6.581285    -0.027568    Cartesian   -0.42
    143 x         -2.202951     -2.207249    -0.004298    Cartesian    0.20
    143 y         -8.811805     -8.850779    -0.038974    Cartesian    0.44
    143 z          0.000000      0.000000     0.000000    Cartesian    0.00
    144 x         -6.608853     -6.612442    -0.003588    Cartesian    0.05
    144 y         -4.405902     -4.417114    -0.011212    Cartesian    0.25
    144 z          4.405902      4.413408     0.007506    Cartesian    0.17
    145 x          2.202951      2.744345     0.541394    Cartesian   24.58
    145 y          2.202951      2.744345     0.541394    Cartesian   24.58
    145 z         -2.202951     -1.861636     0.341315    Cartesian  -15.49
    146 x          0.540480      0.540480     0.000000    Cartesian    0.00
    146 y          0.540480      0.540480     0.000000    Cartesian    0.00
    146 z          0.000000      0.000000     0.000000    Cartesian    0.00
    147 x          4.405902      4.615350     0.209448    Cartesian    4.75
    147 y          0.000000     -0.111403    -0.111403    Cartesian    0.00
    147 z          0.000000      0.000000     0.000000    Cartesian    0.00
    148 x          2.202951      2.593100     0.390149    Cartesian   17.71
    148 y          6.608853      6.433538    -0.175315    Cartesian   -2.65
    148 z         -2.202951     -1.926308     0.276643    Cartesian  -12.56
    149 x          2.202951      2.273574     0.070623    Cartesian    3.21
    149 y         -2.202951     -2.105621     0.097330    Cartesian   -4.42
    149 z         -2.202951     -2.175653     0.027298    Cartesian   -1.24
    150 x          4.405902      4.441984     0.036081    Cartesian    0.82
    150 y          4.405902      4.441984     0.036081    Cartesian    0.82
    150 z          4.405902      4.582020     0.176118    Cartesian    4.00
    151 x          4.405902      4.451126     0.045224    Cartesian    1.03
    151 y          0.000000      0.019698     0.019698    Cartesian    0.00
    151 z          4.405902      4.406269     0.000367    Cartesian    0.01
    152 x          0.000000      0.080533     0.080533    Cartesian    0.00
    152 y          0.000000      0.080533     0.080533    Cartesian    0.00
    152 z          4.405902      4.360143    -0.045759    Cartesian   -1.04
    153 x          6.608853      6.352950    -0.255904    Cartesian   -3.87
    153 y          6.608853      6.352950    -0.255904    Cartesian   -3.87
    153 z         -2.202951     -1.859012     0.343939    Cartesian  -15.61
    154 x          2.202951      2.218121     0.015170    Cartesian    0.69
    154 y          2.202951      2.218121     0.015170    Cartesian    0.69
    154 z          6.608853      6.564209    -0.044644    Cartesian   -0.68
    155 x          6.608853      6.674746     0.065892    Cartesian    1.00
    155 y         -2.202951     -2.175637     0.027314    Cartesian   -1.24
    155 z         -2.202951     -2.236259    -0.033308    Cartesian    1.51
    156 x         -2.202951     -1.963068     0.239883    Cartesian  -10.89
    156 y         -2.202951     -1.963068     0.239883    Cartesian  -10.89
    156 z         -2.202951     -2.031723     0.171228    Cartesian   -7.77
    157 x          4.405902      4.424101     0.018199    Cartesian    0.41
    157 y          8.811805      8.995820     0.184016    Cartesian    2.09
    157 z          0.000000      0.000000     0.000000    Cartesian    0.00
    158 x          8.811805      8.889733     0.077929    Cartesian    0.88
    158 y          0.000000     -0.010950    -0.010950    Cartesian    0.00
    158 z          0.000000      0.000000     0.000000    Cartesian    0.00
    159 x          4.405902      4.439657     0.033755    Cartesian    0.77
    159 y         -4.405902     -4.437189    -0.031287    Cartesian    0.71
    159 z          0.000000      0.000000     0.000000    Cartesian    0.00
    160 x          0.000000      0.061843     0.061843    Cartesian    0.00
    160 y         -4.405902     -4.346741     0.059161    Cartesian   -1.34
    160 z          0.000000      0.000000     0.000000    Cartesian    0.00
    161 x          2.202951      2.195253    -0.007699    Cartesian   -0.35
    161 y          6.608853      6.641560     0.032707    Cartesian    0.49
    161 z          6.608853      6.573322    -0.035532    Cartesian   -0.54
    162 x          2.202951      2.237851     0.034900    Cartesian    1.58
    162 y         -2.202951     -2.148471     0.054481    Cartesian   -2.47
    162 z          6.608853      6.562398    -0.046455    Cartesian   -0.70
    163 x          4.405902      4.416049     0.010147    Cartesian    0.23
    163 y          8.811805      8.830856     0.019051    Cartesian    0.22
    163 z          4.405902      4.422257     0.016354    Cartesian    0.37
    164 x          8.811805      8.820916     0.009112    Cartesian    0.10
    164 y          0.000000      0.017241     0.017241    Cartesian    0.00
    164 z          4.405902      4.396850    -0.009053    Cartesian   -0.21
    165 x          4.405902      4.414811     0.008909    Cartesian    0.20
    165 y         -4.405902     -4.403686     0.002217    Cartesian   -0.05
    165 z          4.405902      4.405505    -0.000398    Cartesian   -0.01
    166 x          0.000000      0.010385     0.010385    Cartesian    0.00
    166 y         -4.405902     -4.367008     0.038894    Cartesian   -0.88
    166 z          4.405902      4.379691    -0.026211    Cartesian   -0.59
    167 x          2.202951      2.203049     0.000098    Cartesian    0.00
    167 y         11.014756     11.001644    -0.013112    Cartesian   -0.12
    167 z         -2.202951     -2.221140    -0.018189    Cartesian    0.83
    168 x          6.608853      6.645313     0.036460    Cartesian    0.55
    168 y          6.608853      6.645313     0.036460    Cartesian    0.55
    168 z          6.608853      6.582205    -0.026649    Cartesian   -0.40
    169 x          6.608853      6.607678    -0.001176    Cartesian   -0.02
    169 y         -2.202951     -2.158850     0.044101    Cartesian   -2.00
    169 z          6.608853      6.577706    -0.031148    Cartesian   -0.47
    170 x          2.202951      2.213935     0.010984    Cartesian    0.50
    170 y         -6.608853     -6.575029     0.033825    Cartesian   -0.51
    170 z         -2.202951     -2.200073     0.002878    Cartesian   -0.13
    171 x         -2.202951     -2.159574     0.043377    Cartesian   -1.97
    171 y         -2.202951     -2.159574     0.043377    Cartesian   -1.97
    171 z          6.608853      6.548200    -0.060653    Cartesian   -0.92
    172 x          8.811805      8.835475     0.023670    Cartesian    0.27
    172 y          8.811805      8.835475     0.023670    Cartesian    0.27
    172 z          0.000000      0.000000     0.000000    Cartesian    0.00
    173 x          4.405902      4.406305     0.000403    Cartesian    0.01
    173 y          4.405902      4.406305     0.000403    Cartesian    0.01
    173 z          8.811805      8.862596     0.050792    Cartesian    0.58
    174 x          4.405902      4.412615     0.006712    Cartesian    0.15
    174 y          0.000000      0.002955     0.002955    Cartesian    0.00
    174 z          8.811805      8.819426     0.007621    Cartesian    0.09
    175 x          8.811805      8.839034     0.027229    Cartesian    0.31
    175 y         -4.405902     -4.418265    -0.012362    Cartesian    0.28
    175 z          0.000000      0.000000     0.000000    Cartesian    0.00
    176 x          0.000000      0.000155     0.000155    Cartesian    0.00
    176 y          0.000000      0.000155     0.000155    Cartesian    0.00
    176 z          8.811805      8.798449    -0.013356    Cartesian   -0.15
    177 x         -4.405902     -4.362470     0.043432    Cartesian   -0.99
    177 y         -4.405902     -4.362470     0.043432    Cartesian   -0.99
    177 z          0.000000      0.000000     0.000000    Cartesian    0.00
    178 x          6.608853      6.642134     0.033281    Cartesian    0.50
    178 y         11.014756     10.988859    -0.025897    Cartesian   -0.24
    178 z         -2.202951     -2.220391    -0.017440    Cartesian    0.79
    179 x         11.014756     11.009244    -0.005512    Cartesian   -0.05
    179 y         -2.202951     -2.175804     0.027147    Cartesian   -1.23
    179 z         -2.202951     -2.196091     0.006860    Cartesian   -0.31
    180 x          6.608853      6.617830     0.008977    Cartesian    0.14
    180 y         -6.608853     -6.581407     0.027447    Cartesian   -0.42
    180 z         -2.202951     -2.200594     0.002357    Cartesian   -0.11
    181 x         -2.202951     -2.180987     0.021964    Cartesian   -1.00
    181 y         -6.608853     -6.556344     0.052510    Cartesian   -0.79
    181 z         -2.202951     -2.192706     0.010245    Cartesian   -0.47
    182 x          8.811805      8.810216    -0.001589    Cartesian   -0.02
    182 y          8.811805      8.810216    -0.001589    Cartesian   -0.02
    182 z          4.405902      4.394973    -0.010930    Cartesian   -0.25
    183 x          8.811805      8.824831     0.013027    Cartesian    0.15
    183 y         -4.405902     -4.414026    -0.008124    Cartesian    0.18
    183 z          4.405902      4.411413     0.005511    Cartesian    0.13
    184 x         -4.405902     -4.391821     0.014081    Cartesian   -0.32
    184 y         -4.405902     -4.391821     0.014081    Cartesian   -0.32
    184 z          4.405902      4.389898    -0.016005    Cartesian   -0.36
    185 x          2.202951      2.222137     0.019186    Cartesian    0.87
    185 y         11.014756     10.996005    -0.018751    Cartesian   -0.17
    185 z          6.608853      6.585991    -0.022862    Cartesian   -0.35
    186 x          2.202951      2.203649     0.000698    Cartesian    0.03
    186 y          2.202951      2.203649     0.000698    Cartesian    0.03
    186 z         11.014756     10.982802    -0.031954    Cartesian   -0.29
    187 x          2.202951      2.210729     0.007778    Cartesian    0.35
    187 y         -6.608853     -6.575919     0.032935    Cartesian   -0.50
    187 z          6.608853      6.587456    -0.021397    Cartesian   -0.32
    188 x          4.405902      4.408775     0.002873    Cartesian    0.07
    188 y         13.217707     13.258734     0.041027    Cartesian    0.31
    188 z          0.000000      0.000000     0.000000    Cartesian    0.00
    189 x          4.405902      4.409172     0.003270    Cartesian    0.07
    189 y          8.811805      8.811877     0.000073    Cartesian    0.00
    189 z          8.811805      8.811789    -0.000015    Cartesian   -0.00
    190 x         13.217707     13.238293     0.020586    Cartesian    0.16
    190 y          0.000000      0.002881     0.002881    Cartesian    0.00
    190 z          0.000000      0.000000     0.000000    Cartesian    0.00
    191 x          8.811805      8.813164     0.001359    Cartesian    0.02
    191 y          0.000000     -0.001397    -0.001397    Cartesian    0.00
    191 z          8.811805      8.810526    -0.001279    Cartesian   -0.01
    192 x          4.405902      4.406467     0.000565    Cartesian    0.01
    192 y         -4.405902     -4.402484     0.003419    Cartesian   -0.08
    192 z          8.811805      8.805465    -0.006340    Cartesian   -0.07
    193 x          4.405902      4.412471     0.006569    Cartesian    0.15
    193 y         -8.811805     -8.816600    -0.004796    Cartesian    0.05
    193 z          0.000000      0.000000     0.000000    Cartesian    0.00
    194 x          0.000000      0.002500     0.002500    Cartesian    0.00
    194 y         -4.405902     -4.395158     0.010744    Cartesian   -0.24
    194 z          8.811805      8.801600    -0.010205    Cartesian   -0.12
    195 x          0.000000     -0.003738    -0.003738    Cartesian    0.00
    195 y         -8.811805     -8.797289     0.014516    Cartesian   -0.16
    195 z          0.000000      0.000000     0.000000    Cartesian    0.00
    196 x          6.608853      6.597930    -0.010923    Cartesian   -0.17
    196 y         11.014756     10.985834    -0.028921    Cartesian   -0.26
    196 z          6.608853      6.580467    -0.028387    Cartesian   -0.43
    197 x          2.202951      2.207807     0.004856    Cartesian    0.22
    197 y          6.608853      6.607869    -0.000984    Cartesian   -0.01
    197 z         11.014756     10.974135    -0.040621    Cartesian   -0.37
    198 x         11.014756     10.985545    -0.029211    Cartesian   -0.27
    198 y         -2.202951     -2.167837     0.035114    Cartesian   -1.59
    198 z          6.608853      6.583339    -0.025514    Cartesian   -0.39
    199 x          2.202951      2.207872     0.004921    Cartesian    0.22
    199 y         -2.202951     -2.183017     0.019934    Cartesian   -0.90
    199 z         11.014756     10.974950    -0.039806    Cartesian   -0.36
    200 x          6.608853      6.598314    -0.010539    Cartesian   -0.16
    200 y         -6.608853     -6.572193     0.036660    Cartesian   -0.55
    200 z          6.608853      6.594456    -0.014397    Cartesian   -0.22
    201 x         -2.202951     -2.192412     0.010539    Cartesian   -0.48
    201 y         -6.608853     -6.560856     0.047997    Cartesian   -0.73
    201 z          6.608853      6.577741    -0.031112    Cartesian   -0.47
--------------------------------------------------------------------------------


  Time to end of optimisation  =       28.6060 seconds


  Peak dynamic memory used =      90.31 MB 


  Timing analysis for GULP :

--------------------------------------------------------------------------------
  Task / Subroutine                                          Time (Seconds)
--------------------------------------------------------------------------------
  Calculation of reciprocal space energy and derivatives          0.0008
  Calculation of reciprocal space energy using symmetry           0.0013
  Calculation of real space energy and derivatives                0.0042
  Calculation of real space energy using symmetry                 0.0134
  Calculation for region 1 energy and derivatives (2-b)          14.2224
  Calculation for region 2a energy                                9.8713
  Calculation for region 2b energy                                0.0064
  Calculation and manipulation of Hessian matrix                  4.0209
  Calculation of matrix inversion                                 0.3258
  Symmetry generation of equivalent positions                     0.0047
--------------------------------------------------------------------------------
  Total CPU time                                                 28.6060
--------------------------------------------------------------------------------


  Dump file written as Na3OCl.grs


  Job Finished at 15:19.37 19th January    2021                               

