********************************************************************************
*                       GENERAL UTILITY LATTICE PROGRAM                        *
*                                 Julian Gale                                  *
*                       Curtin Institute for Computation                       *
*                    School of Molecular and Life Sciences                     *
*                    Curtin University, Western Australia                      *
********************************************************************************
* Version = 5.2.0 * Last modified =  10th September 2020                       *
********************************************************************************
*  optimise     - perform optimisation run                                     *
*  conp         - constant pressure calculation                                *
*  property     - calculate properties for final geometry                      *
*  defect       - perform defect calculation after bulk run                    *
*  compare      - compare initial and final structures                         *
********************************************************************************

  Job Started  at 16:31.01  5th July       2021                               

  Number of CPUs =     1


  Total number of configurations input =      1

********************************************************************************
*  Input for Configuration =   1                                               *
********************************************************************************

  Formula = ClONa3                                                      

  Number of irreducible atoms/shells =       5


  Total number atoms/shells =       7

  Dimensionality = 3               :  Bulk   


  Symmetry :

  Crystal family                   :  Cubic       
  Crystal class  (Groth - 1921)    :  Cubic Hexakisoctahedral              

  Space group (centrosymmetric)    :  P M 3 M         

  Patterson group                  :  P m -3 m 

  Cartesian lattice vectors (Angstroms) :

        4.504000    0.000000    0.000000
        0.000000    4.504000    0.000000
        0.000000    0.000000    4.504000

  Cell parameters (Angstroms/Degrees):

  a =       4.5040    alpha =  90.0000
  b =       4.5040    beta  =  90.0000
  c =       4.5040    gamma =  90.0000

  Initial cell volume =          91.368216 Angs**3

  Temperature of configuration =   0.00     K 

  Pressure of configuration =         0.000 GPa 

  Fractional coordinates of asymmetric unit :

--------------------------------------------------------------------------------
   No.  Atomic       x           y          z         Charge      Occupancy
        Label      (Frac)      (Frac)     (Frac)        (e)         (Frac)  
--------------------------------------------------------------------------------
      1 Cl    c    0.000000    0.000000    0.000000     0.61500    1.000000    
      2 O     c    0.500000    0.500000    0.500000     0.48900    1.000000    
      3 Na    c    0.500000    0.500000    0.000000     0.67000    1.000000    
      4 Cl    s    0.000000    0.000000    0.000000    -1.28500    1.000000    
      5 O     s    0.500000    0.500000    0.500000    -1.82900    1.000000    
--------------------------------------------------------------------------------


  Constraints : 

--------------------------------------------------------------------------------
  Constraint no.      Unconstrained     Constrained    Coefficient    Offset
                         Variable         Variable
--------------------------------------------------------------------------------
           1              Strain 1        Strain 2       1.00000      0.0000
           2              Strain 1        Strain 3       1.00000      0.0000
--------------------------------------------------------------------------------


********************************************************************************
*  General input information                                                   *
********************************************************************************

  Species output for all configurations : 

--------------------------------------------------------------------------------
  Species    Type    Atomic    Atomic    Charge       Radii (Angs)     Library
                     Number     Mass       (e)     Cova   Ionic  VDW   Symbol
--------------------------------------------------------------------------------
    Na       Core       11      22.99   0.670000   0.970  0.000  2.300          
    O        Core        8      16.00   0.489000   0.730  0.000  1.360          
    O        Shell       8       0.00  -1.829000   0.730  0.000  1.360          
    Cl       Core       17      35.45   0.615000   0.990  0.000  1.650          
    Cl       Shell      17       0.00  -1.285000   0.990  0.000  1.650          
--------------------------------------------------------------------------------


  Lattice summation method               =    Ewald          (3-D)
                                         =    Parry          (2-D)
                                         =    Saunders et al (1-D)
  Accuracy factor for lattice sums       =   12.000


  Analytic derivatives to be used

  Time limit = Infinity

  Maximum range for interatomic potentials =    100000.000000 Angstroms

  General interatomic potentials :

--------------------------------------------------------------------------------
Atom  Types   Potential      Parameter       Value         Units   Cutoffs(Ang)
  1     2                                                            Min /  Max 
--------------------------------------------------------------------------------
O    c O    s Spring (c-s)  Spring k 2       34.450000    eV*Ang^-2 0.000  0.800
                            Spring k 4       0.0000000    eV*Ang^-4 
--------------------------------------------------------------------------------
Cl   c Cl   s Spring (c-s)  Spring k 2       28.250000    eV*Ang^-2 0.000  0.800
                            Spring k 4       0.0000000    eV*Ang^-4 
--------------------------------------------------------------------------------
Na   c Na   c Buckingham    Buckingham A     996.28210    eV        0.000 12.000
                            Buckingham rho  0.28830000    Ang       
                            Buckingham C     0.0000000    eV*Ang^6  
--------------------------------------------------------------------------------
Na   c O    s Buckingham    Buckingham A     12439.222    eV        0.000 12.000
                            Buckingham rho  0.20150000    Ang       
                            Buckingham C     0.0000000    eV*Ang^6  
--------------------------------------------------------------------------------
Na   c Cl   s Buckingham    Buckingham A     20907.738    eV        0.000 12.000
                            Buckingham rho  0.21660000    Ang       
                            Buckingham C     0.0000000    eV*Ang^6  
--------------------------------------------------------------------------------
O    s O    s Buckingham    Buckingham A     35546.853    eV        0.000 12.000
                            Buckingham rho  0.12056000    Ang       
                            Buckingham C     13.190000    eV*Ang^6  
--------------------------------------------------------------------------------
O    s Cl   s Buckingham    Buckingham A     47777.071    eV        0.000 12.000
                            Buckingham rho  0.24370000    Ang       
                            Buckingham C     62.200000    eV*Ang^6  
--------------------------------------------------------------------------------
Cl   s Cl   s Buckingham    Buckingham A     35155.254    eV        0.000 12.000
                            Buckingham rho  0.21360000    Ang       
                            Buckingham C     14.530000    eV*Ang^6  
--------------------------------------------------------------------------------

********************************************************************************
*  Output for configuration   1                                                *
********************************************************************************


  Components of energy : 

--------------------------------------------------------------------------------
  Interatomic potentials     =           1.21745275 eV    
  Monopole - monopole (real) =          -4.50527050 eV    
  Monopole - monopole (recip)=         -13.25862634 eV    
  Monopole - monopole (total)=         -17.76389683 eV    
--------------------------------------------------------------------------------
  Total lattice energy       =         -16.54644409 eV    
--------------------------------------------------------------------------------
  Total lattice energy       =           -1596.4789 kJ/(mole unit cells)
--------------------------------------------------------------------------------


  Number of variables =        1

  Maximum number of calculations  =          1000
  Maximum Hessian update interval =            10
  Maximum step size               =   1.000000000
  Maximum parameter tolerance     =   0.000010000
  Maximum function  tolerance     =   0.000010000
  Maximum gradient  tolerance     =   0.001000000
  Maximum gradient  component     =   0.010000000

  Symmetry constrained optimisation

  Symmetry used for second derivatives

  Cell parameters to be optimised using strains

  Newton-Raphson optimiser to be used

  BFGS hessian update to be used

  Lower half triangular hessian to be used

  Start of bulk optimisation :

  Cycle:      0 Energy:       -16.546444  Gnorm:      2.744113  CPU:    0.008
  ** Hessian calculated **
  Cycle:      1 Energy:       -16.570356  Gnorm:      0.030142  CPU:    0.010
  Cycle:      2 Energy:       -16.570358  Gnorm:      0.003103  CPU:    0.012


  **** Optimisation achieved ****


  Final energy =     -16.57035847 eV
  Final Gnorm  =       0.00000012

  Components of energy : 

--------------------------------------------------------------------------------
  Interatomic potentials     =           1.49654868 eV    
  Monopole - monopole (real) =          -4.58211982 eV    
  Monopole - monopole (recip)=         -13.48478733 eV    
  Monopole - monopole (total)=         -18.06690714 eV    
--------------------------------------------------------------------------------
  Total lattice energy       =         -16.57035847 eV    
--------------------------------------------------------------------------------
  Total lattice energy       =           -1598.7863 kJ/(mole unit cells)
--------------------------------------------------------------------------------

  Final asymmetric unit coordinates :

--------------------------------------------------------------------------------
   No.  Atomic        x           y           z         Radius
        Label       (Frac)      (Frac)      (Frac)       (Angs) 
--------------------------------------------------------------------------------
     1  Cl    c     0.000000    0.000000    0.000000    0.000000
     2  O     c     0.500000    0.500000    0.500000    0.000000
     3  Na    c     0.500000    0.500000    0.000000    0.000000
     4  Cl    s     0.000000    0.000000    0.000000    0.000000
     5  O     s     0.500000    0.500000    0.500000    0.000000
--------------------------------------------------------------------------------

  Final Cartesian lattice vectors (Angstroms) :

        4.428461    0.000000    0.000000
        0.000000    4.428461    0.000000
        0.000000    0.000000    4.428461


  Final cell parameters and derivatives :

--------------------------------------------------------------------------------
       a            4.428461 Angstrom     dE/de1(xx)     0.000000 eV/strain
       b            4.428461 Angstrom     dE/de2(yy)     0.000000 eV/strain
       c            4.428461 Angstrom     dE/de3(zz)     0.000000 eV/strain
       alpha       90.000000 Degrees      dE/de4(yz)     0.000000 eV/strain
       beta        90.000000 Degrees      dE/de5(xz)     0.000000 eV/strain
       gamma       90.000000 Degrees      dE/de6(xy)     0.000000 eV/strain
--------------------------------------------------------------------------------

  Primitive cell volume =            86.847723 Angs**3

  Density of cell =      2.302482 g/cm**3

  Non-primitive cell volume =            86.847723 Angs**3


  Final internal derivatives :

--------------------------------------------------------------------------------
   No.  Atomic          a             b             c           Radius
        Label          (eV)          (eV)          (eV)        (eV/Angs)
--------------------------------------------------------------------------------
      1 Cl    c       0.000000      0.000000      0.000000      0.000000
      2 O     c       0.000000      0.000000      0.000000      0.000000
      3 Na    c       0.000000      0.000000      0.000000      0.000000
      4 Cl    s       0.000000      0.000000      0.000000      0.000000
      5 O     s       0.000000      0.000000      0.000000      0.000000
--------------------------------------------------------------------------------
  Maximum abs         0.000000      0.000000      0.000000      0.000000
--------------------------------------------------------------------------------

  Comparison of initial and final structures : 

--------------------------------------------------------------------------------
  Parameter   Initial value   Final value   Difference    Units      Percent
--------------------------------------------------------------------------------
    Volume        91.368216     86.847723    -4.520493    Angs**3     -4.95
    a              4.504000      4.428461    -0.075539    Angstroms   -1.68
    b              4.504000      4.428461    -0.075539    Angstroms   -1.68
    c              4.504000      4.428461    -0.075539    Angstroms   -1.68
    alpha         90.000000     90.000000     0.000000    Degrees      0.00
    beta          90.000000     90.000000     0.000000    Degrees      0.00
    gamma         90.000000     90.000000     0.000000    Degrees      0.00
      1 x          0.000000      0.000000     0.000000    Fractional   0.00
      1 y          0.000000      0.000000     0.000000    Fractional   0.00
      1 z          0.000000      0.000000     0.000000    Fractional   0.00
      2 x          0.500000      0.500000     0.000000    Fractional   0.00
      2 y          0.500000      0.500000     0.000000    Fractional   0.00
      2 z          0.500000      0.500000     0.000000    Fractional   0.00
      3 x          0.500000      0.500000     0.000000    Fractional   0.00
      3 y          0.500000      0.500000     0.000000    Fractional   0.00
      3 z          0.000000      0.000000     0.000000    Fractional   0.00
      4 x          0.000000      0.000000     0.000000    Fractional   0.00
      4 y          0.000000      0.000000     0.000000    Fractional   0.00
      4 z          0.000000      0.000000     0.000000    Fractional   0.00
      5 x          0.500000      0.500000     0.000000    Fractional   0.00
      5 y          0.500000      0.500000     0.000000    Fractional   0.00
      5 z          0.500000      0.500000     0.000000    Fractional   0.00
--------------------------------------------------------------------------------


  Born effective charge tensors : 

-------------------------------------------------------------------------------
  Atom             x           y             z
-------------------------------------------------------------------------------
    1 Cl    x      -0.6995     -0.0000     -0.0000
            y      -0.0000     -0.6995     -0.0000
            z      -0.0000     -0.0000     -0.6995
-------------------------------------------------------------------------------
    2 O     x      -1.0805      0.0000      0.0000
            y       0.0000     -1.0805      0.0000
            z       0.0000      0.0000     -1.0805
-------------------------------------------------------------------------------
    3 Na    x       0.6486      0.0000     -0.0000
            y       0.0000      0.6486      0.0000
            z      -0.0000      0.0000      0.4827
-------------------------------------------------------------------------------




  Elastic Constant Matrix: (Units=GPa)

-------------------------------------------------------------------------------
  Indices      1         2         3         4         5         6    
-------------------------------------------------------------------------------
       1     77.0757   16.0262   16.0262   -0.0000   -0.0000   -0.0000
       2     16.0262   77.0757   16.0262   -0.0000   -0.0000    0.0000
       3     16.0262   16.0262   77.0757    0.0000    0.0000    0.0000
       4     -0.0000   -0.0000    0.0000   16.0262    0.0000   -0.0000
       5     -0.0000   -0.0000    0.0000    0.0000   16.0262   -0.0000
       6     -0.0000    0.0000    0.0000   -0.0000   -0.0000   16.0262
-------------------------------------------------------------------------------


  Elastic Compliance Matrix: (Units=1/GPa)

-------------------------------------------------------------------------------
  Indices      1         2         3         4         5         6    
-------------------------------------------------------------------------------
       1    0.013975 -0.002406 -0.002406  0.000000  0.000000  0.000000
       2   -0.002406  0.013975 -0.002406  0.000000  0.000000 -0.000000
       3   -0.002406 -0.002406  0.013975 -0.000000 -0.000000 -0.000000
       4    0.000000  0.000000 -0.000000  0.062398 -0.000000  0.000000
       5    0.000000  0.000000 -0.000000 -0.000000  0.062398  0.000000
       6    0.000000 -0.000000 -0.000000  0.000000  0.000000  0.062398
-------------------------------------------------------------------------------

  Mechanical properties :

-------------------------------------------------------------------------------
  Convention :                    Reuss         Voigt         Hill
-------------------------------------------------------------------------------
  Bulk  Modulus (GPa)     =      36.37603      36.37603      36.37603
  Shear Modulus (GPa)     =      19.78520      21.82562      20.80541
-------------------------------------------------------------------------------
  Velocity S-wave (km/s)  =       2.93138       3.07883       3.00601
  Velocity P-wave (km/s)  =       5.22072       5.33268       5.27700
-------------------------------------------------------------------------------
  Compressibility (1/GPa) =    0.02749063
-------------------------------------------------------------------------------
  Stress axis :                     x             y             z
-------------------------------------------------------------------------------
  Youngs Moduli (GPa)     =      71.55833      71.55833      71.55833
-------------------------------------------------------------------------------
  Poissons Ratio (x)      =                     0.17214       0.17214
  Poissons Ratio (y)      =       0.17214                     0.17214
  Poissons Ratio (z)      =       0.17214       0.17214
-------------------------------------------------------------------------------


  Piezoelectric Strain Matrix: (Units=C/m**2)

-------------------------------------------------------------------------------
  Indices      1         2         3         4         5         6    
-------------------------------------------------------------------------------
       x    -0.00000  -0.00000  -0.00000  -0.00000  -0.00000   0.00000
       y     0.00000   0.00000   0.00000  -0.00000  -0.00000  -0.00000
       z     0.00000   0.00000  -0.00000   0.00000  -0.00000  -0.00000
-------------------------------------------------------------------------------


  Piezoelectric Stress Matrix: (Units=10**-11 C/N)

-------------------------------------------------------------------------------
  Indices      1         2         3         4         5         6    
-------------------------------------------------------------------------------
       x    -0.00000  -0.00000  -0.00000  -0.00000  -0.00000   0.00000
       y     0.00000   0.00000   0.00000  -0.00000  -0.00000  -0.00000
       z     0.00000   0.00000  -0.00000   0.00000  -0.00000  -0.00000
-------------------------------------------------------------------------------


  Static dielectric constant tensor : 

-------------------------------------------------------------------------------
              x         y         z
-------------------------------------------------------------------------------
       x     5.77918   0.00000   0.00000
       y     0.00000   5.77918   0.00000
       z     0.00000   0.00000   5.77918
--------------------------------------------------------------------------------

  High frequency dielectric constant tensor : 

-------------------------------------------------------------------------------
              x         y         z
-------------------------------------------------------------------------------
       x     1.30980  -0.00000  -0.00000
       y    -0.00000   1.30980  -0.00000
       z    -0.00000  -0.00000   1.30980
-------------------------------------------------------------------------------

  Static refractive indices : 

-------------------------------------------------------------------------------
    1 =    2.40399      2 =    2.40399      3 =    2.40399
-------------------------------------------------------------------------------

  High frequency refractive indices : 

-------------------------------------------------------------------------------
    1 =    1.14447      2 =    1.14447      3 =    1.14447
-------------------------------------------------------------------------------


  Time to end of optimisation =       0.0174 seconds

********************************************************************************
*  Defect calculation for configuration   1 :                                  *
********************************************************************************

  Total number of defects =      3

  Total charge on defect  =  -0.67

  Defect centre is at   0.5000   0.2500   0.2500  Frac

  Region 1 radius =  12.0000      Number of ions =    575

  Number of symmetry inequivalent region 1 ions  =    331

  Region 2 radius =  16.0000      Number of ions =    818

  Number of symmetry inequivalent region 2a ions =    447

  Region 2a mode = 4 : screened electrostatics due to region 1 
                       neglect correction to region 1 forces from 2a
                       region 2a displacements based on defects only

  Region 2a ions will only interact with defects in region 1

  Vacancies:

--------------------------------------------------------------------------------
    Specification type     Symbol/Number         x          y          z
--------------------------------------------------------------------------------
    Fractional                               0.500000   0.500000   0.000000
    Fractional                               0.500000   0.000000   0.500000
--------------------------------------------------------------------------------

  Interstitials:

--------------------------------------------------------------------------------
    Specification type     Symbol/Number         x          y          z
--------------------------------------------------------------------------------
    Atom/Fractional         Na               0.500000   0.150000   0.350000
--------------------------------------------------------------------------------


  Symmetry reduced region 1 (Relative to defect centre) :

--------------------------------------------------------------------------------
   No.   Atomic       x            y             z       Radius  Multiplicity   
         Label      (Angs)       (Angs)        (Angs)    (Angs)     
--------------------------------------------------------------------------------
     1  Na    c      0.0000      -0.4428       0.4428    0.0000     1    Defect
     2  O     c      0.0000       1.1071 *     1.1071 *  0.0000     1          
     3  Cl    c      2.2142 *    -1.1071 *    -1.1071 *  0.0000     2          
     4  Na    c      2.2142 *     1.1071 *     1.1071 *  0.0000     2          
     5  O     c      0.0000       1.1071 *    -3.3213 *  0.0000     1          
     6  O     c      0.0000      -3.3213 *     1.1071 *  0.0000     1          
     7  Na    c      0.0000       1.1071 *     3.3213 *  0.0000     1          
     8  Na    c      0.0000      -3.3213 *    -1.1071 *  0.0000     1          
     9  Na    c      0.0000      -1.1071 *    -3.3213 *  0.0000     1          
    10  Na    c      0.0000       3.3213 *     1.1071 *  0.0000     1          
    11  Cl    c      2.2142 *    -1.1071 *     3.3213 *  0.0000     2          
    12  Cl    c      2.2142 *     3.3213 *    -1.1071 *  0.0000     2          
    13  Na    c      2.2142 *     1.1071 *    -3.3213 *  0.0000     2          
    14  Na    c      2.2142 *    -3.3213 *     1.1071 *  0.0000     2          
    15  O     c      4.4285 *     1.1071 *     1.1071 *  0.0000     2          
    16  Na    c      4.4285 *     1.1071 *    -1.1071 *  0.0000     2          
    17  Na    c      4.4285 *    -1.1071 *     1.1071 *  0.0000     2          
    18  O     c      0.0000      -3.3213 *    -3.3213 *  0.0000     1          
    19  Na    c      0.0000      -3.3213 *     3.3213 *  0.0000     1          
    20  Na    c      0.0000       3.3213 *    -3.3213 *  0.0000     1          
    21  Cl    c      2.2142 *     3.3213 *     3.3213 *  0.0000     2          
    22  Na    c      2.2142 *    -3.3213 *    -3.3213 *  0.0000     2          
    23  O     c      4.4285 *     1.1071 *    -3.3213 *  0.0000     2          
    24  Na    c      4.4285 *     1.1071 *     3.3213 *  0.0000     2          
    25  Na    c      4.4285 *    -1.1071 *    -3.3213 *  0.0000     2          
    26  O     c      4.4285 *    -3.3213 *     1.1071 *  0.0000     2          
    27  Na    c      4.4285 *    -3.3213 *    -1.1071 *  0.0000     2          
    28  Na    c      4.4285 *     3.3213 *     1.1071 *  0.0000     2          
    29  O     c      0.0000       1.1071 *     5.5356 *  0.0000     1          
    30  O     c      0.0000       5.5356 *     1.1071 *  0.0000     1          
    31  Na    c      0.0000       1.1071 *    -5.5356 *  0.0000     1          
    32  Na    c      0.0000       5.5356 *    -1.1071 *  0.0000     1          
    33  Na    c      0.0000      -1.1071 *     5.5356 *  0.0000     1          
    34  Na    c      0.0000      -5.5356 *     1.1071 *  0.0000     1          
    35  Cl    c      2.2142 *    -1.1071 *    -5.5356 *  0.0000     2          
    36  Cl    c      2.2142 *    -5.5356 *    -1.1071 *  0.0000     2          
    37  Na    c      2.2142 *     1.1071 *     5.5356 *  0.0000     2          
    38  Na    c      2.2142 *     5.5356 *     1.1071 *  0.0000     2          
    39  O     c      0.0000       5.5356 *    -3.3213 *  0.0000     1          
    40  O     c      0.0000      -3.3213 *     5.5356 *  0.0000     1          
    41  O     c      4.4285 *    -3.3213 *    -3.3213 *  0.0000     2          
    42  Na    c      0.0000       5.5356 *     3.3213 *  0.0000     1          
    43  Na    c      0.0000      -3.3213 *    -5.5356 *  0.0000     1          
    44  Na    c      4.4285 *    -3.3213 *     3.3213 *  0.0000     2          
    45  Na    c      0.0000       3.3213 *     5.5356 *  0.0000     1          
    46  Na    c      0.0000      -5.5356 *    -3.3213 *  0.0000     1          
    47  Na    c      4.4285 *     3.3213 *    -3.3213 *  0.0000     2          
    48  Cl    c      2.2142 *     3.3213 *    -5.5356 *  0.0000     2          
    49  Cl    c      6.6427 *    -1.1071 *    -1.1071 *  0.0000     2          
    50  Na    c      2.2142 *    -3.3213 *     5.5356 *  0.0000     2          
    51  Na    c      6.6427 *     1.1071 *     1.1071 *  0.0000     2          
    52  Cl    c      2.2142 *    -5.5356 *     3.3213 *  0.0000     2          
    53  Na    c      2.2142 *     5.5356 *    -3.3213 *  0.0000     2          
    54  O     c      4.4285 *     1.1071 *     5.5356 *  0.0000     2          
    55  O     c      4.4285 *     5.5356 *     1.1071 *  0.0000     2          
    56  Na    c      4.4285 *     1.1071 *    -5.5356 *  0.0000     2          
    57  Na    c      4.4285 *     5.5356 *    -1.1071 *  0.0000     2          
    58  Na    c      4.4285 *    -1.1071 *     5.5356 *  0.0000     2          
    59  Na    c      4.4285 *    -5.5356 *     1.1071 *  0.0000     2          
    60  Cl    c      6.6427 *     3.3213 *    -1.1071 *  0.0000     2          
    61  Na    c      6.6427 *    -3.3213 *     1.1071 *  0.0000     2          
    62  Cl    c      6.6427 *    -1.1071 *     3.3213 *  0.0000     2          
    63  Na    c      6.6427 *     1.1071 *    -3.3213 *  0.0000     2          
    64  O     c      0.0000       1.1071 *    -7.7498 *  0.0000     1          
    65  O     c      0.0000      -7.7498 *     1.1071 *  0.0000     1          
    66  Na    c      0.0000       1.1071 *     7.7498 *  0.0000     1          
    67  Na    c      0.0000      -7.7498 *    -1.1071 *  0.0000     1          
    68  Na    c      0.0000      -1.1071 *    -7.7498 *  0.0000     1          
    69  Na    c      0.0000       7.7498 *     1.1071 *  0.0000     1          
    70  O     c      4.4285 *    -3.3213 *     5.5356 *  0.0000     2          
    71  Na    c      4.4285 *    -3.3213 *    -5.5356 *  0.0000     2          
    72  Na    c      4.4285 *     3.3213 *     5.5356 *  0.0000     2          
    73  O     c      0.0000       5.5356 *     5.5356 *  0.0000     1          
    74  O     c      4.4285 *     5.5356 *    -3.3213 *  0.0000     2          
    75  Na    c      0.0000       5.5356 *    -5.5356 *  0.0000     1          
    76  Na    c      4.4285 *     5.5356 *     3.3213 *  0.0000     2          
    77  Na    c      0.0000      -5.5356 *     5.5356 *  0.0000     1          
    78  Na    c      4.4285 *    -5.5356 *    -3.3213 *  0.0000     2          
    79  Cl    c      2.2142 *    -1.1071 *     7.7498 *  0.0000     2          
    80  Cl    c      2.2142 *     7.7498 *    -1.1071 *  0.0000     2          
    81  Na    c      2.2142 *     1.1071 *    -7.7498 *  0.0000     2          
    82  Na    c      2.2142 *    -7.7498 *     1.1071 *  0.0000     2          
    83  Cl    c      6.6427 *     3.3213 *     3.3213 *  0.0000     2          
    84  Na    c      6.6427 *    -3.3213 *    -3.3213 *  0.0000     2          
    85  Cl    c      2.2142 *    -5.5356 *    -5.5356 *  0.0000     2          
    86  Na    c      2.2142 *     5.5356 *     5.5356 *  0.0000     2          
    87  O     c      0.0000      -3.3213 *    -7.7498 *  0.0000     1          
    88  O     c      0.0000      -7.7498 *    -3.3213 *  0.0000     1          
    89  Na    c      0.0000      -3.3213 *     7.7498 *  0.0000     1          
    90  Na    c      0.0000      -7.7498 *     3.3213 *  0.0000     1          
    91  Na    c      0.0000       3.3213 *    -7.7498 *  0.0000     1          
    92  Na    c      0.0000       7.7498 *    -3.3213 *  0.0000     1          
    93  Cl    c      2.2142 *     3.3213 *     7.7498 *  0.0000     2          
    94  Cl    c      2.2142 *     7.7498 *     3.3213 *  0.0000     2          
    95  Na    c      2.2142 *    -3.3213 *    -7.7498 *  0.0000     2          
    96  Na    c      2.2142 *    -7.7498 *    -3.3213 *  0.0000     2          
    97  Cl    c      6.6427 *    -5.5356 *    -1.1071 *  0.0000     2          
    98  Na    c      6.6427 *     5.5356 *     1.1071 *  0.0000     2          
    99  Cl    c      6.6427 *    -1.1071 *    -5.5356 *  0.0000     2          
   100  Na    c      6.6427 *     1.1071 *     5.5356 *  0.0000     2          
   101  O     c      4.4285 *     1.1071 *    -7.7498 *  0.0000     2          
   102  O     c      4.4285 *    -7.7498 *     1.1071 *  0.0000     2          
   103  O     c      8.8569 *     1.1071 *     1.1071 *  0.0000     2          
   104  Na    c      4.4285 *     1.1071 *     7.7498 *  0.0000     2          
   105  Na    c      4.4285 *    -7.7498 *    -1.1071 *  0.0000     2          
   106  Na    c      8.8569 *     1.1071 *    -1.1071 *  0.0000     2          
   107  Na    c      4.4285 *    -1.1071 *    -7.7498 *  0.0000     2          
   108  Na    c      4.4285 *     7.7498 *     1.1071 *  0.0000     2          
   109  Na    c      8.8569 *    -1.1071 *     1.1071 *  0.0000     2          
   110  O     c      4.4285 *     5.5356 *     5.5356 *  0.0000     2          
   111  Na    c      4.4285 *     5.5356 *    -5.5356 *  0.0000     2          
   112  Na    c      4.4285 *    -5.5356 *     5.5356 *  0.0000     2          
   113  Cl    c      6.6427 *    -5.5356 *     3.3213 *  0.0000     2          
   114  Na    c      6.6427 *     5.5356 *    -3.3213 *  0.0000     2          
   115  Cl    c      6.6427 *     3.3213 *    -5.5356 *  0.0000     2          
   116  Na    c      6.6427 *    -3.3213 *     5.5356 *  0.0000     2          
   117  O     c      4.4285 *    -3.3213 *    -7.7498 *  0.0000     2          
   118  O     c      4.4285 *    -7.7498 *    -3.3213 *  0.0000     2          
   119  O     c      8.8569 *     1.1071 *    -3.3213 *  0.0000     2          
   120  O     c      8.8569 *    -3.3213 *     1.1071 *  0.0000     2          
   121  Na    c      4.4285 *    -3.3213 *     7.7498 *  0.0000     2          
   122  Na    c      4.4285 *    -7.7498 *     3.3213 *  0.0000     2          
   123  Na    c      8.8569 *     1.1071 *     3.3213 *  0.0000     2          
   124  Na    c      8.8569 *    -3.3213 *    -1.1071 *  0.0000     2          
   125  Na    c      4.4285 *     3.3213 *    -7.7498 *  0.0000     2          
   126  Na    c      4.4285 *     7.7498 *    -3.3213 *  0.0000     2          
   127  Na    c      8.8569 *    -1.1071 *    -3.3213 *  0.0000     2          
   128  Na    c      8.8569 *     3.3213 *     1.1071 *  0.0000     2          
   129  O     c      0.0000       5.5356 *    -7.7498 *  0.0000     1          
   130  O     c      0.0000      -7.7498 *     5.5356 *  0.0000     1          
   131  Na    c      0.0000       5.5356 *     7.7498 *  0.0000     1          
   132  Na    c      0.0000      -7.7498 *    -5.5356 *  0.0000     1          
   133  Na    c      0.0000       7.7498 *     5.5356 *  0.0000     1          
   134  Na    c      0.0000      -5.5356 *    -7.7498 *  0.0000     1          
   135  Cl    c      2.2142 *     7.7498 *    -5.5356 *  0.0000     2          
   136  Cl    c      2.2142 *    -5.5356 *     7.7498 *  0.0000     2          
   137  Na    c      2.2142 *     5.5356 *    -7.7498 *  0.0000     2          
   138  Na    c      2.2142 *    -7.7498 *     5.5356 *  0.0000     2          
   139  O     c      8.8569 *    -3.3213 *    -3.3213 *  0.0000     2          
   140  Na    c      8.8569 *    -3.3213 *     3.3213 *  0.0000     2          
   141  Na    c      8.8569 *     3.3213 *    -3.3213 *  0.0000     2          
   142  O     c      0.0000       1.1071 *     9.9640 *  0.0000     1          
   143  O     c      0.0000       9.9640 *     1.1071 *  0.0000     1          
   144  Na    c      0.0000       1.1071 *    -9.9640 *  0.0000     1          
   145  Na    c      0.0000       9.9640 *    -1.1071 *  0.0000     1          
   146  Na    c      0.0000      -1.1071 *     9.9640 *  0.0000     1          
   147  Na    c      0.0000      -9.9640 *     1.1071 *  0.0000     1          
   148  Cl    c      2.2142 *    -1.1071 *    -9.9640 *  0.0000     2          
   149  Cl    c      2.2142 *    -9.9640 *    -1.1071 *  0.0000     2          
   150  Cl    c      6.6427 *    -1.1071 *     7.7498 *  0.0000     2          
   151  Cl    c      6.6427 *     7.7498 *    -1.1071 *  0.0000     2          
   152  Na    c      2.2142 *     1.1071 *     9.9640 *  0.0000     2          
   153  Na    c      2.2142 *     9.9640 *     1.1071 *  0.0000     2          
   154  Na    c      6.6427 *     1.1071 *    -7.7498 *  0.0000     2          
   155  Na    c      6.6427 *    -7.7498 *     1.1071 *  0.0000     2          
   156  Cl    c      6.6427 *    -5.5356 *    -5.5356 *  0.0000     2          
   157  Na    c      6.6427 *     5.5356 *     5.5356 *  0.0000     2          
   158  O     c      0.0000       9.9640 *    -3.3213 *  0.0000     1          
   159  O     c      0.0000      -3.3213 *     9.9640 *  0.0000     1          
   160  O     c      4.4285 *     5.5356 *    -7.7498 *  0.0000     2          
   161  O     c      4.4285 *    -7.7498 *     5.5356 *  0.0000     2          
   162  O     c      8.8569 *     1.1071 *     5.5356 *  0.0000     2          
   163  O     c      8.8569 *     5.5356 *     1.1071 *  0.0000     2          
   164  Na    c      0.0000       9.9640 *     3.3213 *  0.0000     1          
   165  Na    c      0.0000      -3.3213 *    -9.9640 *  0.0000     1          
   166  Na    c      4.4285 *     5.5356 *     7.7498 *  0.0000     2          
   167  Na    c      4.4285 *    -7.7498 *    -5.5356 *  0.0000     2          
   168  Na    c      8.8569 *     1.1071 *    -5.5356 *  0.0000     2          
   169  Na    c      8.8569 *     5.5356 *    -1.1071 *  0.0000     2          
   170  Na    c      0.0000       3.3213 *     9.9640 *  0.0000     1          
   171  Na    c      0.0000      -9.9640 *    -3.3213 *  0.0000     1          
   172  Na    c      4.4285 *     7.7498 *     5.5356 *  0.0000     2          
   173  Na    c      4.4285 *    -5.5356 *    -7.7498 *  0.0000     2          
   174  Na    c      8.8569 *    -1.1071 *     5.5356 *  0.0000     2          
   175  Na    c      8.8569 *    -5.5356 *     1.1071 *  0.0000     2          
   176  Cl    c      2.2142 *     3.3213 *    -9.9640 *  0.0000     2          
   177  Cl    c      2.2142 *    -9.9640 *     3.3213 *  0.0000     2          
   178  Cl    c      6.6427 *     3.3213 *     7.7498 *  0.0000     2          
   179  Cl    c      6.6427 *     7.7498 *     3.3213 *  0.0000     2          
   180  Na    c      2.2142 *     9.9640 *    -3.3213 *  0.0000     2          
   181  Na    c      2.2142 *    -3.3213 *     9.9640 *  0.0000     2          
   182  Na    c      6.6427 *    -3.3213 *    -7.7498 *  0.0000     2          
   183  Na    c      6.6427 *    -7.7498 *    -3.3213 *  0.0000     2          
   184  O     c      0.0000      -7.7498 *    -7.7498 *  0.0000     1          
   185  Na    c      0.0000      -7.7498 *     7.7498 *  0.0000     1          
   186  Na    c      0.0000       7.7498 *    -7.7498 *  0.0000     1          
   187  O     c      4.4285 *     1.1071 *     9.9640 *  0.0000     2          
   188  O     c      4.4285 *     9.9640 *     1.1071 *  0.0000     2          
   189  O     c      8.8569 *     5.5356 *    -3.3213 *  0.0000     2          
   190  O     c      8.8569 *    -3.3213 *     5.5356 *  0.0000     2          
   191  Na    c      4.4285 *     1.1071 *    -9.9640 *  0.0000     2          
   192  Na    c      4.4285 *     9.9640 *    -1.1071 *  0.0000     2          
   193  Na    c      8.8569 *     5.5356 *     3.3213 *  0.0000     2          
   194  Na    c      8.8569 *    -3.3213 *    -5.5356 *  0.0000     2          
   195  Na    c      4.4285 *    -1.1071 *     9.9640 *  0.0000     2          
   196  Na    c      4.4285 *    -9.9640 *     1.1071 *  0.0000     2          
   197  Na    c      8.8569 *     3.3213 *     5.5356 *  0.0000     2          
   198  Na    c      8.8569 *    -5.5356 *    -3.3213 *  0.0000     2          
   199  Cl    c      2.2142 *     7.7498 *     7.7498 *  0.0000     2          
   200  Na    c      2.2142 *    -7.7498 *    -7.7498 *  0.0000     2          
   201  Cl    c     11.0712 *    -1.1071 *    -1.1071 *  0.0000     2          
   202  Na    c     11.0712 *     1.1071 *     1.1071 *  0.0000     2          
   203  O     c      0.0000       5.5356 *     9.9640 *  0.0000     1          
   204  O     c      0.0000       9.9640 *     5.5356 *  0.0000     1          
   205  O     c      4.4285 *     9.9640 *    -3.3213 *  0.0000     2          
   206  O     c      4.4285 *    -3.3213 *     9.9640 *  0.0000     2          
   207  Na    c      0.0000       5.5356 *    -9.9640 *  0.0000     1          
   208  Na    c      0.0000       9.9640 *    -5.5356 *  0.0000     1          
   209  Na    c      4.4285 *     9.9640 *     3.3213 *  0.0000     2          
   210  Na    c      4.4285 *    -3.3213 *    -9.9640 *  0.0000     2          
   211  Na    c      0.0000      -5.5356 *     9.9640 *  0.0000     1          
   212  Na    c      0.0000      -9.9640 *     5.5356 *  0.0000     1          
   213  Na    c      4.4285 *     3.3213 *     9.9640 *  0.0000     2          
   214  Na    c      4.4285 *    -9.9640 *    -3.3213 *  0.0000     2          
   215  Cl    c      2.2142 *    -5.5356 *    -9.9640 *  0.0000     2          
   216  Cl    c      2.2142 *    -9.9640 *    -5.5356 *  0.0000     2          
   217  Cl    c      6.6427 *     7.7498 *    -5.5356 *  0.0000     2          
   218  Cl    c      6.6427 *    -5.5356 *     7.7498 *  0.0000     2          
   219  Na    c      2.2142 *     5.5356 *     9.9640 *  0.0000     2          
   220  Na    c      2.2142 *     9.9640 *     5.5356 *  0.0000     2          
   221  Na    c      6.6427 *     5.5356 *    -7.7498 *  0.0000     2          
   222  Na    c      6.6427 *    -7.7498 *     5.5356 *  0.0000     2          
   223  Cl    c     11.0712 *    -1.1071 *     3.3213 *  0.0000     2          
   224  Cl    c     11.0712 *     3.3213 *    -1.1071 *  0.0000     2          
   225  Na    c     11.0712 *     1.1071 *    -3.3213 *  0.0000     2          
   226  Na    c     11.0712 *    -3.3213 *     1.1071 *  0.0000     2          
   227  O     c      4.4285 *    -7.7498 *    -7.7498 *  0.0000     2          
   228  O     c      8.8569 *     1.1071 *    -7.7498 *  0.0000     2          
   229  O     c      8.8569 *    -7.7498 *     1.1071 *  0.0000     2          
   230  Na    c      4.4285 *    -7.7498 *     7.7498 *  0.0000     2          
   231  Na    c      8.8569 *     1.1071 *     7.7498 *  0.0000     2          
   232  Na    c      8.8569 *    -7.7498 *    -1.1071 *  0.0000     2          
   233  Na    c      4.4285 *     7.7498 *    -7.7498 *  0.0000     2          
   234  Na    c      8.8569 *    -1.1071 *    -7.7498 *  0.0000     2          
   235  Na    c      8.8569 *     7.7498 *     1.1071 *  0.0000     2          
   236  O     c      8.8569 *     5.5356 *     5.5356 *  0.0000     2          
   237  Na    c      8.8569 *     5.5356 *    -5.5356 *  0.0000     2          
   238  Na    c      8.8569 *    -5.5356 *     5.5356 *  0.0000     2          
   239  O     s      0.0000       1.1071 *     1.1071 *  0.0000     1          
   240  Cl    s      2.2142 *    -1.1071 *    -1.1071 *  0.0000     2          
   241  O     s      0.0000       1.1071 *    -3.3213 *  0.0000     1          
   242  O     s      0.0000      -3.3213 *     1.1071 *  0.0000     1          
   243  Cl    s      2.2142 *    -1.1071 *     3.3213 *  0.0000     2          
   244  Cl    s      2.2142 *     3.3213 *    -1.1071 *  0.0000     2          
   245  O     s      4.4285 *     1.1071 *     1.1071 *  0.0000     2          
   246  O     s      0.0000      -3.3213 *    -3.3213 *  0.0000     1          
   247  Cl    s      2.2142 *     3.3213 *     3.3213 *  0.0000     2          
   248  O     s      4.4285 *     1.1071 *    -3.3213 *  0.0000     2          
   249  O     s      4.4285 *    -3.3213 *     1.1071 *  0.0000     2          
   250  O     s      0.0000       1.1071 *     5.5356 *  0.0000     1          
   251  O     s      0.0000       5.5356 *     1.1071 *  0.0000     1          
   252  Cl    s      2.2142 *    -1.1071 *    -5.5356 *  0.0000     2          
   253  Cl    s      2.2142 *    -5.5356 *    -1.1071 *  0.0000     2          
   254  O     s      0.0000       5.5356 *    -3.3213 *  0.0000     1          
   255  O     s      0.0000      -3.3213 *     5.5356 *  0.0000     1          
   256  O     s      4.4285 *    -3.3213 *    -3.3213 *  0.0000     2          
   257  Cl    s      2.2142 *     3.3213 *    -5.5356 *  0.0000     2          
   258  Cl    s      6.6427 *    -1.1071 *    -1.1071 *  0.0000     2          
   259  Cl    s      2.2142 *    -5.5356 *     3.3213 *  0.0000     2          
   260  O     s      4.4285 *     1.1071 *     5.5356 *  0.0000     2          
   261  O     s      4.4285 *     5.5356 *     1.1071 *  0.0000     2          
   262  Cl    s      6.6427 *     3.3213 *    -1.1071 *  0.0000     2          
   263  Cl    s      6.6427 *    -1.1071 *     3.3213 *  0.0000     2          
   264  O     s      0.0000       1.1071 *    -7.7498 *  0.0000     1          
   265  O     s      0.0000      -7.7498 *     1.1071 *  0.0000     1          
   266  O     s      4.4285 *    -3.3213 *     5.5356 *  0.0000     2          
   267  O     s      0.0000       5.5356 *     5.5356 *  0.0000     1          
   268  O     s      4.4285 *     5.5356 *    -3.3213 *  0.0000     2          
   269  Cl    s      2.2142 *    -1.1071 *     7.7498 *  0.0000     2          
   270  Cl    s      2.2142 *     7.7498 *    -1.1071 *  0.0000     2          
   271  Cl    s      6.6427 *     3.3213 *     3.3213 *  0.0000     2          
   272  Cl    s      2.2142 *    -5.5356 *    -5.5356 *  0.0000     2          
   273  O     s      0.0000      -3.3213 *    -7.7498 *  0.0000     1          
   274  O     s      0.0000      -7.7498 *    -3.3213 *  0.0000     1          
   275  Cl    s      2.2142 *     3.3213 *     7.7498 *  0.0000     2          
   276  Cl    s      2.2142 *     7.7498 *     3.3213 *  0.0000     2          
   277  Cl    s      6.6427 *    -5.5356 *    -1.1071 *  0.0000     2          
   278  Cl    s      6.6427 *    -1.1071 *    -5.5356 *  0.0000     2          
   279  O     s      4.4285 *     1.1071 *    -7.7498 *  0.0000     2          
   280  O     s      4.4285 *    -7.7498 *     1.1071 *  0.0000     2          
   281  O     s      8.8569 *     1.1071 *     1.1071 *  0.0000     2          
   282  O     s      4.4285 *     5.5356 *     5.5356 *  0.0000     2          
   283  Cl    s      6.6427 *    -5.5356 *     3.3213 *  0.0000     2          
   284  Cl    s      6.6427 *     3.3213 *    -5.5356 *  0.0000     2          
   285  O     s      4.4285 *    -3.3213 *    -7.7498 *  0.0000     2          
   286  O     s      4.4285 *    -7.7498 *    -3.3213 *  0.0000     2          
   287  O     s      8.8569 *     1.1071 *    -3.3213 *  0.0000     2          
   288  O     s      8.8569 *    -3.3213 *     1.1071 *  0.0000     2          
   289  O     s      0.0000       5.5356 *    -7.7498 *  0.0000     1          
   290  O     s      0.0000      -7.7498 *     5.5356 *  0.0000     1          
   291  Cl    s      2.2142 *     7.7498 *    -5.5356 *  0.0000     2          
   292  Cl    s      2.2142 *    -5.5356 *     7.7498 *  0.0000     2          
   293  O     s      8.8569 *    -3.3213 *    -3.3213 *  0.0000     2          
   294  O     s      0.0000       1.1071 *     9.9640 *  0.0000     1          
   295  O     s      0.0000       9.9640 *     1.1071 *  0.0000     1          
   296  Cl    s      2.2142 *    -1.1071 *    -9.9640 *  0.0000     2          
   297  Cl    s      2.2142 *    -9.9640 *    -1.1071 *  0.0000     2          
   298  Cl    s      6.6427 *    -1.1071 *     7.7498 *  0.0000     2          
   299  Cl    s      6.6427 *     7.7498 *    -1.1071 *  0.0000     2          
   300  Cl    s      6.6427 *    -5.5356 *    -5.5356 *  0.0000     2          
   301  O     s      0.0000       9.9640 *    -3.3213 *  0.0000     1          
   302  O     s      0.0000      -3.3213 *     9.9640 *  0.0000     1          
   303  O     s      4.4285 *     5.5356 *    -7.7498 *  0.0000     2          
   304  O     s      4.4285 *    -7.7498 *     5.5356 *  0.0000     2          
   305  O     s      8.8569 *     1.1071 *     5.5356 *  0.0000     2          
   306  O     s      8.8569 *     5.5356 *     1.1071 *  0.0000     2          
   307  Cl    s      2.2142 *     3.3213 *    -9.9640 *  0.0000     2          
   308  Cl    s      2.2142 *    -9.9640 *     3.3213 *  0.0000     2          
   309  Cl    s      6.6427 *     3.3213 *     7.7498 *  0.0000     2          
   310  Cl    s      6.6427 *     7.7498 *     3.3213 *  0.0000     2          
   311  O     s      0.0000      -7.7498 *    -7.7498 *  0.0000     1          
   312  O     s      4.4285 *     1.1071 *     9.9640 *  0.0000     2          
   313  O     s      4.4285 *     9.9640 *     1.1071 *  0.0000     2          
   314  O     s      8.8569 *     5.5356 *    -3.3213 *  0.0000     2          
   315  O     s      8.8569 *    -3.3213 *     5.5356 *  0.0000     2          
   316  Cl    s      2.2142 *     7.7498 *     7.7498 *  0.0000     2          
   317  Cl    s     11.0712 *    -1.1071 *    -1.1071 *  0.0000     2          
   318  O     s      0.0000       5.5356 *     9.9640 *  0.0000     1          
   319  O     s      0.0000       9.9640 *     5.5356 *  0.0000     1          
   320  O     s      4.4285 *     9.9640 *    -3.3213 *  0.0000     2          
   321  O     s      4.4285 *    -3.3213 *     9.9640 *  0.0000     2          
   322  Cl    s      2.2142 *    -5.5356 *    -9.9640 *  0.0000     2          
   323  Cl    s      2.2142 *    -9.9640 *    -5.5356 *  0.0000     2          
   324  Cl    s      6.6427 *     7.7498 *    -5.5356 *  0.0000     2          
   325  Cl    s      6.6427 *    -5.5356 *     7.7498 *  0.0000     2          
   326  Cl    s     11.0712 *    -1.1071 *     3.3213 *  0.0000     2          
   327  Cl    s     11.0712 *     3.3213 *    -1.1071 *  0.0000     2          
   328  O     s      4.4285 *    -7.7498 *    -7.7498 *  0.0000     2          
   329  O     s      8.8569 *     1.1071 *    -7.7498 *  0.0000     2          
   330  O     s      8.8569 *    -7.7498 *     1.1071 *  0.0000     2          
   331  O     s      8.8569 *     5.5356 *     5.5356 *  0.0000     2          
--------------------------------------------------------------------------------

  Components of defect energy : 

--------------------------------------------------------------------------------
  Region 1 - region 1                   =      5.63460805 eV
  Region 1 - region 2a (unrelaxed)      =     -0.01031254 eV
  Region 1 - 2a (relaxed - correction)  =     -0.11690686 eV
  Region 1 (Total)                      =      5.50738865 eV
  Region 2a                             =      0.05843293 eV
  Region 2b                             =     -0.16637505 eV
--------------------------------------------------------------------------------
  Total defect energy                   =      5.39944654 eV
--------------------------------------------------------------------------------

  Largest displacement in region 2 =   0.0185 Angstroms


  Number of variables =      904

  Maximum number of calculations  =        1000
  Maximum Hessian update interval =          10
  Maximum step size               =   1.0000000
  Maximum parameter tolerance     =   0.0000100
  Maximum function  tolerance     =   0.0000100
  Maximum gradient  tolerance     =   0.0010000

  Symmetry adapted optimisation

  Symmetry to be used for second derivatives

  Newton-Raphson optimiser to be used

  BFGS hessian update to be used

  Lower half triangular hessian to be used

  Start of defect optimisation :

  Cycle:      0 Defect Energy:   5.399447  Gnorm:     0.014805  CPU:    2.599
  ** Hessian calculated **
  Cycle:      1 Defect Energy:   4.626905  Gnorm:     0.012028  CPU:   11.714
  Cycle:      2 Defect Energy:   3.465622  Gnorm:     0.006740  CPU:   17.871
  Cycle:      3 Defect Energy:   3.211076  Gnorm:     0.004871  CPU:   22.536
  ** Hessian calculated **
  Cycle:      4 Defect Energy:   2.844130  Gnorm:     0.001623  CPU:   28.491
  Cycle:      5 Defect Energy:   2.762327  Gnorm:     0.001058  CPU:   29.419
  ** Hessian calculated **
  Cycle:      6 Defect Energy:   2.737600  Gnorm:     0.000756  CPU:   32.172
  Cycle:      7 Defect Energy:   2.731435  Gnorm:     0.000650  CPU:   33.236
  ** Hessian calculated **
  Cycle:      8 Defect Energy:   2.720669  Gnorm:     0.000462  CPU:   35.760
  Cycle:      9 Defect Energy:   2.714990  Gnorm:     0.000333  CPU:   36.749
  Cycle:     10 Defect Energy:   2.711841  Gnorm:     0.000238  CPU:   37.639
  Cycle:     11 Defect Energy:   2.710128  Gnorm:     0.000169  CPU:   38.517
  Cycle:     12 Defect Energy:   2.709208  Gnorm:     0.000119  CPU:   39.402
  Cycle:     13 Defect Energy:   2.708718  Gnorm:     0.000084  CPU:   40.262
  Cycle:     14 Defect Energy:   2.708459  Gnorm:     0.000059  CPU:   41.103
  Cycle:     15 Defect Energy:   2.708321  Gnorm:     0.000041  CPU:   42.044
  Cycle:     16 Defect Energy:   2.708248  Gnorm:     0.000028  CPU:   43.092
  Cycle:     17 Defect Energy:   2.708208  Gnorm:     0.000019  CPU:   47.574
  ** Hessian calculated **
  Cycle:     18 Defect Energy:   2.708185  Gnorm:     0.000013  CPU:   50.650
  Cycle:     19 Defect Energy:   2.708172  Gnorm:     0.000009  CPU:   51.540


  **** Optimisation achieved ****


  Final defect energy  =        2.70816411
  Final defect Gnorm   =        0.00000651

  Components of defect energy : 

--------------------------------------------------------------------------------
  Region 1 - region 1                   =      3.33054667 eV
  Region 1 - region 2a (unrelaxed)      =     -0.40808993 eV
  Region 1 - 2a (relaxed - correction)  =     -0.09614304 eV
  Region 1 (Total)                      =      2.82631369 eV
  Region 2a                             =      0.04808290 eV
  Region 2b                             =     -0.16623249 eV
--------------------------------------------------------------------------------
  Total defect energy                   =      2.70816411 eV
--------------------------------------------------------------------------------

  Largest displacement in region 2 =   0.0185 Angstroms

  Final coordinates of region 1 :

--------------------------------------------------------------------------------
   No.  Atomic        x           y           z          Radius      Charge
        Label       (Angs)      (Angs)      (Angs)       (Angs)       (e) 
--------------------------------------------------------------------------------
     1  Na    c     2.214230    0.664269    1.549961    0.000000    0.670000
     2  O     c     2.214230    2.568286    2.409094    0.000000    0.489000
     3  Cl    c     4.515562   -0.065967   -0.020518    0.000000    0.615000
     4  Cl    c    -0.087102   -0.065967   -0.020518    0.000000    0.615000
     5  Na    c     4.410447    2.549511    2.239378    0.000000    0.670000
     6  Na    c     0.018014    2.549511    2.239378    0.000000    0.670000
     7  O     c     2.214230    2.254883   -2.288606    0.000000    0.489000
     8  O     c     2.214230   -2.143804    2.197318    0.000000    0.489000
     9  Na    c     2.214230    2.315676    4.521980    0.000000    0.670000
    10  Na    c     2.214230   -2.256462    0.010441    0.000000    0.670000
    11  Na    c     2.214230    0.075808   -2.101054    0.000000    0.670000
    12  Na    c     2.214230    4.551303    1.651957    0.000000    0.670000
    13  Cl    c     4.526589    0.020519    4.554332    0.000000    0.615000
    14  Cl    c    -0.098129    0.020519    4.554332    0.000000    0.615000
    15  Cl    c     4.581995    4.571749   -0.005793    0.000000    0.615000
    16  Cl    c    -0.153534    4.571749   -0.005793    0.000000    0.615000
    17  Na    c     4.361248    2.232826   -1.911434    0.000000    0.670000
    18  Na    c     0.067212    2.232826   -1.911434    0.000000    0.670000
    19  Na    c     4.396067   -2.058832    2.215004    0.000000    0.670000
    20  Na    c     0.032394   -2.058832    2.215004    0.000000    0.670000
    21  O     c     6.636473    2.265547    2.236299    0.000000    0.489000
    22  O     c    -2.208012    2.265547    2.236299    0.000000    0.489000
    23  Na    c     6.719912    2.330088    0.024706    0.000000    0.670000
    24  Na    c    -2.291451    2.330088    0.024706    0.000000    0.670000
    25  Na    c     6.538777    0.054925    2.131007    0.000000    0.670000
    26  Na    c    -2.110316    0.054925    2.131007    0.000000    0.670000
    27  O     c     2.214230   -2.174529   -2.207741    0.000000    0.489000
    28  Na    c     2.214230   -1.798100    4.367825    0.000000    0.670000
    29  Na    c     2.214230    4.403093   -1.864833    0.000000    0.670000
    30  Cl    c     4.581784    4.521146    4.535280    0.000000    0.615000
    31  Cl    c    -0.153323    4.521146    4.535280    0.000000    0.615000
    32  Na    c     4.424510   -2.168174   -2.213506    0.000000    0.670000
    33  Na    c     0.003951   -2.168174   -2.213506    0.000000    0.670000
    34  O     c     6.607144    2.228091   -2.187256    0.000000    0.489000
    35  O     c    -2.178684    2.228091   -2.187256    0.000000    0.489000
    36  Na    c     6.563267    2.159653    4.446903    0.000000    0.670000
    37  Na    c    -2.134806    2.159653    4.446903    0.000000    0.670000
    38  Na    c     6.606005    0.015776   -2.126649    0.000000    0.670000
    39  Na    c    -2.177544    0.015776   -2.126649    0.000000    0.670000
    40  O     c     6.624957   -2.171836    2.219856    0.000000    0.489000
    41  O     c    -2.196496   -2.171836    2.219856    0.000000    0.489000
    42  Na    c     6.603457   -2.269028    0.004978    0.000000    0.670000
    43  Na    c    -2.174996   -2.269028    0.004978    0.000000    0.670000
    44  Na    c     6.762470    4.473162    2.297768    0.000000    0.670000
    45  Na    c    -2.334009    4.473162    2.297768    0.000000    0.670000
    46  O     c     2.214230    2.239815    6.720182    0.000000    0.489000
    47  O     c     2.214230    6.700969    2.177595    0.000000    0.489000
    48  Na    c     2.214230    2.342181   -4.442790    0.000000    0.670000
    49  Na    c     2.214230    7.056482   -0.015571    0.000000    0.670000
    50  Na    c     2.214230    0.030495    6.751719    0.000000    0.670000
    51  Na    c     2.214230   -4.360377    2.385235    0.000000    0.670000
    52  Cl    c     4.479912   -0.073443   -4.513806    0.000000    0.615000
    53  Cl    c    -0.051451   -0.073443   -4.513806    0.000000    0.615000
    54  Cl    c     4.454155   -4.450006   -0.033228    0.000000    0.615000
    55  Cl    c    -0.025694   -4.450006   -0.033228    0.000000    0.615000
    56  Na    c     4.434055    2.232768    6.679959    0.000000    0.670000
    57  Na    c    -0.005594    2.232768    6.679959    0.000000    0.670000
    58  Na    c     4.439338    6.627022    2.214665    0.000000    0.670000
    59  Na    c    -0.010877    6.627022    2.214665    0.000000    0.670000
    60  O     c     2.214230    6.644885   -2.193588    0.000000    0.489000
    61  O     c     2.214230   -2.179071    6.598866    0.000000    0.489000
    62  O     c     6.644444   -2.205842   -2.213734    0.000000    0.489000
    63  O     c    -2.215983   -2.205842   -2.213734    0.000000    0.489000
    64  Na    c     2.214230    6.318303    4.380067    0.000000    0.670000
    65  Na    c     2.214230   -2.102672   -4.417292    0.000000    0.670000
    66  Na    c     6.650203   -2.103448    4.429278    0.000000    0.670000
    67  Na    c    -2.221743   -2.103448    4.429278    0.000000    0.670000
    68  Na    c     2.214230    4.440533    6.798939    0.000000    0.670000
    69  Na    c     2.214230   -4.395605   -2.289904    0.000000    0.670000
    70  Na    c     6.603533    4.437435   -2.272897    0.000000    0.670000
    71  Na    c    -2.175072    4.437435   -2.272897    0.000000    0.670000
    72  Cl    c     4.500928    4.508534   -4.513574    0.000000    0.615000
    73  Cl    c    -0.072467    4.508534   -4.513574    0.000000    0.615000
    74  Cl    c     8.880441    0.018186    0.013230    0.000000    0.615000
    75  Cl    c    -4.451980    0.018186    0.013230    0.000000    0.615000
    76  Na    c     4.426808   -2.209556    6.585234    0.000000    0.670000
    77  Na    c     0.001653   -2.209556    6.585234    0.000000    0.670000
    78  Na    c     8.849677    2.155174    2.308139    0.000000    0.670000
    79  Na    c    -4.421217    2.155174    2.308139    0.000000    0.670000
    80  Cl    c     4.472755   -4.474086    4.450051    0.000000    0.615000
    81  Cl    c    -0.044295   -4.474086    4.450051    0.000000    0.615000
    82  Na    c     4.428540    6.614850   -2.204124    0.000000    0.670000
    83  Na    c    -0.000079    6.614850   -2.204124    0.000000    0.670000
    84  O     c     6.652947    2.224566    6.663423    0.000000    0.489000
    85  O     c    -2.224486    2.224566    6.663423    0.000000    0.489000
    86  O     c     6.663078    6.679082    2.222582    0.000000    0.489000
    87  O     c    -2.234617    6.679082    2.222582    0.000000    0.489000
    88  Na    c     6.442355    2.168241   -4.398807    0.000000    0.670000
    89  Na    c    -2.013894    2.168241   -4.398807    0.000000    0.670000
    90  Na    c     6.646465    6.604282   -0.000470    0.000000    0.670000
    91  Na    c    -2.218005    6.604282   -0.000470    0.000000    0.670000
    92  Na    c     6.624457    0.007833    6.711186    0.000000    0.670000
    93  Na    c    -2.195996    0.007833    6.711186    0.000000    0.670000
    94  Na    c     6.599188   -4.391077    2.291918    0.000000    0.670000
    95  Na    c    -2.170727   -4.391077    2.291918    0.000000    0.670000
    96  Cl    c     8.890953    4.459526    0.015098    0.000000    0.615000
    97  Cl    c    -4.462493    4.459526    0.015098    0.000000    0.615000
    98  Na    c     8.839561   -2.147879    2.194818    0.000000    0.670000
    99  Na    c    -4.411100   -2.147879    2.194818    0.000000    0.670000
   100  Cl    c     8.892124    0.012080    4.446498    0.000000    0.615000
   101  Cl    c    -4.463664    0.012080    4.446498    0.000000    0.615000
   102  Na    c     8.826330    2.212370   -2.313962    0.000000    0.670000
   103  Na    c    -4.397869    2.212370   -2.313962    0.000000    0.670000
   104  O     c     2.214230    2.224269   -6.667738    0.000000    0.489000
   105  O     c     2.214230   -6.608014    2.216637    0.000000    0.489000
   106  Na    c     2.214230    2.209057    8.904874    0.000000    0.670000
   107  Na    c     2.214230   -6.490085    0.005771    0.000000    0.670000
   108  Na    c     2.214230    0.012676   -6.599742    0.000000    0.670000
   109  Na    c     2.214230    8.875541    2.469889    0.000000    0.670000
   110  O     c     6.647390   -2.210696    6.647580    0.000000    0.489000
   111  O     c    -2.218929   -2.210696    6.647580    0.000000    0.489000
   112  Na    c     6.639510   -2.144164   -4.426281    0.000000    0.670000
   113  Na    c    -2.211049   -2.144164   -4.426281    0.000000    0.670000
   114  Na    c     6.654684    4.440940    6.589971    0.000000    0.670000
   115  Na    c    -2.226224    4.440940    6.589971    0.000000    0.670000
   116  O     c     2.214230    6.638038    6.612093    0.000000    0.489000
   117  O     c     6.649864    6.656998   -2.222296    0.000000    0.489000
   118  O     c    -2.221403    6.656998   -2.222296    0.000000    0.489000
   119  Na    c     2.214230    6.391896   -4.406738    0.000000    0.670000
   120  Na    c     6.647888    6.705092    4.435891    0.000000    0.670000
   121  Na    c    -2.219427    6.705092    4.435891    0.000000    0.670000
   122  Na    c     2.214230   -4.392952    6.424327    0.000000    0.670000
   123  Na    c     6.626883   -4.416625   -2.272057    0.000000    0.670000
   124  Na    c    -2.198422   -4.416625   -2.272057    0.000000    0.670000
   125  Cl    c     4.429406    0.006666    8.894187    0.000000    0.615000
   126  Cl    c    -0.000945    0.006666    8.894187    0.000000    0.615000
   127  Cl    c     4.467800    8.921380   -0.011713    0.000000    0.615000
   128  Cl    c    -0.039340    8.921380   -0.011713    0.000000    0.615000
   129  Na    c     4.421248    2.212229   -6.678343    0.000000    0.670000
   130  Na    c     0.007213    2.212229   -6.678343    0.000000    0.670000
   131  Na    c     4.423912   -6.595111    2.194944    0.000000    0.670000
   132  Na    c     0.004549   -6.595111    2.194944    0.000000    0.670000
   133  Cl    c     8.901871    4.450772    4.442703    0.000000    0.615000
   134  Cl    c    -4.473410    4.450772    4.442703    0.000000    0.615000
   135  Na    c     8.851439   -2.194043   -2.200433    0.000000    0.670000
   136  Na    c    -4.422978   -2.194043   -2.200433    0.000000    0.670000
   137  Cl    c     4.433595   -4.453532   -4.438552    0.000000    0.615000
   138  Cl    c    -0.005135   -4.453532   -4.438552    0.000000    0.615000
   139  Na    c     4.433346    6.645766    6.601114    0.000000    0.670000
   140  Na    c    -0.004885    6.645766    6.601114    0.000000    0.670000
   141  O     c     2.214230   -2.208261   -6.637881    0.000000    0.489000
   142  O     c     2.214230   -6.623928   -2.210364    0.000000    0.489000
   143  Na    c     2.214230   -2.295474    8.827400    0.000000    0.670000
   144  Na    c     2.214230   -6.738728    4.420421    0.000000    0.670000
   145  Na    c     2.214230    4.428724   -6.758861    0.000000    0.670000
   146  Na    c     2.214230    8.852969   -2.457926    0.000000    0.670000
   147  Cl    c     4.426613    4.442773    8.898192    0.000000    0.615000
   148  Cl    c     0.001847    4.442773    8.898192    0.000000    0.615000
   149  Cl    c     4.457540    8.911017    4.441328    0.000000    0.615000
   150  Cl    c    -0.029079    8.911017    4.441328    0.000000    0.615000
   151  Na    c     4.429813   -2.204912   -6.624128    0.000000    0.670000
   152  Na    c    -0.001352   -2.204912   -6.624128    0.000000    0.670000
   153  Na    c     4.426890   -6.620629   -2.195563    0.000000    0.670000
   154  Na    c     0.001571   -6.620629   -2.195563    0.000000    0.670000
   155  Cl    c     8.877659   -4.429597   -0.001407    0.000000    0.615000
   156  Cl    c    -4.449198   -4.429597   -0.001407    0.000000    0.615000
   157  Na    c     8.869025    6.722235    2.205895    0.000000    0.670000
   158  Na    c    -4.440564    6.722235    2.205895    0.000000    0.670000
   159  Cl    c     8.888441   -0.005663   -4.431789    0.000000    0.615000
   160  Cl    c    -4.459980   -0.005663   -4.431789    0.000000    0.615000
   161  Na    c     8.859540    2.209307    6.597980    0.000000    0.670000
   162  Na    c    -4.431079    2.209307    6.597980    0.000000    0.670000
   163  O     c     6.633652    2.215266   -6.626166    0.000000    0.489000
   164  O     c    -2.205191    2.215266   -6.626166    0.000000    0.489000
   165  O     c     6.638536   -6.622716    2.213803    0.000000    0.489000
   166  O     c    -2.210075   -6.622716    2.213803    0.000000    0.489000
   167  O     c    11.066308    2.218069    2.215034    0.000000    0.489000
   168  O     c    -6.637847    2.218069    2.215034    0.000000    0.489000
   169  Na    c     6.666287    2.266567    8.865402    0.000000    0.670000
   170  Na    c    -2.237826    2.266567    8.865402    0.000000    0.670000
   171  Na    c     6.653861   -6.560129    0.000606    0.000000    0.670000
   172  Na    c    -2.225400   -6.560129    0.000606    0.000000    0.670000
   173  Na    c    10.967037    2.235182   -0.000198    0.000000    0.670000
   174  Na    c    -6.538576    2.235182   -0.000198    0.000000    0.670000
   175  Na    c     6.647818    0.001854   -6.656821    0.000000    0.670000
   176  Na    c    -2.219357    0.001854   -6.656821    0.000000    0.670000
   177  Na    c     6.615204    8.876456    2.175091    0.000000    0.670000
   178  Na    c    -2.186743    8.876456    2.175091    0.000000    0.670000
   179  Na    c    11.099588    0.004860    2.191658    0.000000    0.670000
   180  Na    c    -6.671127    0.004860    2.191658    0.000000    0.670000
   181  O     c     6.655479    6.659801    6.652173    0.000000    0.489000
   182  O     c    -2.227019    6.659801    6.652173    0.000000    0.489000
   183  Na    c     6.638671    6.673739   -4.432227    0.000000    0.670000
   184  Na    c    -2.210210    6.673739   -4.432227    0.000000    0.670000
   185  Na    c     6.644995   -4.422718    6.575550    0.000000    0.670000
   186  Na    c    -2.216534   -4.422718    6.575550    0.000000    0.670000
   187  Cl    c     8.877195   -4.433449    4.441604    0.000000    0.615000
   188  Cl    c    -4.448734   -4.433449    4.441604    0.000000    0.615000
   189  Na    c     8.857006    6.639720   -2.210298    0.000000    0.670000
   190  Na    c    -4.428545    6.639720   -2.210298    0.000000    0.670000
   191  Cl    c     8.890624    4.450076   -4.427295    0.000000    0.615000
   192  Cl    c    -4.462163    4.450076   -4.427295    0.000000    0.615000
   193  Na    c     8.856289   -2.203925    6.651640    0.000000    0.670000
   194  Na    c    -4.427828   -2.203925    6.651640    0.000000    0.670000
   195  O     c     6.648009   -2.217217   -6.644977    0.000000    0.489000
   196  O     c    -2.219548   -2.217217   -6.644977    0.000000    0.489000
   197  O     c     6.642575   -6.636605   -2.215812    0.000000    0.489000
   198  O     c    -2.214114   -6.636605   -2.215812    0.000000    0.489000
   199  O     c    11.055195    2.217528   -2.213851    0.000000    0.489000
   200  O     c    -6.626734    2.217528   -2.213851    0.000000    0.489000
   201  O     c    11.065104   -2.207836    2.214475    0.000000    0.489000
   202  O     c    -6.636643   -2.207836    2.214475    0.000000    0.489000
   203  Na    c     6.623547   -2.257867    8.855340    0.000000    0.670000
   204  Na    c    -2.195086   -2.257867    8.855340    0.000000    0.670000
   205  Na    c     6.619834   -6.669975    4.425365    0.000000    0.670000
   206  Na    c    -2.191373   -6.669975    4.425365    0.000000    0.670000
   207  Na    c    11.112950    2.214937    4.427535    0.000000    0.670000
   208  Na    c    -6.684489    2.214937    4.427535    0.000000    0.670000
   209  Na    c    11.065065   -2.234539    0.001550    0.000000    0.670000
   210  Na    c    -6.636604   -2.234539    0.001550    0.000000    0.670000
   211  Na    c     6.631679    4.431710   -6.597847    0.000000    0.670000
   212  Na    c    -2.203219    4.431710   -6.597847    0.000000    0.670000
   213  Na    c     6.633242    8.863002   -2.193995    0.000000    0.670000
   214  Na    c    -2.204781    8.863002   -2.193995    0.000000    0.670000
   215  Na    c    11.057383    0.003962   -2.191108    0.000000    0.670000
   216  Na    c    -6.628922    0.003962   -2.191108    0.000000    0.670000
   217  Na    c    11.023863    4.434135    2.219650    0.000000    0.670000
   218  Na    c    -6.595402    4.434135    2.219650    0.000000    0.670000
   219  O     c     2.214230    6.635667   -6.630568    0.000000    0.489000
   220  O     c     2.214230   -6.622761    6.630351    0.000000    0.489000
   221  Na    c     2.214230    6.737783    8.837975    0.000000    0.670000
   222  Na    c     2.214230   -6.669212   -4.423952    0.000000    0.670000
   223  Na    c     2.214230    8.846931    6.490343    0.000000    0.670000
   224  Na    c     2.214230   -4.420773   -6.595331    0.000000    0.670000
   225  Cl    c     4.441488    8.899964   -4.437270    0.000000    0.615000
   226  Cl    c    -0.013027    8.899964   -4.437270    0.000000    0.615000
   227  Cl    c     4.440193   -4.428813    8.883937    0.000000    0.615000
   228  Cl    c    -0.011733   -4.428813    8.883937    0.000000    0.615000
   229  Na    c     4.429455    6.642396   -6.622526    0.000000    0.670000
   230  Na    c    -0.000994    6.642396   -6.622526    0.000000    0.670000
   231  Na    c     4.427099   -6.612324    6.647243    0.000000    0.670000
   232  Na    c     0.001362   -6.612324    6.647243    0.000000    0.670000
   233  O     c    11.071113   -2.211617   -2.211138    0.000000    0.489000
   234  O     c    -6.642652   -2.211617   -2.211138    0.000000    0.489000
   235  Na    c    11.047374   -2.198705    4.427821    0.000000    0.670000
   236  Na    c    -6.618913   -2.198705    4.427821    0.000000    0.670000
   237  Na    c    11.052015    4.429667   -2.221647    0.000000    0.670000
   238  Na    c    -6.623554    4.429667   -2.221647    0.000000    0.670000
   239  O     c     2.214230    2.213680   11.093148    0.000000    0.489000
   240  O     c     2.214230   11.076481    2.226057    0.000000    0.489000
   241  Na    c     2.214230    2.171765   -8.870852    0.000000    0.670000
   242  Na    c     2.214230   10.964208   -0.001662    0.000000    0.670000
   243  Na    c     2.214230   -0.008362   11.054497    0.000000    0.670000
   244  Na    c     2.214230   -8.839007    2.148806    0.000000    0.670000
   245  Cl    c     4.431052    0.001137   -8.886397    0.000000    0.615000
   246  Cl    c    -0.002591    0.001137   -8.886397    0.000000    0.615000
   247  Cl    c     4.430093   -8.886899    0.001303    0.000000    0.615000
   248  Cl    c    -0.001632   -8.886899    0.001303    0.000000    0.615000
   249  Cl    c     8.873241   -0.000805    8.875681    0.000000    0.615000
   250  Cl    c    -4.444780   -0.000805    8.875681    0.000000    0.615000
   251  Cl    c     8.879353    8.882447    0.004222    0.000000    0.615000
   252  Cl    c    -4.450892    8.882447    0.004222    0.000000    0.615000
   253  Na    c     4.431108    2.206974   11.079614    0.000000    0.670000
   254  Na    c    -0.002647    2.206974   11.079614    0.000000    0.670000
   255  Na    c     4.427470   11.076368    2.187723    0.000000    0.670000
   256  Na    c     0.000991   11.076368    2.187723    0.000000    0.670000
   257  Na    c     8.846065    2.229474   -6.556205    0.000000    0.670000
   258  Na    c    -4.417604    2.229474   -6.556205    0.000000    0.670000
   259  Na    c     8.849724   -6.624532    2.221714    0.000000    0.670000
   260  Na    c    -4.421263   -6.624532    2.221714    0.000000    0.670000
   261  Cl    c     8.874744   -4.444409   -4.436648    0.000000    0.615000
   262  Cl    c    -4.446283   -4.444409   -4.436648    0.000000    0.615000
   263  Na    c     8.863504    6.646553    6.648840    0.000000    0.670000
   264  Na    c    -4.435043    6.646553    6.648840    0.000000    0.670000
   265  O     c     2.214230   11.065303   -2.227994    0.000000    0.489000
   266  O     c     2.214230   -2.221606   11.062664    0.000000    0.489000
   267  O     c     6.648749    6.652590   -6.647555    0.000000    0.489000
   268  O     c    -2.220289    6.652590   -6.647555    0.000000    0.489000
   269  O     c     6.644131   -6.642393    6.641010    0.000000    0.489000
   270  O     c    -2.215671   -6.642393    6.641010    0.000000    0.489000
   271  O     c    11.076014    2.215833    6.641778    0.000000    0.489000
   272  O     c    -6.647554    2.215833    6.641778    0.000000    0.489000
   273  O     c    11.078256    6.651431    2.214759    0.000000    0.489000
   274  O     c    -6.649795    6.651431    2.214759    0.000000    0.489000
   275  Na    c     2.214230   11.176915    4.434509    0.000000    0.670000
   276  Na    c     2.214230   -2.207542   -8.849289    0.000000    0.670000
   277  Na    c     6.634675    6.621589    8.856969    0.000000    0.670000
   278  Na    c    -2.206214    6.621589    8.856969    0.000000    0.670000
   279  Na    c     6.631500   -6.666157   -4.428128    0.000000    0.670000
   280  Na    c    -2.203040   -6.666157   -4.428128    0.000000    0.670000
   281  Na    c    11.111228    2.205034   -4.425237    0.000000    0.670000
   282  Na    c    -6.682767    2.205034   -4.425237    0.000000    0.670000
   283  Na    c    11.072624    6.632910   -0.000463    0.000000    0.670000
   284  Na    c    -6.644163    6.632910   -0.000463    0.000000    0.670000
   285  Na    c     2.214230    4.435540   11.053301    0.000000    0.670000
   286  Na    c     2.214230   -8.843247   -2.163780    0.000000    0.670000
   287  Na    c     6.651272    8.862560    6.670442    0.000000    0.670000
   288  Na    c    -2.222811    8.862560    6.670442    0.000000    0.670000
   289  Na    c     6.639842   -4.428409   -6.610701    0.000000    0.670000
   290  Na    c    -2.211381   -4.428409   -6.610701    0.000000    0.670000
   291  Na    c    11.067264    0.001892    6.643504    0.000000    0.670000
   292  Na    c    -6.638803    0.001892    6.643504    0.000000    0.670000
   293  Na    c    11.038224   -4.422268    2.228704    0.000000    0.670000
   294  Na    c    -6.609763   -4.422268    2.228704    0.000000    0.670000
   295  Cl    c     4.429796    4.432936   -8.884316    0.000000    0.615000
   296  Cl    c    -0.001335    4.432936   -8.884316    0.000000    0.615000
   297  Cl    c     4.431148   -8.869907    4.431702    0.000000    0.615000
   298  Cl    c    -0.002687   -8.869907    4.431702    0.000000    0.615000
   299  Cl    c     8.876080    4.437887    8.881685    0.000000    0.615000
   300  Cl    c    -4.447620    4.437887    8.881685    0.000000    0.615000
   301  Cl    c     8.883403    8.875927    4.438863    0.000000    0.615000
   302  Cl    c    -4.454943    8.875927    4.438863    0.000000    0.615000
   303  Na    c     4.428898   11.059562   -2.195648    0.000000    0.670000
   304  Na    c    -0.000437   11.059562   -2.195648    0.000000    0.670000
   305  Na    c     4.427431   -2.204307   11.056283    0.000000    0.670000
   306  Na    c     0.001029   -2.204307   11.056283    0.000000    0.670000
   307  Na    c     8.855923   -2.224815   -6.639828    0.000000    0.670000
   308  Na    c    -4.427462   -2.224815   -6.639828    0.000000    0.670000
   309  Na    c     8.853986   -6.635911   -2.218326    0.000000    0.670000
   310  Na    c    -4.425525   -6.635911   -2.218326    0.000000    0.670000
   311  O     c     2.214230   -6.643083   -6.641800    0.000000    0.489000
   312  Na    c     2.214230   -6.555401    8.845003    0.000000    0.670000
   313  Na    c     2.214230    8.846824   -6.545263    0.000000    0.670000
   314  O     c     6.646382    2.218002   11.077532    0.000000    0.489000
   315  O     c    -2.217921    2.218002   11.077532    0.000000    0.489000
   316  O     c     6.644562   11.083724    2.210135    0.000000    0.489000
   317  O     c    -2.216102   11.083724    2.210135    0.000000    0.489000
   318  O     c    11.074653    6.645317   -2.213943    0.000000    0.489000
   319  O     c    -6.646192    6.645317   -2.213943    0.000000    0.489000
   320  O     c    11.072885   -2.212694    6.644870    0.000000    0.489000
   321  O     c    -6.644424   -2.212694    6.644870    0.000000    0.489000
   322  Na    c     6.667557    2.231275   -8.846085    0.000000    0.670000
   323  Na    c    -2.239096    2.231275   -8.846085    0.000000    0.670000
   324  Na    c     6.650141   11.082781   -0.003563    0.000000    0.670000
   325  Na    c    -2.221681   11.082781   -0.003563    0.000000    0.670000
[...]
    251 y          6.642691      6.701709     0.059018    Cartesian    0.89
    251 z          2.214230      2.176005    -0.038225    Cartesian   -1.73
    252 x          4.428461      4.482756     0.054295    Cartesian    1.23
    252 y          0.000000     -0.076658    -0.076658    Cartesian    0.00
    252 z         -4.428461     -4.517337    -0.088876    Cartesian    2.01
    253 x          4.428461      4.455212     0.026751    Cartesian    0.60
    253 y         -4.428461     -4.452241    -0.023780    Cartesian    0.54
    253 z          0.000000     -0.034532    -0.034532    Cartesian    0.00
    254 x          2.214230      2.214230     0.000000    Cartesian    0.00
    254 y          6.642691      6.647623     0.004931    Cartesian    0.07
    254 z         -2.214230     -2.193157     0.021074    Cartesian   -0.95
    255 x          2.214230      2.214230     0.000000    Cartesian    0.00
    255 y         -2.214230     -2.177930     0.036300    Cartesian   -1.64
    255 z          6.642691      6.600261    -0.042431    Cartesian   -0.64
    256 x          6.642691      6.644596     0.001905    Cartesian    0.03
    256 y         -2.214230     -2.206212     0.008019    Cartesian   -0.36
    256 z         -2.214230     -2.213854     0.000377    Cartesian   -0.02
    257 x          4.428461      4.503494     0.075033    Cartesian    1.69
    257 y          4.428461      4.511889     0.083428    Cartesian    1.88
    257 z         -4.428461     -4.516768    -0.088307    Cartesian    1.99
    258 x          8.856922      8.882021     0.025099    Cartesian    0.28
    258 y          0.000000      0.018384     0.018384    Cartesian    0.00
    258 z          0.000000      0.013629     0.013629    Cartesian    0.00
    259 x          4.428461      4.473816     0.045355    Cartesian    1.02
    259 y         -4.428461     -4.476627    -0.048166    Cartesian    1.09
    259 z          4.428461      4.451411     0.022950    Cartesian    0.52
    260 x          6.642691      6.652960     0.010269    Cartesian    0.15
    260 y          2.214230      2.224375     0.010145    Cartesian    0.46
    260 z          6.642691      6.663926     0.021235    Cartesian    0.32
    261 x          6.642691      6.664153     0.021461    Cartesian    0.32
    261 y          6.642691      6.679426     0.036735    Cartesian    0.55
    261 z          2.214230      2.223169     0.008939    Cartesian    0.40
    262 x          8.856922      8.892087     0.035165    Cartesian    0.40
    262 y          4.428461      4.459740     0.031279    Cartesian    0.71
    262 z          0.000000      0.015715     0.015715    Cartesian    0.00
    263 x          8.856922      8.893405     0.036483    Cartesian    0.41
    263 y          0.000000      0.012362     0.012362    Cartesian    0.00
    263 z          4.428461      4.446755     0.018294    Cartesian    0.41
    264 x          2.214230      2.214230     0.000000    Cartesian    0.00
    264 y          2.214230      2.224818     0.010588    Cartesian    0.48
    264 z         -6.642691     -6.669532    -0.026840    Cartesian    0.40
    265 x          2.214230      2.214230     0.000000    Cartesian    0.00
    265 y         -6.642691     -6.609060     0.033632    Cartesian   -0.51
    265 z          2.214230      2.217206     0.002976    Cartesian    0.13
    266 x          6.642691      6.647809     0.005118    Cartesian    0.08
    266 y         -2.214230     -2.210661     0.003569    Cartesian   -0.16
    266 z          6.642691      6.647889     0.005197    Cartesian    0.08
    267 x          2.214230      2.214230     0.000000    Cartesian    0.00
    267 y          6.642691      6.636751    -0.005941    Cartesian   -0.09
    267 z          6.642691      6.613777    -0.028915    Cartesian   -0.44
    268 x          6.642691      6.650186     0.007495    Cartesian    0.11
    268 y          6.642691      6.657234     0.014543    Cartesian    0.22
    268 z         -2.214230     -2.222893    -0.008663    Cartesian    0.39
    269 x          4.428461      4.429251     0.000790    Cartesian    0.02
    269 y          0.000000      0.007149     0.007149    Cartesian    0.00
    269 z          8.856922      8.895034     0.038112    Cartesian    0.43
    270 x          4.428461      4.467370     0.038909    Cartesian    0.88
    270 y          8.856922      8.922365     0.065443    Cartesian    0.74
    270 z          0.000000     -0.011919    -0.011919    Cartesian    0.00
    271 x          8.856922      8.902862     0.045940    Cartesian    0.52
    271 y          4.428461      4.451191     0.022731    Cartesian    0.51
    271 z          4.428461      4.442566     0.014105    Cartesian    0.32
    272 x          4.428461      4.433868     0.005407    Cartesian    0.12
    272 y         -4.428461     -4.454907    -0.026446    Cartesian    0.60
    272 z         -4.428461     -4.438843    -0.010383    Cartesian    0.23
    273 x          2.214230      2.214230     0.000000    Cartesian    0.00
    273 y         -2.214230     -2.208073     0.006158    Cartesian   -0.28
    273 z         -6.642691     -6.637900     0.004791    Cartesian   -0.07
    274 x          2.214230      2.214230     0.000000    Cartesian    0.00
    274 y         -6.642691     -6.623914     0.018777    Cartesian   -0.28
    274 z         -2.214230     -2.210717     0.003513    Cartesian   -0.16
    275 x          4.428461      4.426090    -0.002371    Cartesian   -0.05
    275 y          4.428461      4.442722     0.014261    Cartesian    0.32
    275 z          8.856922      8.899116     0.042195    Cartesian    0.48
    276 x          4.428461      4.457488     0.029028    Cartesian    0.66
    276 y          8.856922      8.912778     0.055856    Cartesian    0.63
    276 z          4.428461      4.441578     0.013117    Cartesian    0.30
    277 x          8.856922      8.878805     0.021883    Cartesian    0.25
    277 y         -4.428461     -4.430251    -0.001790    Cartesian    0.04
    277 z          0.000000     -0.001656    -0.001656    Cartesian    0.00
    278 x          8.856922      8.890088     0.033166    Cartesian    0.37
    278 y          0.000000     -0.006022    -0.006022    Cartesian    0.00
    278 z         -4.428461     -4.432185    -0.003724    Cartesian    0.08
    279 x          6.642691      6.632864    -0.009827    Cartesian   -0.15
    279 y          2.214230      2.215006     0.000776    Cartesian    0.04
    279 z         -6.642691     -6.626944     0.015748    Cartesian   -0.24
    280 x          6.642691      6.638448    -0.004243    Cartesian   -0.06
    280 y         -6.642691     -6.623101     0.019590    Cartesian   -0.29
    280 z          2.214230      2.214109    -0.000121    Cartesian   -0.01
    281 x         11.071152     11.066284    -0.004868    Cartesian   -0.04
    281 y          2.214230      2.217737     0.003506    Cartesian    0.16
    281 z          2.214230      2.215479     0.001248    Cartesian    0.06
    282 x          6.642691      6.656053     0.013362    Cartesian    0.20
    282 y          6.642691      6.660601     0.017909    Cartesian    0.27
    282 z          6.642691      6.652234     0.009543    Cartesian    0.14
    283 x          8.856922      8.878233     0.021311    Cartesian    0.24
    283 y         -4.428461     -4.434224    -0.005763    Cartesian    0.13
    283 z          4.428461      4.442295     0.013834    Cartesian    0.31
    284 x          8.856922      8.892201     0.035279    Cartesian    0.40
    284 y          4.428461      4.450650     0.022189    Cartesian    0.50
    284 z         -4.428461     -4.427287     0.001174    Cartesian   -0.03
    285 x          6.642691      6.648399     0.005708    Cartesian    0.09
    285 y         -2.214230     -2.217220    -0.002990    Cartesian    0.14
    285 z         -6.642691     -6.645258    -0.002567    Cartesian    0.04
    286 x          6.642691      6.642680    -0.000011    Cartesian   -0.00
    286 y         -6.642691     -6.636643     0.006048    Cartesian   -0.09
    286 z         -2.214230     -2.216142    -0.001911    Cartesian    0.09
    287 x         11.071152     11.055607    -0.015545    Cartesian   -0.14
    287 y          2.214230      2.217607     0.003376    Cartesian    0.15
    287 z         -2.214230     -2.214272    -0.000042    Cartesian    0.00
    288 x         11.071152     11.065657    -0.005495    Cartesian   -0.05
    288 y         -2.214230     -2.207617     0.006614    Cartesian   -0.30
    288 z          2.214230      2.214322     0.000091    Cartesian    0.00
    289 x          2.214230      2.214230     0.000000    Cartesian    0.00
    289 y          6.642691      6.634669    -0.008022    Cartesian   -0.12
    289 z         -6.642691     -6.631687     0.011004    Cartesian   -0.17
    290 x          2.214230      2.214230     0.000000    Cartesian    0.00
    290 y         -6.642691     -6.623763     0.018929    Cartesian   -0.28
    290 z          6.642691      6.629612    -0.013079    Cartesian   -0.20
    291 x          4.428461      4.440978     0.012517    Cartesian    0.28
    291 y          8.856922      8.901499     0.044577    Cartesian    0.50
    291 z         -4.428461     -4.437046    -0.008585    Cartesian    0.19
    292 x          4.428461      4.440639     0.012178    Cartesian    0.27
    292 y         -4.428461     -4.429019    -0.000558    Cartesian    0.01
    292 z          8.856922      8.885576     0.028654    Cartesian    0.32
    293 x         11.071152     11.071163     0.000011    Cartesian    0.00
    293 y         -2.214230     -2.211696     0.002534    Cartesian   -0.11
    293 z         -2.214230     -2.210972     0.003258    Cartesian   -0.15
    294 x          2.214230      2.214230     0.000000    Cartesian    0.00
    294 y          2.214230      2.213582    -0.000648    Cartesian   -0.03
    294 z         11.071152     11.092318     0.021165    Cartesian    0.19
    295 x          2.214230      2.214230     0.000000    Cartesian    0.00
    295 y         11.071152     11.076883     0.005730    Cartesian    0.05
    295 z          2.214230      2.228081     0.013850    Cartesian    0.63
    296 x          4.428461      4.430930     0.002469    Cartesian    0.06
    296 y          0.000000      0.001352     0.001352    Cartesian    0.00
    296 z         -8.856922     -8.887358    -0.030436    Cartesian    0.34
    297 x          4.428461      4.430159     0.001698    Cartesian    0.04
    297 y         -8.856922     -8.888664    -0.031742    Cartesian    0.36
    297 z          0.000000      0.001335     0.001335    Cartesian    0.00
    298 x          8.856922      8.873831     0.016909    Cartesian    0.19
    298 y          0.000000     -0.000843    -0.000843    Cartesian    0.00
    298 z          8.856922      8.876266     0.019344    Cartesian    0.22
    299 x          8.856922      8.880007     0.023086    Cartesian    0.26
    299 y          8.856922      8.883026     0.026104    Cartesian    0.29
    299 z          0.000000      0.004711     0.004711    Cartesian    0.00
    300 x          8.856922      8.875464     0.018542    Cartesian    0.21
    300 y         -4.428461     -4.445144    -0.016683    Cartesian    0.38
    300 z         -4.428461     -4.436894    -0.008433    Cartesian    0.19
    301 x          2.214230      2.214230     0.000000    Cartesian    0.00
    301 y         11.071152     11.065432    -0.005720    Cartesian   -0.05
    301 z         -2.214230     -2.229892    -0.015661    Cartesian    0.71
    302 x          2.214230      2.214230     0.000000    Cartesian    0.00
    302 y         -2.214230     -2.222103    -0.007873    Cartesian    0.36
    302 z         11.071152     11.063434    -0.007718    Cartesian   -0.07
    303 x          6.642691      6.649134     0.006443    Cartesian    0.10
    303 y          6.642691      6.653285     0.010594    Cartesian    0.16
    303 z         -6.642691     -6.647410    -0.004718    Cartesian    0.07
    304 x          6.642691      6.644327     0.001636    Cartesian    0.02
    304 y         -6.642691     -6.642547     0.000144    Cartesian   -0.00
    304 z          6.642691      6.640896    -0.001795    Cartesian   -0.03
    305 x         11.071152     11.076396     0.005243    Cartesian    0.05
    305 y          2.214230      2.215790     0.001560    Cartesian    0.07
    305 z          6.642691      6.641650    -0.001042    Cartesian   -0.02
    306 x         11.071152     11.078087     0.006935    Cartesian    0.06
    306 y          6.642691      6.652060     0.009369    Cartesian    0.14
    306 z          2.214230      2.214727     0.000497    Cartesian    0.02
    307 x          4.428461      4.429474     0.001013    Cartesian    0.02
    307 y          4.428461      4.432850     0.004389    Cartesian    0.10
    307 z         -8.856922     -8.884803    -0.027881    Cartesian    0.31
    308 x          4.428461      4.431327     0.002866    Cartesian    0.06
    308 y         -8.856922     -8.870101    -0.013180    Cartesian    0.15
    308 z          4.428461      4.432050     0.003590    Cartesian    0.08
    309 x          8.856922      8.876619     0.019698    Cartesian    0.22
    309 y          4.428461      4.438003     0.009543    Cartesian    0.22
    309 z          8.856922      8.882645     0.025723    Cartesian    0.29
    310 x          8.856922      8.884141     0.027220    Cartesian    0.31
    310 y          8.856922      8.876040     0.019118    Cartesian    0.22
    310 z          4.428461      4.439075     0.010614    Cartesian    0.24
    311 x          2.214230      2.214230     0.000000    Cartesian    0.00
    311 y         -6.642691     -6.643578    -0.000886    Cartesian    0.01
    311 z         -6.642691     -6.641735     0.000956    Cartesian   -0.01
    312 x          6.642691      6.646671     0.003979    Cartesian    0.06
    312 y          2.214230      2.218482     0.004251    Cartesian    0.19
    312 z         11.071152     11.077625     0.006473    Cartesian    0.06
    313 x          6.642691      6.644580     0.001888    Cartesian    0.03
    313 y         11.071152     11.083800     0.012648    Cartesian    0.11
    313 z          2.214230      2.209707    -0.004523    Cartesian   -0.20
    314 x         11.071152     11.074801     0.003649    Cartesian    0.03
    314 y          6.642691      6.645396     0.002705    Cartesian    0.04
    314 z         -2.214230     -2.213961     0.000270    Cartesian   -0.01
    315 x         11.071152     11.072873     0.001721    Cartesian    0.02
    315 y         -2.214230     -2.212661     0.001569    Cartesian   -0.07
    315 z          6.642691      6.645112     0.002420    Cartesian    0.04
    316 x          4.428461      4.436679     0.008219    Cartesian    0.19
    316 y          8.856922      8.872871     0.015949    Cartesian    0.18
    316 z          8.856922      8.877688     0.020766    Cartesian    0.23
    317 x         13.285383     13.311613     0.026230    Cartesian    0.20
    317 y          0.000000     -0.000385    -0.000385    Cartesian    0.00
    317 z          0.000000      0.000921     0.000921    Cartesian    0.00
    318 x          2.214230      2.214230     0.000000    Cartesian    0.00
    318 y          6.642691      6.652107     0.009415    Cartesian    0.14
    318 z         11.071152     11.065122    -0.006031    Cartesian   -0.05
    319 x          2.214230      2.214230     0.000000    Cartesian    0.00
    319 y         11.071152     11.074002     0.002850    Cartesian    0.03
    319 z          6.642691      6.638227    -0.004465    Cartesian   -0.07
    320 x          6.642691      6.647068     0.004376    Cartesian    0.07
    320 y         11.071152     11.080300     0.009148    Cartesian    0.08
    320 z         -2.214230     -2.215522    -0.001292    Cartesian    0.06
    321 x          6.642691      6.644171     0.001480    Cartesian    0.02
    321 y         -2.214230     -2.216934    -0.002703    Cartesian    0.12
    321 z         11.071152     11.072977     0.001825    Cartesian    0.02
    322 x          4.428461      4.437840     0.009380    Cartesian    0.21
    322 y         -4.428461     -4.443760    -0.015300    Cartesian    0.35
    322 z         -8.856922     -8.881032    -0.024111    Cartesian    0.27
    323 x          4.428461      4.433693     0.005232    Cartesian    0.12
    323 y         -8.856922     -8.873833    -0.016911    Cartesian    0.19
    323 z         -4.428461     -4.439472    -0.011012    Cartesian    0.25
    324 x          8.856922      8.878748     0.021826    Cartesian    0.25
    324 y          8.856922      8.880021     0.023099    Cartesian    0.26
    324 z         -4.428461     -4.440512    -0.012052    Cartesian    0.27
    325 x          8.856922      8.872546     0.015624    Cartesian    0.18
    325 y         -4.428461     -4.437333    -0.008872    Cartesian    0.20
    325 z          8.856922      8.877274     0.020352    Cartesian    0.23
    326 x         13.285383     13.305437     0.020055    Cartesian    0.15
    326 y          0.000000     -0.000337    -0.000337    Cartesian    0.00
    326 z          4.428461      4.436538     0.008077    Cartesian    0.18
    327 x         13.285383     13.318438     0.033055    Cartesian    0.25
    327 y          4.428461      4.433392     0.004931    Cartesian    0.11
    327 z          0.000000     -0.003612    -0.003612    Cartesian    0.00
    328 x          6.642691      6.644375     0.001684    Cartesian    0.03
    328 y         -6.642691     -6.647358    -0.004667    Cartesian    0.07
    328 z         -6.642691     -6.644203    -0.001512    Cartesian    0.02
    329 x         11.071152     11.073400     0.002247    Cartesian    0.02
    329 y          2.214230      2.216056     0.001825    Cartesian    0.08
    329 z         -6.642691     -6.640635     0.002056    Cartesian   -0.03
    330 x         11.071152     11.071054    -0.000098    Cartesian   -0.00
    330 y         -6.642691     -6.642612     0.000080    Cartesian   -0.00
    330 z          2.214230      2.216967     0.002737    Cartesian    0.12
    331 x         11.071152     11.077968     0.006816    Cartesian    0.06
    331 y          6.642691      6.646106     0.003414    Cartesian    0.05
    331 z          6.642691      6.647019     0.004328    Cartesian    0.07
--------------------------------------------------------------------------------


  Time to end of optimisation  =       52.4153 seconds


  Peak dynamic memory used =     101.61 MB 


  Timing analysis for GULP :

--------------------------------------------------------------------------------
  Task / Subroutine                                          Time (Seconds)
--------------------------------------------------------------------------------
  Calculation of reciprocal space energy and derivatives          0.0004
  Calculation of reciprocal space energy using symmetry           0.0007
  Calculation of real space energy and derivatives                0.0020
  Calculation of real space energy using symmetry                 0.0067
  Calculation for region 1 energy and derivatives (2-b)          29.3067
  Calculation for region 2a energy                               20.5430
  Calculation for region 2b energy                                0.0096
  Calculation and manipulation of Hessian matrix                  0.1174
  Calculation of matrix inversion                                 2.2074
  Symmetry generation of equivalent positions                     0.0027
--------------------------------------------------------------------------------
  Total CPU time                                                 52.4154
--------------------------------------------------------------------------------


  Dump file written as Na3OCl.grs


  Job Finished at 16:31.55  5th July       2021                               

