********************************************************************************
*                       GENERAL UTILITY LATTICE PROGRAM                        *
*                                 Julian Gale                                  *
*                       Curtin Institute for Computation                       *
*                    School of Molecular and Life Sciences                     *
*                    Curtin University, Western Australia                      *
********************************************************************************
* Version = 5.2.0 * Last modified =  10th September 2020                       *
********************************************************************************
*  optimise     - perform optimisation run                                     *
*  conp         - constant pressure calculation                                *
*  property     - calculate properties for final geometry                      *
*  defect       - perform defect calculation after bulk run                    *
*  compare      - compare initial and final structures                         *
********************************************************************************

  Job Started  at 16:31.45  5th July       2021                               

  Number of CPUs =     1


  Total number of configurations input =      1

********************************************************************************
*  Input for Configuration =   1                                               *
********************************************************************************

  Formula = ClONa3                                                      

  Number of irreducible atoms/shells =       5


  Total number atoms/shells =       7

  Dimensionality = 3               :  Bulk   


  Symmetry :

  Crystal family                   :  Cubic       
  Crystal class  (Groth - 1921)    :  Cubic Hexakisoctahedral              

  Space group (centrosymmetric)    :  P M 3 M         

  Patterson group                  :  P m -3 m 

  Cartesian lattice vectors (Angstroms) :

        4.504000    0.000000    0.000000
        0.000000    4.504000    0.000000
        0.000000    0.000000    4.504000

  Cell parameters (Angstroms/Degrees):

  a =       4.5040    alpha =  90.0000
  b =       4.5040    beta  =  90.0000
  c =       4.5040    gamma =  90.0000

  Initial cell volume =          91.368216 Angs**3

  Temperature of configuration =   0.00     K 

  Pressure of configuration =         0.000 GPa 

  Fractional coordinates of asymmetric unit :

--------------------------------------------------------------------------------
   No.  Atomic       x           y          z         Charge      Occupancy
        Label      (Frac)      (Frac)     (Frac)        (e)         (Frac)  
--------------------------------------------------------------------------------
      1 Cl    c    0.000000    0.000000    0.000000     0.61500    1.000000    
      2 O     c    0.500000    0.500000    0.500000     0.48900    1.000000    
      3 Na    c    0.500000    0.500000    0.000000     0.67000    1.000000    
      4 Cl    s    0.000000    0.000000    0.000000    -1.28500    1.000000    
      5 O     s    0.500000    0.500000    0.500000    -1.82900    1.000000    
--------------------------------------------------------------------------------


  Constraints : 

--------------------------------------------------------------------------------
  Constraint no.      Unconstrained     Constrained    Coefficient    Offset
                         Variable         Variable
--------------------------------------------------------------------------------
           1              Strain 1        Strain 2       1.00000      0.0000
           2              Strain 1        Strain 3       1.00000      0.0000
--------------------------------------------------------------------------------


********************************************************************************
*  General input information                                                   *
********************************************************************************

  Species output for all configurations : 

--------------------------------------------------------------------------------
  Species    Type    Atomic    Atomic    Charge       Radii (Angs)     Library
                     Number     Mass       (e)     Cova   Ionic  VDW   Symbol
--------------------------------------------------------------------------------
    Na       Core       11      22.99   0.670000   0.970  0.000  2.300          
    O        Core        8      16.00   0.489000   0.730  0.000  1.360          
    O        Shell       8       0.00  -1.829000   0.730  0.000  1.360          
    Cl       Core       17      35.45   0.615000   0.990  0.000  1.650          
    Cl       Shell      17       0.00  -1.285000   0.990  0.000  1.650          
--------------------------------------------------------------------------------


  Lattice summation method               =    Ewald          (3-D)
                                         =    Parry          (2-D)
                                         =    Saunders et al (1-D)
  Accuracy factor for lattice sums       =   12.000


  Analytic derivatives to be used

  Time limit = Infinity

  Maximum range for interatomic potentials =    100000.000000 Angstroms

  General interatomic potentials :

--------------------------------------------------------------------------------
Atom  Types   Potential      Parameter       Value         Units   Cutoffs(Ang)
  1     2                                                            Min /  Max 
--------------------------------------------------------------------------------
O    c O    s Spring (c-s)  Spring k 2       34.450000    eV*Ang^-2 0.000  0.800
                            Spring k 4       0.0000000    eV*Ang^-4 
--------------------------------------------------------------------------------
Cl   c Cl   s Spring (c-s)  Spring k 2       28.250000    eV*Ang^-2 0.000  0.800
                            Spring k 4       0.0000000    eV*Ang^-4 
--------------------------------------------------------------------------------
Na   c Na   c Buckingham    Buckingham A     996.28210    eV        0.000 12.000
                            Buckingham rho  0.28830000    Ang       
                            Buckingham C     0.0000000    eV*Ang^6  
--------------------------------------------------------------------------------
Na   c O    s Buckingham    Buckingham A     12439.222    eV        0.000 12.000
                            Buckingham rho  0.20150000    Ang       
                            Buckingham C     0.0000000    eV*Ang^6  
--------------------------------------------------------------------------------
Na   c Cl   s Buckingham    Buckingham A     20907.738    eV        0.000 12.000
                            Buckingham rho  0.21660000    Ang       
                            Buckingham C     0.0000000    eV*Ang^6  
--------------------------------------------------------------------------------
O    s O    s Buckingham    Buckingham A     35546.853    eV        0.000 12.000
                            Buckingham rho  0.12056000    Ang       
                            Buckingham C     13.190000    eV*Ang^6  
--------------------------------------------------------------------------------
O    s Cl   s Buckingham    Buckingham A     47777.071    eV        0.000 12.000
                            Buckingham rho  0.24370000    Ang       
                            Buckingham C     62.200000    eV*Ang^6  
--------------------------------------------------------------------------------
Cl   s Cl   s Buckingham    Buckingham A     35155.254    eV        0.000 12.000
                            Buckingham rho  0.21360000    Ang       
                            Buckingham C     14.530000    eV*Ang^6  
--------------------------------------------------------------------------------

********************************************************************************
*  Output for configuration   1                                                *
********************************************************************************


  Components of energy : 

--------------------------------------------------------------------------------
  Interatomic potentials     =           1.21745275 eV    
  Monopole - monopole (real) =          -4.50527050 eV    
  Monopole - monopole (recip)=         -13.25862634 eV    
  Monopole - monopole (total)=         -17.76389683 eV    
--------------------------------------------------------------------------------
  Total lattice energy       =         -16.54644409 eV    
--------------------------------------------------------------------------------
  Total lattice energy       =           -1596.4789 kJ/(mole unit cells)
--------------------------------------------------------------------------------


  Number of variables =        1

  Maximum number of calculations  =          1000
  Maximum Hessian update interval =            10
  Maximum step size               =   1.000000000
  Maximum parameter tolerance     =   0.000010000
  Maximum function  tolerance     =   0.000010000
  Maximum gradient  tolerance     =   0.001000000
  Maximum gradient  component     =   0.010000000

  Symmetry constrained optimisation

  Symmetry used for second derivatives

  Cell parameters to be optimised using strains

  Newton-Raphson optimiser to be used

  BFGS hessian update to be used

  Lower half triangular hessian to be used

  Start of bulk optimisation :

  Cycle:      0 Energy:       -16.546444  Gnorm:      2.744113  CPU:    0.008
  ** Hessian calculated **
  Cycle:      1 Energy:       -16.570356  Gnorm:      0.030142  CPU:    0.011
  Cycle:      2 Energy:       -16.570358  Gnorm:      0.003103  CPU:    0.012


  **** Optimisation achieved ****


  Final energy =     -16.57035847 eV
  Final Gnorm  =       0.00000012

  Components of energy : 

--------------------------------------------------------------------------------
  Interatomic potentials     =           1.49654868 eV    
  Monopole - monopole (real) =          -4.58211982 eV    
  Monopole - monopole (recip)=         -13.48478733 eV    
  Monopole - monopole (total)=         -18.06690714 eV    
--------------------------------------------------------------------------------
  Total lattice energy       =         -16.57035847 eV    
--------------------------------------------------------------------------------
  Total lattice energy       =           -1598.7863 kJ/(mole unit cells)
--------------------------------------------------------------------------------

  Final asymmetric unit coordinates :

--------------------------------------------------------------------------------
   No.  Atomic        x           y           z         Radius
        Label       (Frac)      (Frac)      (Frac)       (Angs) 
--------------------------------------------------------------------------------
     1  Cl    c     0.000000    0.000000    0.000000    0.000000
     2  O     c     0.500000    0.500000    0.500000    0.000000
     3  Na    c     0.500000    0.500000    0.000000    0.000000
     4  Cl    s     0.000000    0.000000    0.000000    0.000000
     5  O     s     0.500000    0.500000    0.500000    0.000000
--------------------------------------------------------------------------------

  Final Cartesian lattice vectors (Angstroms) :

        4.428461    0.000000    0.000000
        0.000000    4.428461    0.000000
        0.000000    0.000000    4.428461


  Final cell parameters and derivatives :

--------------------------------------------------------------------------------
       a            4.428461 Angstrom     dE/de1(xx)     0.000000 eV/strain
       b            4.428461 Angstrom     dE/de2(yy)     0.000000 eV/strain
       c            4.428461 Angstrom     dE/de3(zz)     0.000000 eV/strain
       alpha       90.000000 Degrees      dE/de4(yz)     0.000000 eV/strain
       beta        90.000000 Degrees      dE/de5(xz)     0.000000 eV/strain
       gamma       90.000000 Degrees      dE/de6(xy)     0.000000 eV/strain
--------------------------------------------------------------------------------

  Primitive cell volume =            86.847723 Angs**3

  Density of cell =      2.302482 g/cm**3

  Non-primitive cell volume =            86.847723 Angs**3


  Final internal derivatives :

--------------------------------------------------------------------------------
   No.  Atomic          a             b             c           Radius
        Label          (eV)          (eV)          (eV)        (eV/Angs)
--------------------------------------------------------------------------------
      1 Cl    c       0.000000      0.000000      0.000000      0.000000
      2 O     c       0.000000      0.000000      0.000000      0.000000
      3 Na    c       0.000000      0.000000      0.000000      0.000000
      4 Cl    s       0.000000      0.000000      0.000000      0.000000
      5 O     s       0.000000      0.000000      0.000000      0.000000
--------------------------------------------------------------------------------
  Maximum abs         0.000000      0.000000      0.000000      0.000000
--------------------------------------------------------------------------------

  Comparison of initial and final structures : 

--------------------------------------------------------------------------------
  Parameter   Initial value   Final value   Difference    Units      Percent
--------------------------------------------------------------------------------
    Volume        91.368216     86.847723    -4.520493    Angs**3     -4.95
    a              4.504000      4.428461    -0.075539    Angstroms   -1.68
    b              4.504000      4.428461    -0.075539    Angstroms   -1.68
    c              4.504000      4.428461    -0.075539    Angstroms   -1.68
    alpha         90.000000     90.000000     0.000000    Degrees      0.00
    beta          90.000000     90.000000     0.000000    Degrees      0.00
    gamma         90.000000     90.000000     0.000000    Degrees      0.00
      1 x          0.000000      0.000000     0.000000    Fractional   0.00
      1 y          0.000000      0.000000     0.000000    Fractional   0.00
      1 z          0.000000      0.000000     0.000000    Fractional   0.00
      2 x          0.500000      0.500000     0.000000    Fractional   0.00
      2 y          0.500000      0.500000     0.000000    Fractional   0.00
      2 z          0.500000      0.500000     0.000000    Fractional   0.00
      3 x          0.500000      0.500000     0.000000    Fractional   0.00
      3 y          0.500000      0.500000     0.000000    Fractional   0.00
      3 z          0.000000      0.000000     0.000000    Fractional   0.00
      4 x          0.000000      0.000000     0.000000    Fractional   0.00
      4 y          0.000000      0.000000     0.000000    Fractional   0.00
      4 z          0.000000      0.000000     0.000000    Fractional   0.00
      5 x          0.500000      0.500000     0.000000    Fractional   0.00
      5 y          0.500000      0.500000     0.000000    Fractional   0.00
      5 z          0.500000      0.500000     0.000000    Fractional   0.00
--------------------------------------------------------------------------------


  Born effective charge tensors : 

-------------------------------------------------------------------------------
  Atom             x           y             z
-------------------------------------------------------------------------------
    1 Cl    x      -0.6995     -0.0000     -0.0000
            y      -0.0000     -0.6995     -0.0000
            z      -0.0000     -0.0000     -0.6995
-------------------------------------------------------------------------------
    2 O     x      -1.0805      0.0000      0.0000
            y       0.0000     -1.0805      0.0000
            z       0.0000      0.0000     -1.0805
-------------------------------------------------------------------------------
    3 Na    x       0.6486      0.0000     -0.0000
            y       0.0000      0.6486      0.0000
            z      -0.0000      0.0000      0.4827
-------------------------------------------------------------------------------




  Elastic Constant Matrix: (Units=GPa)

-------------------------------------------------------------------------------
  Indices      1         2         3         4         5         6    
-------------------------------------------------------------------------------
       1     77.0757   16.0262   16.0262   -0.0000   -0.0000   -0.0000
       2     16.0262   77.0757   16.0262   -0.0000   -0.0000    0.0000
       3     16.0262   16.0262   77.0757    0.0000    0.0000    0.0000
       4     -0.0000   -0.0000    0.0000   16.0262    0.0000   -0.0000
       5     -0.0000   -0.0000    0.0000    0.0000   16.0262   -0.0000
       6     -0.0000    0.0000    0.0000   -0.0000   -0.0000   16.0262
-------------------------------------------------------------------------------


  Elastic Compliance Matrix: (Units=1/GPa)

-------------------------------------------------------------------------------
  Indices      1         2         3         4         5         6    
-------------------------------------------------------------------------------
       1    0.013975 -0.002406 -0.002406  0.000000  0.000000  0.000000
       2   -0.002406  0.013975 -0.002406  0.000000  0.000000 -0.000000
       3   -0.002406 -0.002406  0.013975 -0.000000 -0.000000 -0.000000
       4    0.000000  0.000000 -0.000000  0.062398 -0.000000  0.000000
       5    0.000000  0.000000 -0.000000 -0.000000  0.062398  0.000000
       6    0.000000 -0.000000 -0.000000  0.000000  0.000000  0.062398
-------------------------------------------------------------------------------

  Mechanical properties :

-------------------------------------------------------------------------------
  Convention :                    Reuss         Voigt         Hill
-------------------------------------------------------------------------------
  Bulk  Modulus (GPa)     =      36.37603      36.37603      36.37603
  Shear Modulus (GPa)     =      19.78520      21.82562      20.80541
-------------------------------------------------------------------------------
  Velocity S-wave (km/s)  =       2.93138       3.07883       3.00601
  Velocity P-wave (km/s)  =       5.22072       5.33268       5.27700
-------------------------------------------------------------------------------
  Compressibility (1/GPa) =    0.02749063
-------------------------------------------------------------------------------
  Stress axis :                     x             y             z
-------------------------------------------------------------------------------
  Youngs Moduli (GPa)     =      71.55833      71.55833      71.55833
-------------------------------------------------------------------------------
  Poissons Ratio (x)      =                     0.17214       0.17214
  Poissons Ratio (y)      =       0.17214                     0.17214
  Poissons Ratio (z)      =       0.17214       0.17214
-------------------------------------------------------------------------------


  Piezoelectric Strain Matrix: (Units=C/m**2)

-------------------------------------------------------------------------------
  Indices      1         2         3         4         5         6    
-------------------------------------------------------------------------------
       x    -0.00000  -0.00000  -0.00000  -0.00000  -0.00000   0.00000
       y     0.00000   0.00000   0.00000  -0.00000  -0.00000  -0.00000
       z     0.00000   0.00000  -0.00000   0.00000  -0.00000  -0.00000
-------------------------------------------------------------------------------


  Piezoelectric Stress Matrix: (Units=10**-11 C/N)

-------------------------------------------------------------------------------
  Indices      1         2         3         4         5         6    
-------------------------------------------------------------------------------
       x    -0.00000  -0.00000  -0.00000  -0.00000  -0.00000   0.00000
       y     0.00000   0.00000   0.00000  -0.00000  -0.00000  -0.00000
       z     0.00000   0.00000  -0.00000   0.00000  -0.00000  -0.00000
-------------------------------------------------------------------------------


  Static dielectric constant tensor : 

-------------------------------------------------------------------------------
              x         y         z
-------------------------------------------------------------------------------
       x     5.77918   0.00000   0.00000
       y     0.00000   5.77918   0.00000
       z     0.00000   0.00000   5.77918
--------------------------------------------------------------------------------

  High frequency dielectric constant tensor : 

-------------------------------------------------------------------------------
              x         y         z
-------------------------------------------------------------------------------
       x     1.30980  -0.00000  -0.00000
       y    -0.00000   1.30980  -0.00000
       z    -0.00000  -0.00000   1.30980
-------------------------------------------------------------------------------

  Static refractive indices : 

-------------------------------------------------------------------------------
    1 =    2.40399      2 =    2.40399      3 =    2.40399
-------------------------------------------------------------------------------

  High frequency refractive indices : 

-------------------------------------------------------------------------------
    1 =    1.14447      2 =    1.14447      3 =    1.14447
-------------------------------------------------------------------------------


  Time to end of optimisation =       0.0176 seconds

********************************************************************************
*  Defect calculation for configuration   1 :                                  *
********************************************************************************

  Total number of defects =      3

  Total charge on defect  =  -0.67

  Defect centre is at   0.5000   0.2500   0.2500  Frac

  Region 1 radius =  12.0000      Number of ions =    575

  Number of symmetry inequivalent region 1 ions  =    331

  Region 2 radius =  16.0000      Number of ions =    818

  Number of symmetry inequivalent region 2a ions =    447

  Region 2a mode = 4 : screened electrostatics due to region 1 
                       neglect correction to region 1 forces from 2a
                       region 2a displacements based on defects only

  Region 2a ions will only interact with defects in region 1

  Vacancies:

--------------------------------------------------------------------------------
    Specification type     Symbol/Number         x          y          z
--------------------------------------------------------------------------------
    Fractional                               0.500000   0.500000   0.000000
    Fractional                               0.500000   0.000000   0.500000
--------------------------------------------------------------------------------

  Interstitials:

--------------------------------------------------------------------------------
    Specification type     Symbol/Number         x          y          z
--------------------------------------------------------------------------------
    Atom/Fractional         Na               0.500000   0.170000   0.330000
--------------------------------------------------------------------------------


  Symmetry reduced region 1 (Relative to defect centre) :

--------------------------------------------------------------------------------
   No.   Atomic       x            y             z       Radius  Multiplicity   
         Label      (Angs)       (Angs)        (Angs)    (Angs)     
--------------------------------------------------------------------------------
     1  Na    c      0.0000      -0.3543       0.3543    0.0000     1    Defect
     2  O     c      0.0000       1.1071 *     1.1071 *  0.0000     1          
     3  Cl    c      2.2142 *    -1.1071 *    -1.1071 *  0.0000     2          
     4  Na    c      2.2142 *     1.1071 *     1.1071 *  0.0000     2          
     5  O     c      0.0000       1.1071 *    -3.3213 *  0.0000     1          
     6  O     c      0.0000      -3.3213 *     1.1071 *  0.0000     1          
     7  Na    c      0.0000       1.1071 *     3.3213 *  0.0000     1          
     8  Na    c      0.0000      -3.3213 *    -1.1071 *  0.0000     1          
     9  Na    c      0.0000      -1.1071 *    -3.3213 *  0.0000     1          
    10  Na    c      0.0000       3.3213 *     1.1071 *  0.0000     1          
    11  Cl    c      2.2142 *    -1.1071 *     3.3213 *  0.0000     2          
    12  Cl    c      2.2142 *     3.3213 *    -1.1071 *  0.0000     2          
    13  Na    c      2.2142 *     1.1071 *    -3.3213 *  0.0000     2          
    14  Na    c      2.2142 *    -3.3213 *     1.1071 *  0.0000     2          
    15  O     c      4.4285 *     1.1071 *     1.1071 *  0.0000     2          
    16  Na    c      4.4285 *     1.1071 *    -1.1071 *  0.0000     2          
    17  Na    c      4.4285 *    -1.1071 *     1.1071 *  0.0000     2          
    18  O     c      0.0000      -3.3213 *    -3.3213 *  0.0000     1          
    19  Na    c      0.0000      -3.3213 *     3.3213 *  0.0000     1          
    20  Na    c      0.0000       3.3213 *    -3.3213 *  0.0000     1          
    21  Cl    c      2.2142 *     3.3213 *     3.3213 *  0.0000     2          
    22  Na    c      2.2142 *    -3.3213 *    -3.3213 *  0.0000     2          
    23  O     c      4.4285 *     1.1071 *    -3.3213 *  0.0000     2          
    24  Na    c      4.4285 *     1.1071 *     3.3213 *  0.0000     2          
    25  Na    c      4.4285 *    -1.1071 *    -3.3213 *  0.0000     2          
    26  O     c      4.4285 *    -3.3213 *     1.1071 *  0.0000     2          
    27  Na    c      4.4285 *    -3.3213 *    -1.1071 *  0.0000     2          
    28  Na    c      4.4285 *     3.3213 *     1.1071 *  0.0000     2          
    29  O     c      0.0000       1.1071 *     5.5356 *  0.0000     1          
    30  O     c      0.0000       5.5356 *     1.1071 *  0.0000     1          
    31  Na    c      0.0000       1.1071 *    -5.5356 *  0.0000     1          
    32  Na    c      0.0000       5.5356 *    -1.1071 *  0.0000     1          
    33  Na    c      0.0000      -1.1071 *     5.5356 *  0.0000     1          
    34  Na    c      0.0000      -5.5356 *     1.1071 *  0.0000     1          
    35  Cl    c      2.2142 *    -1.1071 *    -5.5356 *  0.0000     2          
    36  Cl    c      2.2142 *    -5.5356 *    -1.1071 *  0.0000     2          
    37  Na    c      2.2142 *     1.1071 *     5.5356 *  0.0000     2          
    38  Na    c      2.2142 *     5.5356 *     1.1071 *  0.0000     2          
    39  O     c      0.0000       5.5356 *    -3.3213 *  0.0000     1          
    40  O     c      0.0000      -3.3213 *     5.5356 *  0.0000     1          
    41  O     c      4.4285 *    -3.3213 *    -3.3213 *  0.0000     2          
    42  Na    c      0.0000       5.5356 *     3.3213 *  0.0000     1          
    43  Na    c      0.0000      -3.3213 *    -5.5356 *  0.0000     1          
    44  Na    c      4.4285 *    -3.3213 *     3.3213 *  0.0000     2          
    45  Na    c      0.0000       3.3213 *     5.5356 *  0.0000     1          
    46  Na    c      0.0000      -5.5356 *    -3.3213 *  0.0000     1          
    47  Na    c      4.4285 *     3.3213 *    -3.3213 *  0.0000     2          
    48  Cl    c      2.2142 *     3.3213 *    -5.5356 *  0.0000     2          
    49  Cl    c      6.6427 *    -1.1071 *    -1.1071 *  0.0000     2          
    50  Na    c      2.2142 *    -3.3213 *     5.5356 *  0.0000     2          
    51  Na    c      6.6427 *     1.1071 *     1.1071 *  0.0000     2          
    52  Cl    c      2.2142 *    -5.5356 *     3.3213 *  0.0000     2          
    53  Na    c      2.2142 *     5.5356 *    -3.3213 *  0.0000     2          
    54  O     c      4.4285 *     1.1071 *     5.5356 *  0.0000     2          
    55  O     c      4.4285 *     5.5356 *     1.1071 *  0.0000     2          
    56  Na    c      4.4285 *     1.1071 *    -5.5356 *  0.0000     2          
    57  Na    c      4.4285 *     5.5356 *    -1.1071 *  0.0000     2          
    58  Na    c      4.4285 *    -1.1071 *     5.5356 *  0.0000     2          
    59  Na    c      4.4285 *    -5.5356 *     1.1071 *  0.0000     2          
    60  Cl    c      6.6427 *     3.3213 *    -1.1071 *  0.0000     2          
    61  Na    c      6.6427 *    -3.3213 *     1.1071 *  0.0000     2          
    62  Cl    c      6.6427 *    -1.1071 *     3.3213 *  0.0000     2          
    63  Na    c      6.6427 *     1.1071 *    -3.3213 *  0.0000     2          
    64  O     c      0.0000       1.1071 *    -7.7498 *  0.0000     1          
    65  O     c      0.0000      -7.7498 *     1.1071 *  0.0000     1          
    66  Na    c      0.0000       1.1071 *     7.7498 *  0.0000     1          
    67  Na    c      0.0000      -7.7498 *    -1.1071 *  0.0000     1          
    68  Na    c      0.0000      -1.1071 *    -7.7498 *  0.0000     1          
    69  Na    c      0.0000       7.7498 *     1.1071 *  0.0000     1          
    70  O     c      4.4285 *    -3.3213 *     5.5356 *  0.0000     2          
    71  Na    c      4.4285 *    -3.3213 *    -5.5356 *  0.0000     2          
    72  Na    c      4.4285 *     3.3213 *     5.5356 *  0.0000     2          
    73  O     c      0.0000       5.5356 *     5.5356 *  0.0000     1          
    74  O     c      4.4285 *     5.5356 *    -3.3213 *  0.0000     2          
    75  Na    c      0.0000       5.5356 *    -5.5356 *  0.0000     1          
    76  Na    c      4.4285 *     5.5356 *     3.3213 *  0.0000     2          
    77  Na    c      0.0000      -5.5356 *     5.5356 *  0.0000     1          
    78  Na    c      4.4285 *    -5.5356 *    -3.3213 *  0.0000     2          
    79  Cl    c      2.2142 *    -1.1071 *     7.7498 *  0.0000     2          
    80  Cl    c      2.2142 *     7.7498 *    -1.1071 *  0.0000     2          
    81  Na    c      2.2142 *     1.1071 *    -7.7498 *  0.0000     2          
    82  Na    c      2.2142 *    -7.7498 *     1.1071 *  0.0000     2          
    83  Cl    c      6.6427 *     3.3213 *     3.3213 *  0.0000     2          
    84  Na    c      6.6427 *    -3.3213 *    -3.3213 *  0.0000     2          
    85  Cl    c      2.2142 *    -5.5356 *    -5.5356 *  0.0000     2          
    86  Na    c      2.2142 *     5.5356 *     5.5356 *  0.0000     2          
    87  O     c      0.0000      -3.3213 *    -7.7498 *  0.0000     1          
    88  O     c      0.0000      -7.7498 *    -3.3213 *  0.0000     1          
    89  Na    c      0.0000      -3.3213 *     7.7498 *  0.0000     1          
    90  Na    c      0.0000      -7.7498 *     3.3213 *  0.0000     1          
    91  Na    c      0.0000       3.3213 *    -7.7498 *  0.0000     1          
    92  Na    c      0.0000       7.7498 *    -3.3213 *  0.0000     1          
    93  Cl    c      2.2142 *     3.3213 *     7.7498 *  0.0000     2          
    94  Cl    c      2.2142 *     7.7498 *     3.3213 *  0.0000     2          
    95  Na    c      2.2142 *    -3.3213 *    -7.7498 *  0.0000     2          
    96  Na    c      2.2142 *    -7.7498 *    -3.3213 *  0.0000     2          
    97  Cl    c      6.6427 *    -5.5356 *    -1.1071 *  0.0000     2          
    98  Na    c      6.6427 *     5.5356 *     1.1071 *  0.0000     2          
    99  Cl    c      6.6427 *    -1.1071 *    -5.5356 *  0.0000     2          
   100  Na    c      6.6427 *     1.1071 *     5.5356 *  0.0000     2          
   101  O     c      4.4285 *     1.1071 *    -7.7498 *  0.0000     2          
   102  O     c      4.4285 *    -7.7498 *     1.1071 *  0.0000     2          
   103  O     c      8.8569 *     1.1071 *     1.1071 *  0.0000     2          
   104  Na    c      4.4285 *     1.1071 *     7.7498 *  0.0000     2          
   105  Na    c      4.4285 *    -7.7498 *    -1.1071 *  0.0000     2          
   106  Na    c      8.8569 *     1.1071 *    -1.1071 *  0.0000     2          
   107  Na    c      4.4285 *    -1.1071 *    -7.7498 *  0.0000     2          
   108  Na    c      4.4285 *     7.7498 *     1.1071 *  0.0000     2          
   109  Na    c      8.8569 *    -1.1071 *     1.1071 *  0.0000     2          
   110  O     c      4.4285 *     5.5356 *     5.5356 *  0.0000     2          
   111  Na    c      4.4285 *     5.5356 *    -5.5356 *  0.0000     2          
   112  Na    c      4.4285 *    -5.5356 *     5.5356 *  0.0000     2          
   113  Cl    c      6.6427 *    -5.5356 *     3.3213 *  0.0000     2          
   114  Na    c      6.6427 *     5.5356 *    -3.3213 *  0.0000     2          
   115  Cl    c      6.6427 *     3.3213 *    -5.5356 *  0.0000     2          
   116  Na    c      6.6427 *    -3.3213 *     5.5356 *  0.0000     2          
   117  O     c      4.4285 *    -3.3213 *    -7.7498 *  0.0000     2          
   118  O     c      4.4285 *    -7.7498 *    -3.3213 *  0.0000     2          
   119  O     c      8.8569 *     1.1071 *    -3.3213 *  0.0000     2          
   120  O     c      8.8569 *    -3.3213 *     1.1071 *  0.0000     2          
   121  Na    c      4.4285 *    -3.3213 *     7.7498 *  0.0000     2          
   122  Na    c      4.4285 *    -7.7498 *     3.3213 *  0.0000     2          
   123  Na    c      8.8569 *     1.1071 *     3.3213 *  0.0000     2          
   124  Na    c      8.8569 *    -3.3213 *    -1.1071 *  0.0000     2          
   125  Na    c      4.4285 *     3.3213 *    -7.7498 *  0.0000     2          
   126  Na    c      4.4285 *     7.7498 *    -3.3213 *  0.0000     2          
   127  Na    c      8.8569 *    -1.1071 *    -3.3213 *  0.0000     2          
   128  Na    c      8.8569 *     3.3213 *     1.1071 *  0.0000     2          
   129  O     c      0.0000       5.5356 *    -7.7498 *  0.0000     1          
   130  O     c      0.0000      -7.7498 *     5.5356 *  0.0000     1          
   131  Na    c      0.0000       5.5356 *     7.7498 *  0.0000     1          
   132  Na    c      0.0000      -7.7498 *    -5.5356 *  0.0000     1          
   133  Na    c      0.0000       7.7498 *     5.5356 *  0.0000     1          
   134  Na    c      0.0000      -5.5356 *    -7.7498 *  0.0000     1          
   135  Cl    c      2.2142 *     7.7498 *    -5.5356 *  0.0000     2          
   136  Cl    c      2.2142 *    -5.5356 *     7.7498 *  0.0000     2          
   137  Na    c      2.2142 *     5.5356 *    -7.7498 *  0.0000     2          
   138  Na    c      2.2142 *    -7.7498 *     5.5356 *  0.0000     2          
   139  O     c      8.8569 *    -3.3213 *    -3.3213 *  0.0000     2          
   140  Na    c      8.8569 *    -3.3213 *     3.3213 *  0.0000     2          
   141  Na    c      8.8569 *     3.3213 *    -3.3213 *  0.0000     2          
   142  O     c      0.0000       1.1071 *     9.9640 *  0.0000     1          
   143  O     c      0.0000       9.9640 *     1.1071 *  0.0000     1          
   144  Na    c      0.0000       1.1071 *    -9.9640 *  0.0000     1          
   145  Na    c      0.0000       9.9640 *    -1.1071 *  0.0000     1          
   146  Na    c      0.0000      -1.1071 *     9.9640 *  0.0000     1          
   147  Na    c      0.0000      -9.9640 *     1.1071 *  0.0000     1          
   148  Cl    c      2.2142 *    -1.1071 *    -9.9640 *  0.0000     2          
   149  Cl    c      2.2142 *    -9.9640 *    -1.1071 *  0.0000     2          
   150  Cl    c      6.6427 *    -1.1071 *     7.7498 *  0.0000     2          
   151  Cl    c      6.6427 *     7.7498 *    -1.1071 *  0.0000     2          
   152  Na    c      2.2142 *     1.1071 *     9.9640 *  0.0000     2          
   153  Na    c      2.2142 *     9.9640 *     1.1071 *  0.0000     2          
   154  Na    c      6.6427 *     1.1071 *    -7.7498 *  0.0000     2          
   155  Na    c      6.6427 *    -7.7498 *     1.1071 *  0.0000     2          
   156  Cl    c      6.6427 *    -5.5356 *    -5.5356 *  0.0000     2          
   157  Na    c      6.6427 *     5.5356 *     5.5356 *  0.0000     2          
   158  O     c      0.0000       9.9640 *    -3.3213 *  0.0000     1          
   159  O     c      0.0000      -3.3213 *     9.9640 *  0.0000     1          
   160  O     c      4.4285 *     5.5356 *    -7.7498 *  0.0000     2          
   161  O     c      4.4285 *    -7.7498 *     5.5356 *  0.0000     2          
   162  O     c      8.8569 *     1.1071 *     5.5356 *  0.0000     2          
   163  O     c      8.8569 *     5.5356 *     1.1071 *  0.0000     2          
   164  Na    c      0.0000       9.9640 *     3.3213 *  0.0000     1          
   165  Na    c      0.0000      -3.3213 *    -9.9640 *  0.0000     1          
   166  Na    c      4.4285 *     5.5356 *     7.7498 *  0.0000     2          
   167  Na    c      4.4285 *    -7.7498 *    -5.5356 *  0.0000     2          
   168  Na    c      8.8569 *     1.1071 *    -5.5356 *  0.0000     2          
   169  Na    c      8.8569 *     5.5356 *    -1.1071 *  0.0000     2          
   170  Na    c      0.0000       3.3213 *     9.9640 *  0.0000     1          
   171  Na    c      0.0000      -9.9640 *    -3.3213 *  0.0000     1          
   172  Na    c      4.4285 *     7.7498 *     5.5356 *  0.0000     2          
   173  Na    c      4.4285 *    -5.5356 *    -7.7498 *  0.0000     2          
   174  Na    c      8.8569 *    -1.1071 *     5.5356 *  0.0000     2          
   175  Na    c      8.8569 *    -5.5356 *     1.1071 *  0.0000     2          
   176  Cl    c      2.2142 *     3.3213 *    -9.9640 *  0.0000     2          
   177  Cl    c      2.2142 *    -9.9640 *     3.3213 *  0.0000     2          
   178  Cl    c      6.6427 *     3.3213 *     7.7498 *  0.0000     2          
   179  Cl    c      6.6427 *     7.7498 *     3.3213 *  0.0000     2          
   180  Na    c      2.2142 *     9.9640 *    -3.3213 *  0.0000     2          
   181  Na    c      2.2142 *    -3.3213 *     9.9640 *  0.0000     2          
   182  Na    c      6.6427 *    -3.3213 *    -7.7498 *  0.0000     2          
   183  Na    c      6.6427 *    -7.7498 *    -3.3213 *  0.0000     2          
   184  O     c      0.0000      -7.7498 *    -7.7498 *  0.0000     1          
   185  Na    c      0.0000      -7.7498 *     7.7498 *  0.0000     1          
   186  Na    c      0.0000       7.7498 *    -7.7498 *  0.0000     1          
   187  O     c      4.4285 *     1.1071 *     9.9640 *  0.0000     2          
   188  O     c      4.4285 *     9.9640 *     1.1071 *  0.0000     2          
   189  O     c      8.8569 *     5.5356 *    -3.3213 *  0.0000     2          
   190  O     c      8.8569 *    -3.3213 *     5.5356 *  0.0000     2          
   191  Na    c      4.4285 *     1.1071 *    -9.9640 *  0.0000     2          
   192  Na    c      4.4285 *     9.9640 *    -1.1071 *  0.0000     2          
   193  Na    c      8.8569 *     5.5356 *     3.3213 *  0.0000     2          
   194  Na    c      8.8569 *    -3.3213 *    -5.5356 *  0.0000     2          
   195  Na    c      4.4285 *    -1.1071 *     9.9640 *  0.0000     2          
   196  Na    c      4.4285 *    -9.9640 *     1.1071 *  0.0000     2          
   197  Na    c      8.8569 *     3.3213 *     5.5356 *  0.0000     2          
   198  Na    c      8.8569 *    -5.5356 *    -3.3213 *  0.0000     2          
   199  Cl    c      2.2142 *     7.7498 *     7.7498 *  0.0000     2          
   200  Na    c      2.2142 *    -7.7498 *    -7.7498 *  0.0000     2          
   201  Cl    c     11.0712 *    -1.1071 *    -1.1071 *  0.0000     2          
   202  Na    c     11.0712 *     1.1071 *     1.1071 *  0.0000     2          
   203  O     c      0.0000       5.5356 *     9.9640 *  0.0000     1          
   204  O     c      0.0000       9.9640 *     5.5356 *  0.0000     1          
   205  O     c      4.4285 *     9.9640 *    -3.3213 *  0.0000     2          
   206  O     c      4.4285 *    -3.3213 *     9.9640 *  0.0000     2          
   207  Na    c      0.0000       5.5356 *    -9.9640 *  0.0000     1          
   208  Na    c      0.0000       9.9640 *    -5.5356 *  0.0000     1          
   209  Na    c      4.4285 *     9.9640 *     3.3213 *  0.0000     2          
   210  Na    c      4.4285 *    -3.3213 *    -9.9640 *  0.0000     2          
   211  Na    c      0.0000      -5.5356 *     9.9640 *  0.0000     1          
   212  Na    c      0.0000      -9.9640 *     5.5356 *  0.0000     1          
   213  Na    c      4.4285 *     3.3213 *     9.9640 *  0.0000     2          
   214  Na    c      4.4285 *    -9.9640 *    -3.3213 *  0.0000     2          
   215  Cl    c      2.2142 *    -5.5356 *    -9.9640 *  0.0000     2          
   216  Cl    c      2.2142 *    -9.9640 *    -5.5356 *  0.0000     2          
   217  Cl    c      6.6427 *     7.7498 *    -5.5356 *  0.0000     2          
   218  Cl    c      6.6427 *    -5.5356 *     7.7498 *  0.0000     2          
   219  Na    c      2.2142 *     5.5356 *     9.9640 *  0.0000     2          
   220  Na    c      2.2142 *     9.9640 *     5.5356 *  0.0000     2          
   221  Na    c      6.6427 *     5.5356 *    -7.7498 *  0.0000     2          
   222  Na    c      6.6427 *    -7.7498 *     5.5356 *  0.0000     2          
   223  Cl    c     11.0712 *    -1.1071 *     3.3213 *  0.0000     2          
   224  Cl    c     11.0712 *     3.3213 *    -1.1071 *  0.0000     2          
   225  Na    c     11.0712 *     1.1071 *    -3.3213 *  0.0000     2          
   226  Na    c     11.0712 *    -3.3213 *     1.1071 *  0.0000     2          
   227  O     c      4.4285 *    -7.7498 *    -7.7498 *  0.0000     2          
   228  O     c      8.8569 *     1.1071 *    -7.7498 *  0.0000     2          
   229  O     c      8.8569 *    -7.7498 *     1.1071 *  0.0000     2          
   230  Na    c      4.4285 *    -7.7498 *     7.7498 *  0.0000     2          
   231  Na    c      8.8569 *     1.1071 *     7.7498 *  0.0000     2          
   232  Na    c      8.8569 *    -7.7498 *    -1.1071 *  0.0000     2          
   233  Na    c      4.4285 *     7.7498 *    -7.7498 *  0.0000     2          
   234  Na    c      8.8569 *    -1.1071 *    -7.7498 *  0.0000     2          
   235  Na    c      8.8569 *     7.7498 *     1.1071 *  0.0000     2          
   236  O     c      8.8569 *     5.5356 *     5.5356 *  0.0000     2          
   237  Na    c      8.8569 *     5.5356 *    -5.5356 *  0.0000     2          
   238  Na    c      8.8569 *    -5.5356 *     5.5356 *  0.0000     2          
   239  O     s      0.0000       1.1071 *     1.1071 *  0.0000     1          
   240  Cl    s      2.2142 *    -1.1071 *    -1.1071 *  0.0000     2          
   241  O     s      0.0000       1.1071 *    -3.3213 *  0.0000     1          
   242  O     s      0.0000      -3.3213 *     1.1071 *  0.0000     1          
   243  Cl    s      2.2142 *    -1.1071 *     3.3213 *  0.0000     2          
   244  Cl    s      2.2142 *     3.3213 *    -1.1071 *  0.0000     2          
   245  O     s      4.4285 *     1.1071 *     1.1071 *  0.0000     2          
   246  O     s      0.0000      -3.3213 *    -3.3213 *  0.0000     1          
   247  Cl    s      2.2142 *     3.3213 *     3.3213 *  0.0000     2          
   248  O     s      4.4285 *     1.1071 *    -3.3213 *  0.0000     2          
   249  O     s      4.4285 *    -3.3213 *     1.1071 *  0.0000     2          
   250  O     s      0.0000       1.1071 *     5.5356 *  0.0000     1          
   251  O     s      0.0000       5.5356 *     1.1071 *  0.0000     1          
   252  Cl    s      2.2142 *    -1.1071 *    -5.5356 *  0.0000     2          
   253  Cl    s      2.2142 *    -5.5356 *    -1.1071 *  0.0000     2          
   254  O     s      0.0000       5.5356 *    -3.3213 *  0.0000     1          
   255  O     s      0.0000      -3.3213 *     5.5356 *  0.0000     1          
   256  O     s      4.4285 *    -3.3213 *    -3.3213 *  0.0000     2          
   257  Cl    s      2.2142 *     3.3213 *    -5.5356 *  0.0000     2          
   258  Cl    s      6.6427 *    -1.1071 *    -1.1071 *  0.0000     2          
   259  Cl    s      2.2142 *    -5.5356 *     3.3213 *  0.0000     2          
   260  O     s      4.4285 *     1.1071 *     5.5356 *  0.0000     2          
   261  O     s      4.4285 *     5.5356 *     1.1071 *  0.0000     2          
   262  Cl    s      6.6427 *     3.3213 *    -1.1071 *  0.0000     2          
   263  Cl    s      6.6427 *    -1.1071 *     3.3213 *  0.0000     2          
   264  O     s      0.0000       1.1071 *    -7.7498 *  0.0000     1          
   265  O     s      0.0000      -7.7498 *     1.1071 *  0.0000     1          
   266  O     s      4.4285 *    -3.3213 *     5.5356 *  0.0000     2          
   267  O     s      0.0000       5.5356 *     5.5356 *  0.0000     1          
   268  O     s      4.4285 *     5.5356 *    -3.3213 *  0.0000     2          
   269  Cl    s      2.2142 *    -1.1071 *     7.7498 *  0.0000     2          
   270  Cl    s      2.2142 *     7.7498 *    -1.1071 *  0.0000     2          
   271  Cl    s      6.6427 *     3.3213 *     3.3213 *  0.0000     2          
   272  Cl    s      2.2142 *    -5.5356 *    -5.5356 *  0.0000     2          
   273  O     s      0.0000      -3.3213 *    -7.7498 *  0.0000     1          
   274  O     s      0.0000      -7.7498 *    -3.3213 *  0.0000     1          
   275  Cl    s      2.2142 *     3.3213 *     7.7498 *  0.0000     2          
   276  Cl    s      2.2142 *     7.7498 *     3.3213 *  0.0000     2          
   277  Cl    s      6.6427 *    -5.5356 *    -1.1071 *  0.0000     2          
   278  Cl    s      6.6427 *    -1.1071 *    -5.5356 *  0.0000     2          
   279  O     s      4.4285 *     1.1071 *    -7.7498 *  0.0000     2          
   280  O     s      4.4285 *    -7.7498 *     1.1071 *  0.0000     2          
   281  O     s      8.8569 *     1.1071 *     1.1071 *  0.0000     2          
   282  O     s      4.4285 *     5.5356 *     5.5356 *  0.0000     2          
   283  Cl    s      6.6427 *    -5.5356 *     3.3213 *  0.0000     2          
   284  Cl    s      6.6427 *     3.3213 *    -5.5356 *  0.0000     2          
   285  O     s      4.4285 *    -3.3213 *    -7.7498 *  0.0000     2          
   286  O     s      4.4285 *    -7.7498 *    -3.3213 *  0.0000     2          
   287  O     s      8.8569 *     1.1071 *    -3.3213 *  0.0000     2          
   288  O     s      8.8569 *    -3.3213 *     1.1071 *  0.0000     2          
   289  O     s      0.0000       5.5356 *    -7.7498 *  0.0000     1          
   290  O     s      0.0000      -7.7498 *     5.5356 *  0.0000     1          
   291  Cl    s      2.2142 *     7.7498 *    -5.5356 *  0.0000     2          
   292  Cl    s      2.2142 *    -5.5356 *     7.7498 *  0.0000     2          
   293  O     s      8.8569 *    -3.3213 *    -3.3213 *  0.0000     2          
   294  O     s      0.0000       1.1071 *     9.9640 *  0.0000     1          
   295  O     s      0.0000       9.9640 *     1.1071 *  0.0000     1          
   296  Cl    s      2.2142 *    -1.1071 *    -9.9640 *  0.0000     2          
   297  Cl    s      2.2142 *    -9.9640 *    -1.1071 *  0.0000     2          
   298  Cl    s      6.6427 *    -1.1071 *     7.7498 *  0.0000     2          
   299  Cl    s      6.6427 *     7.7498 *    -1.1071 *  0.0000     2          
   300  Cl    s      6.6427 *    -5.5356 *    -5.5356 *  0.0000     2          
   301  O     s      0.0000       9.9640 *    -3.3213 *  0.0000     1          
   302  O     s      0.0000      -3.3213 *     9.9640 *  0.0000     1          
   303  O     s      4.4285 *     5.5356 *    -7.7498 *  0.0000     2          
   304  O     s      4.4285 *    -7.7498 *     5.5356 *  0.0000     2          
   305  O     s      8.8569 *     1.1071 *     5.5356 *  0.0000     2          
   306  O     s      8.8569 *     5.5356 *     1.1071 *  0.0000     2          
   307  Cl    s      2.2142 *     3.3213 *    -9.9640 *  0.0000     2          
   308  Cl    s      2.2142 *    -9.9640 *     3.3213 *  0.0000     2          
   309  Cl    s      6.6427 *     3.3213 *     7.7498 *  0.0000     2          
   310  Cl    s      6.6427 *     7.7498 *     3.3213 *  0.0000     2          
   311  O     s      0.0000      -7.7498 *    -7.7498 *  0.0000     1          
   312  O     s      4.4285 *     1.1071 *     9.9640 *  0.0000     2          
   313  O     s      4.4285 *     9.9640 *     1.1071 *  0.0000     2          
   314  O     s      8.8569 *     5.5356 *    -3.3213 *  0.0000     2          
   315  O     s      8.8569 *    -3.3213 *     5.5356 *  0.0000     2          
   316  Cl    s      2.2142 *     7.7498 *     7.7498 *  0.0000     2          
   317  Cl    s     11.0712 *    -1.1071 *    -1.1071 *  0.0000     2          
   318  O     s      0.0000       5.5356 *     9.9640 *  0.0000     1          
   319  O     s      0.0000       9.9640 *     5.5356 *  0.0000     1          
   320  O     s      4.4285 *     9.9640 *    -3.3213 *  0.0000     2          
   321  O     s      4.4285 *    -3.3213 *     9.9640 *  0.0000     2          
   322  Cl    s      2.2142 *    -5.5356 *    -9.9640 *  0.0000     2          
   323  Cl    s      2.2142 *    -9.9640 *    -5.5356 *  0.0000     2          
   324  Cl    s      6.6427 *     7.7498 *    -5.5356 *  0.0000     2          
   325  Cl    s      6.6427 *    -5.5356 *     7.7498 *  0.0000     2          
   326  Cl    s     11.0712 *    -1.1071 *     3.3213 *  0.0000     2          
   327  Cl    s     11.0712 *     3.3213 *    -1.1071 *  0.0000     2          
   328  O     s      4.4285 *    -7.7498 *    -7.7498 *  0.0000     2          
   329  O     s      8.8569 *     1.1071 *    -7.7498 *  0.0000     2          
   330  O     s      8.8569 *    -7.7498 *     1.1071 *  0.0000     2          
   331  O     s      8.8569 *     5.5356 *     5.5356 *  0.0000     2          
--------------------------------------------------------------------------------

  Components of defect energy : 

--------------------------------------------------------------------------------
  Region 1 - region 1                   =      6.18457250 eV
  Region 1 - region 2a (unrelaxed)      =     -0.01065718 eV
  Region 1 - 2a (relaxed - correction)  =     -0.11674715 eV
  Region 1 (Total)                      =      6.05716816 eV
  Region 2a                             =      0.05835319 eV
  Region 2b                             =     -0.16631274 eV
--------------------------------------------------------------------------------
  Total defect energy                   =      5.94920860 eV
--------------------------------------------------------------------------------

  Largest displacement in region 2 =   0.0183 Angstroms


  Number of variables =      904

  Maximum number of calculations  =        1000
  Maximum Hessian update interval =          10
  Maximum step size               =   1.0000000
  Maximum parameter tolerance     =   0.0000100
  Maximum function  tolerance     =   0.0000100
  Maximum gradient  tolerance     =   0.0010000

  Symmetry adapted optimisation

  Symmetry to be used for second derivatives

  Newton-Raphson optimiser to be used

  BFGS hessian update to be used

  Lower half triangular hessian to be used

  Start of defect optimisation :

  Cycle:      0 Defect Energy:   5.949209  Gnorm:     0.017812  CPU:    6.997
  ** Hessian calculated **
  Cycle:      1 Defect Energy:   5.034266  Gnorm:     0.014319  CPU:   13.283
  Cycle:      2 Defect Energy:   3.709933  Gnorm:     0.008157  CPU:   18.602
  Cycle:      3 Defect Energy:   3.354086  Gnorm:     0.005436  CPU:   23.667
  ** Hessian calculated **
  Cycle:      4 Defect Energy:   3.017284  Gnorm:     0.002857  CPU:   29.265
  Cycle:      5 Defect Energy:   2.873124  Gnorm:     0.001873  CPU:   30.231
  Cycle:      6 Defect Energy:   2.845299  Gnorm:     0.001380  CPU:   31.240
  ** Hessian calculated **
  Cycle:      7 Defect Energy:   2.794256  Gnorm:     0.001013  CPU:   33.547
  Cycle:      8 Defect Energy:   2.771673  Gnorm:     0.000691  CPU:   34.402
  Cycle:      9 Defect Energy:   2.762270  Gnorm:     0.000502  CPU:   35.256
  Cycle:     10 Defect Energy:   2.757026  Gnorm:     0.000357  CPU:   36.228
  Cycle:     11 Defect Energy:   2.754116  Gnorm:     0.000257  CPU:   38.640
  Cycle:     12 Defect Energy:   2.752449  Gnorm:     0.000167  CPU:   41.943
  Cycle:     13 Defect Energy:   2.751551  Gnorm:     0.000111  CPU:   43.051
  Cycle:     14 Defect Energy:   2.751198  Gnorm:     0.000074  CPU:   44.123
  Cycle:     15 Defect Energy:   2.751030  Gnorm:     0.000051  CPU:   45.247
  Cycle:     16 Defect Energy:   2.750941  Gnorm:     0.000035  CPU:   46.304
  ** Hessian calculated **
  Cycle:     17 Defect Energy:   2.750935  Gnorm:     0.000026  CPU:   48.874
  Cycle:     18 Defect Energy:   2.750927  Gnorm:     0.000022  CPU:   49.416
  Cycle:     19 Defect Energy:   2.750918  Gnorm:     0.000019  CPU:   50.312
  Cycle:     20 Defect Energy:   2.750904  Gnorm:     0.000016  CPU:   51.323
  Cycle:     21 Defect Energy:   2.750892  Gnorm:     0.000012  CPU:   52.449


  **** Optimisation achieved ****


  Final defect energy  =        2.75088314
  Final defect Gnorm   =        0.00000997

  Components of defect energy : 

--------------------------------------------------------------------------------
  Region 1 - region 1                   =      3.39363530 eV
  Region 1 - region 2a (unrelaxed)      =     -0.42827635 eV
  Region 1 - 2a (relaxed - correction)  =     -0.09651762 eV
  Region 1 (Total)                      =      2.86884133 eV
  Region 2a                             =      0.04827019 eV
  Region 2b                             =     -0.16622837 eV
--------------------------------------------------------------------------------
  Total defect energy                   =      2.75088314 eV
--------------------------------------------------------------------------------

  Largest displacement in region 2 =   0.0183 Angstroms

  Final coordinates of region 1 :

--------------------------------------------------------------------------------
   No.  Atomic        x           y           z          Radius      Charge
        Label       (Angs)      (Angs)      (Angs)       (Angs)       (e) 
--------------------------------------------------------------------------------
     1  Na    c     2.214230    0.752838    1.461392    0.000000    0.670000
     2  O     c     2.214230    2.593009    2.436627    0.000000    0.489000
     3  Cl    c     4.512086   -0.064300   -0.025860    0.000000    0.615000
     4  Cl    c    -0.083626   -0.064300   -0.025860    0.000000    0.615000
     5  Na    c     4.414522    2.579031    2.301826    0.000000    0.670000
     6  Na    c     0.013939    2.579031    2.301826    0.000000    0.670000
     7  O     c     2.214230    2.253030   -2.284276    0.000000    0.489000
     8  O     c     2.214230   -2.177596    2.205418    0.000000    0.489000
     9  Na    c     2.214230    2.233001    4.531061    0.000000    0.670000
    10  Na    c     2.214230   -2.258580    0.017459    0.000000    0.670000
    11  Na    c     2.214230    0.070673   -2.123694    0.000000    0.670000
    12  Na    c     2.214230    4.560644    1.647944    0.000000    0.670000
    13  Cl    c     4.527049    0.031202    4.557518    0.000000    0.615000
    14  Cl    c    -0.098589    0.031202    4.557518    0.000000    0.615000
    15  Cl    c     4.580477    4.569030   -0.003842    0.000000    0.615000
    16  Cl    c    -0.152016    4.569030   -0.003842    0.000000    0.615000
    17  Na    c     4.363389    2.231830   -1.929499    0.000000    0.670000
    18  Na    c     0.065072    2.231830   -1.929499    0.000000    0.670000
    19  Na    c     4.391602   -2.068714    2.215289    0.000000    0.670000
    20  Na    c     0.036859   -2.068714    2.215289    0.000000    0.670000
    21  O     c     6.635759    2.267543    2.242697    0.000000    0.489000
    22  O     c    -2.207298    2.267543    2.242697    0.000000    0.489000
    23  Na    c     6.688829    2.323235    0.030033    0.000000    0.670000
    24  Na    c    -2.260368    2.323235    0.030033    0.000000    0.670000
    25  Na    c     6.519055    0.057155    2.144231    0.000000    0.670000
    26  Na    c    -2.090594    0.057155    2.144231    0.000000    0.670000
    27  O     c     2.214230   -2.178012   -2.204555    0.000000    0.489000
    28  Na    c     2.214230   -1.783419    4.367351    0.000000    0.670000
    29  Na    c     2.214230    4.402419   -1.857762    0.000000    0.670000
    30  Cl    c     4.592125    4.527313    4.543534    0.000000    0.615000
    31  Cl    c    -0.163664    4.527313    4.543534    0.000000    0.615000
    32  Na    c     4.424568   -2.171328   -2.207798    0.000000    0.670000
    33  Na    c     0.003892   -2.171328   -2.207798    0.000000    0.670000
    34  O     c     6.607523    2.227648   -2.185037    0.000000    0.489000
    35  O     c    -2.179062    2.227648   -2.185037    0.000000    0.489000
    36  Na    c     6.594988    2.165663    4.454010    0.000000    0.670000
    37  Na    c    -2.166527    2.165663    4.454010    0.000000    0.670000
    38  Na    c     6.607294    0.015128   -2.132043    0.000000    0.670000
    39  Na    c    -2.178833    0.015128   -2.132043    0.000000    0.670000
    40  O     c     6.622064   -2.169912    2.220996    0.000000    0.489000
    41  O     c    -2.193603   -2.169912    2.220996    0.000000    0.489000
    42  Na    c     6.605712   -2.261406    0.006322    0.000000    0.670000
    43  Na    c    -2.177252   -2.261406    0.006322    0.000000    0.670000
    44  Na    c     6.780868    4.474810    2.290801    0.000000    0.670000
    45  Na    c    -2.352407    4.474810    2.290801    0.000000    0.670000
    46  O     c     2.214230    2.230443    6.726260    0.000000    0.489000
    47  O     c     2.214230    6.705989    2.176040    0.000000    0.489000
    48  Na    c     2.214230    2.354618   -4.440496    0.000000    0.670000
    49  Na    c     2.214230    7.064785   -0.016273    0.000000    0.670000
    50  Na    c     2.214230    0.021577    6.797776    0.000000    0.670000
    51  Na    c     2.214230   -4.378463    2.402431    0.000000    0.670000
    52  Cl    c     4.478071   -0.070710   -4.508283    0.000000    0.615000
    53  Cl    c    -0.049610   -0.070710   -4.508283    0.000000    0.615000
    54  Cl    c     4.460468   -4.455661   -0.039071    0.000000    0.615000
    55  Cl    c    -0.032007   -4.455661   -0.039071    0.000000    0.615000
    56  Na    c     4.435758    2.232494    6.677371    0.000000    0.670000
    57  Na    c    -0.007297    2.232494    6.677371    0.000000    0.670000
    58  Na    c     4.440429    6.626478    2.216791    0.000000    0.670000
    59  Na    c    -0.011968    6.626478    2.216791    0.000000    0.670000
    60  O     c     2.214230    6.643801   -2.193046    0.000000    0.489000
    61  O     c     2.214230   -2.183125    6.599336    0.000000    0.489000
    62  O     c     6.644592   -2.206153   -2.212803    0.000000    0.489000
    63  O     c    -2.216131   -2.206153   -2.212803    0.000000    0.489000
    64  Na    c     2.214230    6.319074    4.376937    0.000000    0.670000
    65  Na    c     2.214230   -2.120713   -4.415771    0.000000    0.670000
    66  Na    c     6.650317   -2.109477    4.430054    0.000000    0.670000
    67  Na    c    -2.221856   -2.109477    4.430054    0.000000    0.670000
    68  Na    c     2.214230    4.433165    6.762063    0.000000    0.670000
    69  Na    c     2.214230   -4.398239   -2.280403    0.000000    0.670000
    70  Na    c     6.609192    4.437101   -2.264814    0.000000    0.670000
    71  Na    c    -2.180731    4.437101   -2.264814    0.000000    0.670000
    72  Cl    c     4.499676    4.504577   -4.510479    0.000000    0.615000
    73  Cl    c    -0.071215    4.504577   -4.510479    0.000000    0.615000
    74  Cl    c     8.881224    0.019253    0.013444    0.000000    0.615000
    75  Cl    c    -4.452763    0.019253    0.013444    0.000000    0.615000
    76  Na    c     4.426450   -2.213188    6.582733    0.000000    0.670000
    77  Na    c     0.002011   -2.213188    6.582733    0.000000    0.670000
    78  Na    c     8.849398    2.141628    2.285343    0.000000    0.670000
    79  Na    c    -4.420937    2.141628    2.285343    0.000000    0.670000
    80  Cl    c     4.480929   -4.481489    4.454856    0.000000    0.615000
    81  Cl    c    -0.052468   -4.481489    4.454856    0.000000    0.615000
    82  Na    c     4.428578    6.612140   -2.204660    0.000000    0.670000
    83  Na    c    -0.000117    6.612140   -2.204660    0.000000    0.670000
    84  O     c     6.655313    2.224511    6.669200    0.000000    0.489000
    85  O     c    -2.226852    2.224511    6.669200    0.000000    0.489000
    86  O     c     6.664327    6.680042    2.222854    0.000000    0.489000
    87  O     c    -2.235866    6.680042    2.222854    0.000000    0.489000
    88  Na    c     6.458759    2.172612   -4.398130    0.000000    0.670000
    89  Na    c    -2.030298    2.172612   -4.398130    0.000000    0.670000
    90  Na    c     6.643925    6.609865    0.000169    0.000000    0.670000
    91  Na    c    -2.215464    6.609865    0.000169    0.000000    0.670000
    92  Na    c     6.622233    0.007478    6.710282    0.000000    0.670000
    93  Na    c    -2.193773    0.007478    6.710282    0.000000    0.670000
    94  Na    c     6.600707   -4.390813    2.286786    0.000000    0.670000
    95  Na    c    -2.172246   -4.390813    2.286786    0.000000    0.670000
    96  Cl    c     8.889173    4.457361    0.015072    0.000000    0.615000
    97  Cl    c    -4.460712    4.457361    0.015072    0.000000    0.615000
    98  Na    c     8.837729   -2.137998    2.195749    0.000000    0.670000
    99  Na    c    -4.409268   -2.137998    2.195749    0.000000    0.670000
   100  Cl    c     8.891003    0.013534    4.448448    0.000000    0.615000
   101  Cl    c    -4.462543    0.013534    4.448448    0.000000    0.615000
   102  Na    c     8.826922    2.211411   -2.291217    0.000000    0.670000
   103  Na    c    -4.398461    2.211411   -2.291217    0.000000    0.670000
   104  O     c     2.214230    2.224481   -6.665008    0.000000    0.489000
   105  O     c     2.214230   -6.617861    2.218482    0.000000    0.489000
   106  Na    c     2.214230    2.238162    8.908073    0.000000    0.670000
   107  Na    c     2.214230   -6.492709    0.007419    0.000000    0.670000
   108  Na    c     2.214230    0.012715   -6.587446    0.000000    0.670000
   109  Na    c     2.214230    8.877942    2.472910    0.000000    0.670000
   110  O     c     6.646830   -2.210950    6.648072    0.000000    0.489000
   111  O     c    -2.218370   -2.210950    6.648072    0.000000    0.489000
   112  Na    c     6.636678   -2.149685   -4.425327    0.000000    0.670000
   113  Na    c    -2.208217   -2.149685   -4.425327    0.000000    0.670000
   114  Na    c     6.655039    4.441418    6.599060    0.000000    0.670000
   115  Na    c    -2.226578    4.441418    6.599060    0.000000    0.670000
   116  O     c     2.214230    6.635031    6.609312    0.000000    0.489000
   117  O     c     6.649751    6.656732   -2.221574    0.000000    0.489000
   118  O     c    -2.221291    6.656732   -2.221574    0.000000    0.489000
   119  Na    c     2.214230    6.388171   -4.406494    0.000000    0.670000
   120  Na    c     6.648153    6.698093    4.437106    0.000000    0.670000
   121  Na    c    -2.219692    6.698093    4.437106    0.000000    0.670000
   122  Na    c     2.214230   -4.395826    6.405290    0.000000    0.670000
   123  Na    c     6.626285   -4.417274   -2.264786    0.000000    0.670000
   124  Na    c    -2.197824   -4.417274   -2.264786    0.000000    0.670000
   125  Cl    c     4.432229    0.004253    8.897561    0.000000    0.615000
   126  Cl    c    -0.003768    0.004253    8.897561    0.000000    0.615000
   127  Cl    c     4.469663    8.922035   -0.012835    0.000000    0.615000
   128  Cl    c    -0.041202    8.922035   -0.012835    0.000000    0.615000
   129  Na    c     4.421670    2.210718   -6.671318    0.000000    0.670000
   130  Na    c     0.006791    2.210718   -6.671318    0.000000    0.670000
   131  Na    c     4.424769   -6.598952    2.195470    0.000000    0.670000
   132  Na    c     0.003692   -6.598952    2.195470    0.000000    0.670000
   133  Cl    c     8.902543    4.450128    4.445165    0.000000    0.615000
   134  Cl    c    -4.474083    4.450128    4.445165    0.000000    0.615000
   135  Na    c     8.851471   -2.195606   -2.201877    0.000000    0.670000
   136  Na    c    -4.423011   -2.195606   -2.201877    0.000000    0.670000
   137  Cl    c     4.431951   -4.451546   -4.439157    0.000000    0.615000
   138  Cl    c    -0.003490   -4.451546   -4.439157    0.000000    0.615000
   139  Na    c     4.433653    6.644957    6.602819    0.000000    0.670000
   140  Na    c    -0.005192    6.644957    6.602819    0.000000    0.670000
   141  O     c     2.214230   -2.208194   -6.637011    0.000000    0.489000
   142  O     c     2.214230   -6.625443   -2.209425    0.000000    0.489000
   143  Na    c     2.214230   -2.323395    8.827979    0.000000    0.670000
   144  Na    c     2.214230   -6.760858    4.421726    0.000000    0.670000
   145  Na    c     2.214230    4.428601   -6.766241    0.000000    0.670000
   146  Na    c     2.214230    8.852289   -2.461562    0.000000    0.670000
   147  Cl    c     4.425054    4.441616    8.898792    0.000000    0.615000
   148  Cl    c     0.003407    4.441616    8.898792    0.000000    0.615000
   149  Cl    c     4.458646    8.912669    4.440525    0.000000    0.615000
   150  Cl    c    -0.030185    8.912669    4.440525    0.000000    0.615000
   151  Na    c     4.429521   -2.203935   -6.624742    0.000000    0.670000
   152  Na    c    -0.001060   -2.203935   -6.624742    0.000000    0.670000
   153  Na    c     4.427193   -6.622038   -2.195146    0.000000    0.670000
   154  Na    c     0.001268   -6.622038   -2.195146    0.000000    0.670000
   155  Cl    c     8.877557   -4.429261   -0.001626    0.000000    0.615000
   156  Cl    c    -4.449096   -4.429261   -0.001626    0.000000    0.615000
   157  Na    c     8.869813    6.733167    2.205717    0.000000    0.670000
   158  Na    c    -4.441352    6.733167    2.205717    0.000000    0.670000
   159  Cl    c     8.886567   -0.004713   -4.431585    0.000000    0.615000
   160  Cl    c    -4.458106   -0.004713   -4.431585    0.000000    0.615000
   161  Na    c     8.861440    2.208446    6.618319    0.000000    0.670000
   162  Na    c    -4.432980    2.208446    6.618319    0.000000    0.670000
   163  O     c     6.634181    2.215042   -6.626367    0.000000    0.489000
   164  O     c    -2.205720    2.215042   -6.626367    0.000000    0.489000
   165  O     c     6.639168   -6.623332    2.213812    0.000000    0.489000
   166  O     c    -2.210707   -6.623332    2.213812    0.000000    0.489000
   167  O     c    11.066495    2.217852    2.215532    0.000000    0.489000
   168  O     c    -6.638035    2.217852    2.215532    0.000000    0.489000
   169  Na    c     6.659419    2.263201    8.869223    0.000000    0.670000
   170  Na    c    -2.230958    2.263201    8.869223    0.000000    0.670000
   171  Na    c     6.653865   -6.564055    0.000590    0.000000    0.670000
   172  Na    c    -2.225404   -6.564055    0.000590    0.000000    0.670000
   173  Na    c    10.983600    2.235507    0.000394    0.000000    0.670000
   174  Na    c    -6.555139    2.235507    0.000394    0.000000    0.670000
   175  Na    c     6.648658    0.001663   -6.653003    0.000000    0.670000
   176  Na    c    -2.220197    0.001663   -6.653003    0.000000    0.670000
   177  Na    c     6.611762    8.877338    2.181107    0.000000    0.670000
   178  Na    c    -2.183301    8.877338    2.181107    0.000000    0.670000
   179  Na    c    11.108382    0.004801    2.195076    0.000000    0.670000
   180  Na    c    -6.679921    0.004801    2.195076    0.000000    0.670000
   181  O     c     6.656574    6.660559    6.653799    0.000000    0.489000
   182  O     c    -2.228113    6.660559    6.653799    0.000000    0.489000
   183  Na    c     6.640041    6.669075   -4.431609    0.000000    0.670000
   184  Na    c    -2.211580    6.669075   -4.431609    0.000000    0.670000
   185  Na    c     6.647269   -4.423296    6.578983    0.000000    0.670000
   186  Na    c    -2.218808   -4.423296    6.578983    0.000000    0.670000
   187  Cl    c     8.877250   -4.432583    4.442252    0.000000    0.615000
   188  Cl    c    -4.448789   -4.432583    4.442252    0.000000    0.615000
   189  Na    c     8.857053    6.641731   -2.208501    0.000000    0.670000
   190  Na    c    -4.428592    6.641731   -2.208501    0.000000    0.670000
   191  Cl    c     8.888688    4.449396   -4.427138    0.000000    0.615000
   192  Cl    c    -4.460227    4.449396   -4.427138    0.000000    0.615000
   193  Na    c     8.855993   -2.201769    6.653141    0.000000    0.670000
   194  Na    c    -4.427532   -2.201769    6.653141    0.000000    0.670000
   195  O     c     6.647457   -2.217060   -6.644379    0.000000    0.489000
   196  O     c    -2.218996   -2.217060   -6.644379    0.000000    0.489000
   197  O     c     6.643061   -6.637426   -2.216141    0.000000    0.489000
   198  O     c    -2.214600   -6.637426   -2.216141    0.000000    0.489000
   199  O     c    11.056252    2.217546   -2.213167    0.000000    0.489000
   200  O     c    -6.627791    2.217546   -2.213167    0.000000    0.489000
   201  O     c    11.064142   -2.207356    2.214829    0.000000    0.489000
   202  O     c    -6.635681   -2.207356    2.214829    0.000000    0.489000
   203  Na    c     6.621700   -2.256319    8.855871    0.000000    0.670000
   204  Na    c    -2.193240   -2.256319    8.855871    0.000000    0.670000
   205  Na    c     6.619300   -6.666276    4.425890    0.000000    0.670000
   206  Na    c    -2.190839   -6.666276    4.425890    0.000000    0.670000
   207  Na    c    11.098624    2.216915    4.428669    0.000000    0.670000
   208  Na    c    -6.670164    2.216915    4.428669    0.000000    0.670000
   209  Na    c    11.063279   -2.232552    0.001791    0.000000    0.670000
   210  Na    c    -6.634818   -2.232552    0.001791    0.000000    0.670000
   211  Na    c     6.630401    4.431319   -6.600795    0.000000    0.670000
   212  Na    c    -2.201940    4.431319   -6.600795    0.000000    0.670000
   213  Na    c     6.631884    8.862864   -2.196826    0.000000    0.670000
   214  Na    c    -2.203423    8.862864   -2.196826    0.000000    0.670000
   215  Na    c    11.057583    0.003872   -2.191981    0.000000    0.670000
   216  Na    c    -6.629122    0.003872   -2.191981    0.000000    0.670000
   217  Na    c    11.016898    4.434143    2.221777    0.000000    0.670000
   218  Na    c    -6.588437    4.434143    2.221777    0.000000    0.670000
   219  O     c     2.214230    6.635128   -6.630205    0.000000    0.489000
   220  O     c     2.214230   -6.624107    6.630027    0.000000    0.489000
   221  Na    c     2.214230    6.719964    8.836186    0.000000    0.670000
   222  Na    c     2.214230   -6.665630   -4.423532    0.000000    0.670000
   223  Na    c     2.214230    8.844874    6.494804    0.000000    0.670000
   224  Na    c     2.214230   -4.421184   -6.601676    0.000000    0.670000
   225  Cl    c     4.441384    8.899121   -4.437726    0.000000    0.615000
   226  Cl    c    -0.012923    8.899121   -4.437726    0.000000    0.615000
   227  Cl    c     4.440577   -4.429483    8.886177    0.000000    0.615000
   228  Cl    c    -0.012116   -4.429483    8.886177    0.000000    0.615000
   229  Na    c     4.429368    6.642920   -6.621493    0.000000    0.670000
   230  Na    c    -0.000908    6.642920   -6.621493    0.000000    0.670000
   231  Na    c     4.427566   -6.611530    6.647659    0.000000    0.670000
   232  Na    c     0.000895   -6.611530    6.647659    0.000000    0.670000
   233  O     c    11.071080   -2.211648   -2.211244    0.000000    0.489000
   234  O     c    -6.642619   -2.211648   -2.211244    0.000000    0.489000
   235  Na    c    11.046065   -2.201749    4.428043    0.000000    0.670000
   236  Na    c    -6.617605   -2.201749    4.428043    0.000000    0.670000
   237  Na    c    11.051523    4.429584   -2.223426    0.000000    0.670000
   238  Na    c    -6.623062    4.429584   -2.223426    0.000000    0.670000
   239  O     c     2.214230    2.214180   11.094889    0.000000    0.489000
   240  O     c     2.214230   11.077376    2.226012    0.000000    0.489000
   241  Na    c     2.214230    2.166314   -8.869140    0.000000    0.670000
   242  Na    c     2.214230   10.963718   -0.001769    0.000000    0.670000
   243  Na    c     2.214230   -0.008978   11.041741    0.000000    0.670000
   244  Na    c     2.214230   -8.843461    2.143461    0.000000    0.670000
   245  Cl    c     4.431052    0.001218   -8.886461    0.000000    0.615000
   246  Cl    c    -0.002591    0.001218   -8.886461    0.000000    0.615000
   247  Cl    c     4.430534   -8.888411    0.000970    0.000000    0.615000
   248  Cl    c    -0.002073   -8.888411    0.000970    0.000000    0.615000
   249  Cl    c     8.874168   -0.000497    8.876549    0.000000    0.615000
   250  Cl    c    -4.445708   -0.000497    8.876549    0.000000    0.615000
   251  Cl    c     8.879822    8.882270    0.003828    0.000000    0.615000
   252  Cl    c    -4.451361    8.882270    0.003828    0.000000    0.615000
   253  Na    c     4.430662    2.203581   11.083354    0.000000    0.670000
   254  Na    c    -0.002201    2.203581   11.083354    0.000000    0.670000
   255  Na    c     4.427390   11.078195    2.187366    0.000000    0.670000
   256  Na    c     0.001070   11.078195    2.187366    0.000000    0.670000
   257  Na    c     8.846353    2.229505   -6.562886    0.000000    0.670000
   258  Na    c    -4.417892    2.229505   -6.562886    0.000000    0.670000
   259  Na    c     8.849689   -6.625897    2.222365    0.000000    0.670000
   260  Na    c    -4.421228   -6.625897    2.222365    0.000000    0.670000
   261  Cl    c     8.874866   -4.443635   -4.437193    0.000000    0.615000
   262  Cl    c    -4.446405   -4.443635   -4.437193    0.000000    0.615000
   263  Na    c     8.864074    6.646637    6.648922    0.000000    0.670000
   264  Na    c    -4.435613    6.646637    6.648922    0.000000    0.670000
   265  O     c     2.214230   11.064789   -2.228222    0.000000    0.489000
   266  O     c     2.214230   -2.223603   11.062305    0.000000    0.489000
   267  O     c     6.648457    6.651985   -6.647198    0.000000    0.489000
   268  O     c    -2.219996    6.651985   -6.647198    0.000000    0.489000
   269  O     c     6.644860   -6.642875    6.642048    0.000000    0.489000
   270  O     c    -2.216400   -6.642875    6.642048    0.000000    0.489000
   271  O     c    11.076756    2.215762    6.643611    0.000000    0.489000
   272  O     c    -6.648295    2.215762    6.643611    0.000000    0.489000
   273  O     c    11.078197    6.651812    2.214789    0.000000    0.489000
   274  O     c    -6.649736    6.651812    2.214789    0.000000    0.489000
   275  Na    c     2.214230   11.176615    4.435118    0.000000    0.670000
   276  Na    c     2.214230   -2.203019   -8.848838    0.000000    0.670000
   277  Na    c     6.635525    6.625711    8.857714    0.000000    0.670000
   278  Na    c    -2.207064    6.625711    8.857714    0.000000    0.670000
   279  Na    c     6.632101   -6.663729   -4.428090    0.000000    0.670000
   280  Na    c    -2.203640   -6.663729   -4.428090    0.000000    0.670000
   281  Na    c    11.101698    2.204930   -4.424872    0.000000    0.670000
   282  Na    c    -6.673237    2.204930   -4.424872    0.000000    0.670000
   283  Na    c    11.073875    6.630604   -0.000388    0.000000    0.670000
   284  Na    c    -6.645414    6.630604   -0.000388    0.000000    0.670000
   285  Na    c     2.214230    4.436252   11.064248    0.000000    0.670000
   286  Na    c     2.214230   -8.843795   -2.165126    0.000000    0.670000
   287  Na    c     6.651296    8.862702    6.667641    0.000000    0.670000
   288  Na    c    -2.222835    8.862702    6.667641    0.000000    0.670000
   289  Na    c     6.639173   -4.428352   -6.612759    0.000000    0.670000
   290  Na    c    -2.210712   -4.428352   -6.612759    0.000000    0.670000
   291  Na    c    11.069445    0.001742    6.641166    0.000000    0.670000
   292  Na    c    -6.640984    0.001742    6.641166    0.000000    0.670000
   293  Na    c    11.033477   -4.421890    2.227323    0.000000    0.670000
   294  Na    c    -6.605017   -4.421890    2.227323    0.000000    0.670000
   295  Cl    c     4.430183    4.433333   -8.883361    0.000000    0.615000
   296  Cl    c    -0.001722    4.433333   -8.883361    0.000000    0.615000
   297  Cl    c     4.432289   -8.871897    4.432487    0.000000    0.615000
   298  Cl    c    -0.003828   -8.871897    4.432487    0.000000    0.615000
   299  Cl    c     8.877075    4.437165    8.881949    0.000000    0.615000
   300  Cl    c    -4.448614    4.437165    8.881949    0.000000    0.615000
   301  Cl    c     8.884337    8.876346    4.437852    0.000000    0.615000
   302  Cl    c    -4.455876    8.876346    4.437852    0.000000    0.615000
   303  Na    c     4.428908   11.059787   -2.194719    0.000000    0.670000
   304  Na    c    -0.000447   11.059787   -2.194719    0.000000    0.670000
   305  Na    c     4.427425   -2.202443   11.056781    0.000000    0.670000
   306  Na    c     0.001036   -2.202443   11.056781    0.000000    0.670000
   307  Na    c     8.855701   -2.224863   -6.638393    0.000000    0.670000
   308  Na    c    -4.427240   -2.224863   -6.638393    0.000000    0.670000
   309  Na    c     8.854146   -6.635875   -2.218528    0.000000    0.670000
   310  Na    c    -4.425685   -6.635875   -2.218528    0.000000    0.670000
   311  O     c     2.214230   -6.643125   -6.641901    0.000000    0.489000
   312  Na    c     2.214230   -6.548515    8.844731    0.000000    0.670000
   313  Na    c     2.214230    8.846692   -6.543778    0.000000    0.670000
   314  O     c     6.646037    2.217580   11.079326    0.000000    0.489000
   315  O     c    -2.217576    2.217580   11.079326    0.000000    0.489000
   316  O     c     6.644496   11.084179    2.210392    0.000000    0.489000
   317  O     c    -2.216035   11.084179    2.210392    0.000000    0.489000
   318  O     c    11.074532    6.645239   -2.213960    0.000000    0.489000
   319  O     c    -6.646071    6.645239   -2.213960    0.000000    0.489000
   320  O     c    11.072781   -2.212716    6.644961    0.000000    0.489000
   321  O     c    -6.644320   -2.212716    6.644961    0.000000    0.489000
   322  Na    c     6.663908    2.229275   -8.846206    0.000000    0.670000
   323  Na    c    -2.235447    2.229275   -8.846206    0.000000    0.670000
[...]
    251 y          6.642691      6.706655     0.063963    Cartesian    0.96
    251 z          2.214230      2.174458    -0.039772    Cartesian   -1.80
    252 x          4.428461      4.480755     0.052294    Cartesian    1.18
    252 y          0.000000     -0.073822    -0.073822    Cartesian    0.00
    252 z         -4.428461     -4.511723    -0.083262    Cartesian    1.88
    253 x          4.428461      4.461697     0.033237    Cartesian    0.75
    253 y         -4.428461     -4.458000    -0.029540    Cartesian    0.67
    253 z          0.000000     -0.040634    -0.040634    Cartesian    0.00
    254 x          2.214230      2.214230     0.000000    Cartesian    0.00
    254 y          6.642691      6.646528     0.003837    Cartesian    0.06
    254 z         -2.214230     -2.192630     0.021601    Cartesian   -0.98
    255 x          2.214230      2.214230     0.000000    Cartesian    0.00
    255 y         -2.214230     -2.181964     0.032267    Cartesian   -1.46
    255 z          6.642691      6.600994    -0.041697    Cartesian   -0.63
    256 x          6.642691      6.644749     0.002058    Cartesian    0.03
    256 y         -2.214230     -2.206483     0.007747    Cartesian   -0.35
    256 z         -2.214230     -2.212921     0.001309    Cartesian   -0.06
    257 x          4.428461      4.502041     0.073580    Cartesian    1.66
    257 y          4.428461      4.507838     0.079377    Cartesian    1.79
    257 z         -4.428461     -4.513603    -0.085142    Cartesian    1.92
    258 x          8.856922      8.882864     0.025943    Cartesian    0.29
    258 y          0.000000      0.019445     0.019445    Cartesian    0.00
    258 z          0.000000      0.013852     0.013852    Cartesian    0.00
    259 x          4.428461      4.482063     0.053603    Cartesian    1.21
    259 y         -4.428461     -4.484113    -0.055652    Cartesian    1.26
    259 z          4.428461      4.456431     0.027970    Cartesian    0.63
    260 x          6.642691      6.655476     0.012785    Cartesian    0.19
    260 y          2.214230      2.224313     0.010083    Cartesian    0.46
    260 z          6.642691      6.669703     0.027012    Cartesian    0.41
    261 x          6.642691      6.665471     0.022780    Cartesian    0.34
    261 y          6.642691      6.680420     0.037729    Cartesian    0.57
    261 z          2.214230      2.223363     0.009132    Cartesian    0.41
    262 x          8.856922      8.890286     0.033364    Cartesian    0.38
    262 y          4.428461      4.457673     0.029212    Cartesian    0.66
    262 z          0.000000      0.015730     0.015730    Cartesian    0.00
    263 x          8.856922      8.892225     0.035303    Cartesian    0.40
    263 y          0.000000      0.013834     0.013834    Cartesian    0.00
    263 z          4.428461      4.448702     0.020241    Cartesian    0.46
    264 x          2.214230      2.214230     0.000000    Cartesian    0.00
    264 y          2.214230      2.225062     0.010832    Cartesian    0.49
    264 z         -6.642691     -6.666695    -0.024004    Cartesian    0.36
    265 x          2.214230      2.214230     0.000000    Cartesian    0.00
    265 y         -6.642691     -6.618834     0.023857    Cartesian   -0.36
    265 z          2.214230      2.219109     0.004878    Cartesian    0.22
    266 x          6.642691      6.647229     0.004537    Cartesian    0.07
    266 y         -2.214230     -2.210918     0.003313    Cartesian   -0.15
    266 z          6.642691      6.648346     0.005655    Cartesian    0.09
    267 x          2.214230      2.214230     0.000000    Cartesian    0.00
    267 y          6.642691      6.633747    -0.008944    Cartesian   -0.13
    267 z          6.642691      6.610833    -0.031858    Cartesian   -0.48
    268 x          6.642691      6.650080     0.007389    Cartesian    0.11
    268 y          6.642691      6.656959     0.014268    Cartesian    0.21
    268 z         -2.214230     -2.222135    -0.007905    Cartesian    0.36
    269 x          4.428461      4.432103     0.003642    Cartesian    0.08
    269 y          0.000000      0.004633     0.004633    Cartesian    0.00
    269 z          8.856922      8.898378     0.041456    Cartesian    0.47
    270 x          4.428461      4.469232     0.040771    Cartesian    0.92
    270 y          8.856922      8.922993     0.066072    Cartesian    0.75
    270 z          0.000000     -0.013087    -0.013087    Cartesian    0.00
    271 x          8.856922      8.903543     0.046621    Cartesian    0.53
    271 y          4.428461      4.450597     0.022136    Cartesian    0.50
    271 z          4.428461      4.445018     0.016557    Cartesian    0.37
    272 x          4.428461      4.432178     0.003717    Cartesian    0.08
    272 y         -4.428461     -4.452821    -0.024360    Cartesian    0.55
    272 z         -4.428461     -4.439519    -0.011058    Cartesian    0.25
    273 x          2.214230      2.214230     0.000000    Cartesian    0.00
    273 y         -2.214230     -2.208063     0.006167    Cartesian   -0.28
    273 z         -6.642691     -6.636989     0.005702    Cartesian   -0.09
    274 x          2.214230      2.214230     0.000000    Cartesian    0.00
    274 y         -6.642691     -6.625385     0.017306    Cartesian   -0.26
    274 z         -2.214230     -2.209762     0.004469    Cartesian   -0.20
    275 x          4.428461      4.424619    -0.003842    Cartesian   -0.09
    275 y          4.428461      4.441489     0.013028    Cartesian    0.29
    275 z          8.856922      8.899840     0.042918    Cartesian    0.48
    276 x          4.428461      4.458634     0.030173    Cartesian    0.68
    276 y          8.856922      8.914497     0.057575    Cartesian    0.65
    276 z          4.428461      4.440672     0.012211    Cartesian    0.28
    277 x          8.856922      8.878732     0.021810    Cartesian    0.25
    277 y         -4.428461     -4.429928    -0.001467    Cartesian    0.03
    277 z          0.000000     -0.001907    -0.001907    Cartesian    0.00
    278 x          8.856922      8.888168     0.031246    Cartesian    0.35
    278 y          0.000000     -0.005092    -0.005092    Cartesian    0.00
    278 z         -4.428461     -4.432048    -0.003587    Cartesian    0.08
    279 x          6.642691      6.633465    -0.009226    Cartesian   -0.14
    279 y          2.214230      2.214798     0.000568    Cartesian    0.03
    279 z         -6.642691     -6.627108     0.015583    Cartesian   -0.23
    280 x          6.642691      6.639098    -0.003593    Cartesian   -0.05
    280 y         -6.642691     -6.623777     0.018914    Cartesian   -0.28
    280 z          2.214230      2.214082    -0.000149    Cartesian   -0.01
    281 x         11.071152     11.066493    -0.004660    Cartesian   -0.04
    281 y          2.214230      2.217462     0.003232    Cartesian    0.15
    281 z          2.214230      2.215852     0.001621    Cartesian    0.07
    282 x          6.642691      6.657198     0.014507    Cartesian    0.22
    282 y          6.642691      6.661355     0.018664    Cartesian    0.28
    282 z          6.642691      6.653938     0.011247    Cartesian    0.17
    283 x          8.856922      8.878319     0.021398    Cartesian    0.24
    283 y         -4.428461     -4.433337    -0.004876    Cartesian    0.11
    283 z          4.428461      4.442969     0.014508    Cartesian    0.33
    284 x          8.856922      8.890225     0.033304    Cartesian    0.38
    284 y          4.428461      4.450045     0.021584    Cartesian    0.49
    284 z         -4.428461     -4.427195     0.001265    Cartesian   -0.03
    285 x          6.642691      6.647814     0.005123    Cartesian    0.08
    285 y         -2.214230     -2.217063    -0.002832    Cartesian    0.13
    285 z         -6.642691     -6.644653    -0.001962    Cartesian    0.03
    286 x          6.642691      6.643185     0.000493    Cartesian    0.01
    286 y         -6.642691     -6.637484     0.005208    Cartesian   -0.08
    286 z         -2.214230     -2.216461    -0.002231    Cartesian    0.10
    287 x         11.071152     11.056682    -0.014470    Cartesian   -0.13
    287 y          2.214230      2.217632     0.003401    Cartesian    0.15
    287 z         -2.214230     -2.213489     0.000741    Cartesian   -0.03
    288 x         11.071152     11.064747    -0.006405    Cartesian   -0.06
    288 y         -2.214230     -2.207091     0.007140    Cartesian   -0.32
    288 z          2.214230      2.214698     0.000467    Cartesian    0.02
    289 x          2.214230      2.214230     0.000000    Cartesian    0.00
    289 y          6.642691      6.634125    -0.008566    Cartesian   -0.13
    289 z         -6.642691     -6.631345     0.011346    Cartesian   -0.17
    290 x          2.214230      2.214230     0.000000    Cartesian    0.00
    290 y         -6.642691     -6.625193     0.017498    Cartesian   -0.26
    290 z          6.642691      6.629215    -0.013476    Cartesian   -0.20
    291 x          4.428461      4.440841     0.012381    Cartesian    0.28
    291 y          8.856922      8.900650     0.043728    Cartesian    0.49
    291 z         -4.428461     -4.437510    -0.009049    Cartesian    0.20
    292 x          4.428461      4.440905     0.012445    Cartesian    0.28
    292 y         -4.428461     -4.429619    -0.001158    Cartesian    0.03
    292 z          8.856922      8.887851     0.030929    Cartesian    0.35
    293 x         11.071152     11.071121    -0.000031    Cartesian   -0.00
    293 y         -2.214230     -2.211725     0.002506    Cartesian   -0.11
    293 z         -2.214230     -2.211107     0.003123    Cartesian   -0.14
    294 x          2.214230      2.214230     0.000000    Cartesian    0.00
    294 y          2.214230      2.214319     0.000088    Cartesian    0.00
    294 z         11.071152     11.094059     0.022907    Cartesian    0.21
    295 x          2.214230      2.214230     0.000000    Cartesian    0.00
    295 y         11.071152     11.077775     0.006623    Cartesian    0.06
    295 z          2.214230      2.228020     0.013789    Cartesian    0.62
    296 x          4.428461      4.430932     0.002471    Cartesian    0.06
    296 y          0.000000      0.001426     0.001426    Cartesian    0.00
    296 z         -8.856922     -8.887490    -0.030568    Cartesian    0.35
    297 x          4.428461      4.430566     0.002106    Cartesian    0.05
    297 y         -8.856922     -8.890186    -0.033264    Cartesian    0.38
    297 z          0.000000      0.001023     0.001023    Cartesian    0.00
    298 x          8.856922      8.874776     0.017854    Cartesian    0.20
    298 y          0.000000     -0.000495    -0.000495    Cartesian    0.00
    298 z          8.856922      8.877103     0.020182    Cartesian    0.23
    299 x          8.856922      8.880495     0.023573    Cartesian    0.27
    299 y          8.856922      8.882794     0.025872    Cartesian    0.29
    299 z          0.000000      0.004319     0.004319    Cartesian    0.00
    300 x          8.856922      8.875608     0.018687    Cartesian    0.21
    300 y         -4.428461     -4.444334    -0.015873    Cartesian    0.36
    300 z         -4.428461     -4.437479    -0.009018    Cartesian    0.20
    301 x          2.214230      2.214230     0.000000    Cartesian    0.00
    301 y         11.071152     11.064940    -0.006212    Cartesian   -0.06
    301 z         -2.214230     -2.230131    -0.015901    Cartesian    0.72
    302 x          2.214230      2.214230     0.000000    Cartesian    0.00
    302 y         -2.214230     -2.224296    -0.010065    Cartesian    0.45
    302 z         11.071152     11.063047    -0.008105    Cartesian   -0.07
    303 x          6.642691      6.648830     0.006139    Cartesian    0.09
    303 y          6.642691      6.652639     0.009948    Cartesian    0.15
    303 z         -6.642691     -6.647056    -0.004365    Cartesian    0.07
    304 x          6.642691      6.645090     0.002398    Cartesian    0.04
    304 y         -6.642691     -6.643019    -0.000327    Cartesian    0.00
    304 z          6.642691      6.641987    -0.000705    Cartesian   -0.01
    305 x         11.071152     11.077045     0.005893    Cartesian    0.05
    305 y          2.214230      2.215720     0.001489    Cartesian    0.07
    305 z          6.642691      6.643604     0.000913    Cartesian    0.01
    306 x         11.071152     11.077988     0.006836    Cartesian    0.06
    306 y          6.642691      6.652513     0.009822    Cartesian    0.15
    306 z          2.214230      2.214759     0.000529    Cartesian    0.02
    307 x          4.428461      4.429879     0.001418    Cartesian    0.03
    307 y          4.428461      4.433293     0.004832    Cartesian    0.11
    307 z         -8.856922     -8.883806    -0.026885    Cartesian    0.30
    308 x          4.428461      4.432415     0.003955    Cartesian    0.09
    308 y         -8.856922     -8.872058    -0.015136    Cartesian    0.17
    308 z          4.428461      4.432817     0.004356    Cartesian    0.10
    309 x          8.856922      8.877648     0.020727    Cartesian    0.23
    309 y          4.428461      4.437253     0.008792    Cartesian    0.20
    309 z          8.856922      8.882827     0.025906    Cartesian    0.29
    310 x          8.856922      8.885113     0.028191    Cartesian    0.32
    310 y          8.856922      8.876447     0.019526    Cartesian    0.22
    310 z          4.428461      4.437994     0.009534    Cartesian    0.22
    311 x          2.214230      2.214230     0.000000    Cartesian    0.00
    311 y         -6.642691     -6.643584    -0.000892    Cartesian    0.01
    311 z         -6.642691     -6.641889     0.000803    Cartesian   -0.01
    312 x          6.642691      6.646280     0.003589    Cartesian    0.05
    312 y          2.214230      2.218009     0.003778    Cartesian    0.17
    312 z         11.071152     11.079392     0.008240    Cartesian    0.07
    313 x          6.642691      6.644492     0.001801    Cartesian    0.03
    313 y         11.071152     11.084255     0.013102    Cartesian    0.12
    313 z          2.214230      2.210002    -0.004228    Cartesian   -0.19
    314 x         11.071152     11.074669     0.003517    Cartesian    0.03
    314 y          6.642691      6.645317     0.002626    Cartesian    0.04
    314 z         -2.214230     -2.213984     0.000247    Cartesian   -0.01
    315 x         11.071152     11.072775     0.001623    Cartesian    0.01
    315 y         -2.214230     -2.212676     0.001554    Cartesian   -0.07
    315 z          6.642691      6.645196     0.002505    Cartesian    0.04
    316 x          4.428461      4.437791     0.009330    Cartesian    0.21
    316 y          8.856922      8.872401     0.015480    Cartesian    0.17
    316 z          8.856922      8.877555     0.020633    Cartesian    0.23
    317 x         13.285383     13.310072     0.024689    Cartesian    0.19
    317 y          0.000000     -0.000132    -0.000132    Cartesian    0.00
    317 z          0.000000      0.000868     0.000868    Cartesian    0.00
    318 x          2.214230      2.214230     0.000000    Cartesian    0.00
    318 y          6.642691      6.651634     0.008943    Cartesian    0.13
    318 z         11.071152     11.065519    -0.005634    Cartesian   -0.05
    319 x          2.214230      2.214230     0.000000    Cartesian    0.00
    319 y         11.071152     11.073377     0.002225    Cartesian    0.02
    319 z          6.642691      6.638541    -0.004150    Cartesian   -0.06
    320 x          6.642691      6.647059     0.004368    Cartesian    0.07
    320 y         11.071152     11.080153     0.009001    Cartesian    0.08
    320 z         -2.214230     -2.215761    -0.001531    Cartesian    0.07
    321 x          6.642691      6.644356     0.001665    Cartesian    0.03
    321 y         -2.214230     -2.216987    -0.002757    Cartesian    0.12
    321 z         11.071152     11.073487     0.002335    Cartesian    0.02
    322 x          4.428461      4.437456     0.008995    Cartesian    0.20
    322 y         -4.428461     -4.443372    -0.014912    Cartesian    0.34
    322 z         -8.856922     -8.880365    -0.023443    Cartesian    0.26
    323 x          4.428461      4.433898     0.005438    Cartesian    0.12
    323 y         -8.856922     -8.873961    -0.017039    Cartesian    0.19
    323 z         -4.428461     -4.440135    -0.011674    Cartesian    0.26
    324 x          8.856922      8.878521     0.021599    Cartesian    0.24
    324 y          8.856922      8.879637     0.022715    Cartesian    0.26
    324 z         -4.428461     -4.440450    -0.011989    Cartesian    0.27
    325 x          8.856922      8.872901     0.015979    Cartesian    0.18
    325 y         -4.428461     -4.437105    -0.008644    Cartesian    0.20
    325 z          8.856922      8.877336     0.020414    Cartesian    0.23
    326 x         13.285383     13.305548     0.020166    Cartesian    0.15
    326 y          0.000000     -0.000976    -0.000976    Cartesian    0.00
    326 z          4.428461      4.436332     0.007871    Cartesian    0.18
    327 x         13.285383     13.317478     0.032095    Cartesian    0.24
    327 y          4.428461      4.433739     0.005278    Cartesian    0.12
    327 z          0.000000     -0.003940    -0.003940    Cartesian    0.00
    328 x          6.642691      6.644334     0.001643    Cartesian    0.02
    328 y         -6.642691     -6.647141    -0.004449    Cartesian    0.07
    328 z         -6.642691     -6.644312    -0.001621    Cartesian    0.02
    329 x         11.071152     11.073027     0.001875    Cartesian    0.02
    329 y          2.214230      2.216078     0.001847    Cartesian    0.08
    329 z         -6.642691     -6.640984     0.001707    Cartesian   -0.03
    330 x         11.071152     11.070841    -0.000311    Cartesian   -0.00
    330 y         -6.642691     -6.642595     0.000096    Cartesian   -0.00
    330 z          2.214230      2.216937     0.002707    Cartesian    0.12
    331 x         11.071152     11.078359     0.007207    Cartesian    0.07
    331 y          6.642691      6.646203     0.003512    Cartesian    0.05
    331 z          6.642691      6.647055     0.004364    Cartesian    0.07
--------------------------------------------------------------------------------


  Time to end of optimisation  =       53.5046 seconds


  Peak dynamic memory used =     101.61 MB 


  Timing analysis for GULP :

--------------------------------------------------------------------------------
  Task / Subroutine                                          Time (Seconds)
--------------------------------------------------------------------------------
  Calculation of reciprocal space energy and derivatives          0.0004
  Calculation of reciprocal space energy using symmetry           0.0007
  Calculation of real space energy and derivatives                0.0021
  Calculation of real space energy using symmetry                 0.0069
  Calculation for region 1 energy and derivatives (2-b)          32.8803
  Calculation for region 2a energy                               18.4882
  Calculation for region 2b energy                                0.0079
  Calculation and manipulation of Hessian matrix                  0.1190
  Calculation of matrix inversion                                 1.7782
  Symmetry generation of equivalent positions                     0.0026
--------------------------------------------------------------------------------
  Total CPU time                                                 53.5047
--------------------------------------------------------------------------------


  Dump file written as Na3OCl.grs


  Job Finished at 16:32.39  5th July       2021                               

