********************************************************************************
*                       GENERAL UTILITY LATTICE PROGRAM                        *
*                                 Julian Gale                                  *
*                       Curtin Institute for Computation                       *
*                    School of Molecular and Life Sciences                     *
*                    Curtin University, Western Australia                      *
********************************************************************************
* Version = 5.2.0 * Last modified =  10th September 2020                       *
********************************************************************************
*  optimise     - perform optimisation run                                     *
*  conp         - constant pressure calculation                                *
*  property     - calculate properties for final geometry                      *
*  defect       - perform defect calculation after bulk run                    *
*  compare      - compare initial and final structures                         *
********************************************************************************

  Job Started  at 16:31.50  5th July       2021                               

  Number of CPUs =     1


  Total number of configurations input =      1

********************************************************************************
*  Input for Configuration =   1                                               *
********************************************************************************

  Formula = ClONa3                                                      

  Number of irreducible atoms/shells =       5


  Total number atoms/shells =       7

  Dimensionality = 3               :  Bulk   


  Symmetry :

  Crystal family                   :  Cubic       
  Crystal class  (Groth - 1921)    :  Cubic Hexakisoctahedral              

  Space group (centrosymmetric)    :  P M 3 M         

  Patterson group                  :  P m -3 m 

  Cartesian lattice vectors (Angstroms) :

        4.504000    0.000000    0.000000
        0.000000    4.504000    0.000000
        0.000000    0.000000    4.504000

  Cell parameters (Angstroms/Degrees):

  a =       4.5040    alpha =  90.0000
  b =       4.5040    beta  =  90.0000
  c =       4.5040    gamma =  90.0000

  Initial cell volume =          91.368216 Angs**3

  Temperature of configuration =   0.00     K 

  Pressure of configuration =         0.000 GPa 

  Fractional coordinates of asymmetric unit :

--------------------------------------------------------------------------------
   No.  Atomic       x           y          z         Charge      Occupancy
        Label      (Frac)      (Frac)     (Frac)        (e)         (Frac)  
--------------------------------------------------------------------------------
      1 Cl    c    0.000000    0.000000    0.000000     0.61500    1.000000    
      2 O     c    0.500000    0.500000    0.500000     0.48900    1.000000    
      3 Na    c    0.500000    0.500000    0.000000     0.67000    1.000000    
      4 Cl    s    0.000000    0.000000    0.000000    -1.28500    1.000000    
      5 O     s    0.500000    0.500000    0.500000    -1.82900    1.000000    
--------------------------------------------------------------------------------


  Constraints : 

--------------------------------------------------------------------------------
  Constraint no.      Unconstrained     Constrained    Coefficient    Offset
                         Variable         Variable
--------------------------------------------------------------------------------
           1              Strain 1        Strain 2       1.00000      0.0000
           2              Strain 1        Strain 3       1.00000      0.0000
--------------------------------------------------------------------------------


********************************************************************************
*  General input information                                                   *
********************************************************************************

  Species output for all configurations : 

--------------------------------------------------------------------------------
  Species    Type    Atomic    Atomic    Charge       Radii (Angs)     Library
                     Number     Mass       (e)     Cova   Ionic  VDW   Symbol
--------------------------------------------------------------------------------
    Na       Core       11      22.99   0.670000   0.970  0.000  2.300          
    O        Core        8      16.00   0.489000   0.730  0.000  1.360          
    O        Shell       8       0.00  -1.829000   0.730  0.000  1.360          
    Cl       Core       17      35.45   0.615000   0.990  0.000  1.650          
    Cl       Shell      17       0.00  -1.285000   0.990  0.000  1.650          
--------------------------------------------------------------------------------


  Lattice summation method               =    Ewald          (3-D)
                                         =    Parry          (2-D)
                                         =    Saunders et al (1-D)
  Accuracy factor for lattice sums       =   12.000


  Analytic derivatives to be used

  Time limit = Infinity

  Maximum range for interatomic potentials =    100000.000000 Angstroms

  General interatomic potentials :

--------------------------------------------------------------------------------
Atom  Types   Potential      Parameter       Value         Units   Cutoffs(Ang)
  1     2                                                            Min /  Max 
--------------------------------------------------------------------------------
O    c O    s Spring (c-s)  Spring k 2       34.450000    eV*Ang^-2 0.000  0.800
                            Spring k 4       0.0000000    eV*Ang^-4 
--------------------------------------------------------------------------------
Cl   c Cl   s Spring (c-s)  Spring k 2       28.250000    eV*Ang^-2 0.000  0.800
                            Spring k 4       0.0000000    eV*Ang^-4 
--------------------------------------------------------------------------------
Na   c Na   c Buckingham    Buckingham A     996.28210    eV        0.000 12.000
                            Buckingham rho  0.28830000    Ang       
                            Buckingham C     0.0000000    eV*Ang^6  
--------------------------------------------------------------------------------
Na   c O    s Buckingham    Buckingham A     12439.222    eV        0.000 12.000
                            Buckingham rho  0.20150000    Ang       
                            Buckingham C     0.0000000    eV*Ang^6  
--------------------------------------------------------------------------------
Na   c Cl   s Buckingham    Buckingham A     20907.738    eV        0.000 12.000
                            Buckingham rho  0.21660000    Ang       
                            Buckingham C     0.0000000    eV*Ang^6  
--------------------------------------------------------------------------------
O    s O    s Buckingham    Buckingham A     35546.853    eV        0.000 12.000
                            Buckingham rho  0.12056000    Ang       
                            Buckingham C     13.190000    eV*Ang^6  
--------------------------------------------------------------------------------
O    s Cl   s Buckingham    Buckingham A     47777.071    eV        0.000 12.000
                            Buckingham rho  0.24370000    Ang       
                            Buckingham C     62.200000    eV*Ang^6  
--------------------------------------------------------------------------------
Cl   s Cl   s Buckingham    Buckingham A     35155.254    eV        0.000 12.000
                            Buckingham rho  0.21360000    Ang       
                            Buckingham C     14.530000    eV*Ang^6  
--------------------------------------------------------------------------------

********************************************************************************
*  Output for configuration   1                                                *
********************************************************************************


  Components of energy : 

--------------------------------------------------------------------------------
  Interatomic potentials     =           1.21745275 eV    
  Monopole - monopole (real) =          -4.50527050 eV    
  Monopole - monopole (recip)=         -13.25862634 eV    
  Monopole - monopole (total)=         -17.76389683 eV    
--------------------------------------------------------------------------------
  Total lattice energy       =         -16.54644409 eV    
--------------------------------------------------------------------------------
  Total lattice energy       =           -1596.4789 kJ/(mole unit cells)
--------------------------------------------------------------------------------


  Number of variables =        1

  Maximum number of calculations  =          1000
  Maximum Hessian update interval =            10
  Maximum step size               =   1.000000000
  Maximum parameter tolerance     =   0.000010000
  Maximum function  tolerance     =   0.000010000
  Maximum gradient  tolerance     =   0.001000000
  Maximum gradient  component     =   0.010000000

  Symmetry constrained optimisation

  Symmetry used for second derivatives

  Cell parameters to be optimised using strains

  Newton-Raphson optimiser to be used

  BFGS hessian update to be used

  Lower half triangular hessian to be used

  Start of bulk optimisation :

  Cycle:      0 Energy:       -16.546444  Gnorm:      2.744113  CPU:    0.066
  ** Hessian calculated **
  Cycle:      1 Energy:       -16.570356  Gnorm:      0.030142  CPU:    0.084
  Cycle:      2 Energy:       -16.570358  Gnorm:      0.003103  CPU:    0.099


  **** Optimisation achieved ****


  Final energy =     -16.57035847 eV
  Final Gnorm  =       0.00000012

  Components of energy : 

--------------------------------------------------------------------------------
  Interatomic potentials     =           1.49654868 eV    
  Monopole - monopole (real) =          -4.58211982 eV    
  Monopole - monopole (recip)=         -13.48478733 eV    
  Monopole - monopole (total)=         -18.06690714 eV    
--------------------------------------------------------------------------------
  Total lattice energy       =         -16.57035847 eV    
--------------------------------------------------------------------------------
  Total lattice energy       =           -1598.7863 kJ/(mole unit cells)
--------------------------------------------------------------------------------

  Final asymmetric unit coordinates :

--------------------------------------------------------------------------------
   No.  Atomic        x           y           z         Radius
        Label       (Frac)      (Frac)      (Frac)       (Angs) 
--------------------------------------------------------------------------------
     1  Cl    c     0.000000    0.000000    0.000000    0.000000
     2  O     c     0.500000    0.500000    0.500000    0.000000
     3  Na    c     0.500000    0.500000    0.000000    0.000000
     4  Cl    s     0.000000    0.000000    0.000000    0.000000
     5  O     s     0.500000    0.500000    0.500000    0.000000
--------------------------------------------------------------------------------

  Final Cartesian lattice vectors (Angstroms) :

        4.428461    0.000000    0.000000
        0.000000    4.428461    0.000000
        0.000000    0.000000    4.428461


  Final cell parameters and derivatives :

--------------------------------------------------------------------------------
       a            4.428461 Angstrom     dE/de1(xx)     0.000000 eV/strain
       b            4.428461 Angstrom     dE/de2(yy)     0.000000 eV/strain
       c            4.428461 Angstrom     dE/de3(zz)     0.000000 eV/strain
       alpha       90.000000 Degrees      dE/de4(yz)     0.000000 eV/strain
       beta        90.000000 Degrees      dE/de5(xz)     0.000000 eV/strain
       gamma       90.000000 Degrees      dE/de6(xy)     0.000000 eV/strain
--------------------------------------------------------------------------------

  Primitive cell volume =            86.847723 Angs**3

  Density of cell =      2.302482 g/cm**3

  Non-primitive cell volume =            86.847723 Angs**3


  Final internal derivatives :

--------------------------------------------------------------------------------
   No.  Atomic          a             b             c           Radius
        Label          (eV)          (eV)          (eV)        (eV/Angs)
--------------------------------------------------------------------------------
      1 Cl    c       0.000000      0.000000      0.000000      0.000000
      2 O     c       0.000000      0.000000      0.000000      0.000000
      3 Na    c       0.000000      0.000000      0.000000      0.000000
      4 Cl    s       0.000000      0.000000      0.000000      0.000000
      5 O     s       0.000000      0.000000      0.000000      0.000000
--------------------------------------------------------------------------------
  Maximum abs         0.000000      0.000000      0.000000      0.000000
--------------------------------------------------------------------------------

  Comparison of initial and final structures : 

--------------------------------------------------------------------------------
  Parameter   Initial value   Final value   Difference    Units      Percent
--------------------------------------------------------------------------------
    Volume        91.368216     86.847723    -4.520493    Angs**3     -4.95
    a              4.504000      4.428461    -0.075539    Angstroms   -1.68
    b              4.504000      4.428461    -0.075539    Angstroms   -1.68
    c              4.504000      4.428461    -0.075539    Angstroms   -1.68
    alpha         90.000000     90.000000     0.000000    Degrees      0.00
    beta          90.000000     90.000000     0.000000    Degrees      0.00
    gamma         90.000000     90.000000     0.000000    Degrees      0.00
      1 x          0.000000      0.000000     0.000000    Fractional   0.00
      1 y          0.000000      0.000000     0.000000    Fractional   0.00
      1 z          0.000000      0.000000     0.000000    Fractional   0.00
      2 x          0.500000      0.500000     0.000000    Fractional   0.00
      2 y          0.500000      0.500000     0.000000    Fractional   0.00
      2 z          0.500000      0.500000     0.000000    Fractional   0.00
      3 x          0.500000      0.500000     0.000000    Fractional   0.00
      3 y          0.500000      0.500000     0.000000    Fractional   0.00
      3 z          0.000000      0.000000     0.000000    Fractional   0.00
      4 x          0.000000      0.000000     0.000000    Fractional   0.00
      4 y          0.000000      0.000000     0.000000    Fractional   0.00
      4 z          0.000000      0.000000     0.000000    Fractional   0.00
      5 x          0.500000      0.500000     0.000000    Fractional   0.00
      5 y          0.500000      0.500000     0.000000    Fractional   0.00
      5 z          0.500000      0.500000     0.000000    Fractional   0.00
--------------------------------------------------------------------------------


  Born effective charge tensors : 

-------------------------------------------------------------------------------
  Atom             x           y             z
-------------------------------------------------------------------------------
    1 Cl    x      -0.6995     -0.0000     -0.0000
            y      -0.0000     -0.6995     -0.0000
            z      -0.0000     -0.0000     -0.6995
-------------------------------------------------------------------------------
    2 O     x      -1.0805      0.0000      0.0000
            y       0.0000     -1.0805      0.0000
            z       0.0000      0.0000     -1.0805
-------------------------------------------------------------------------------
    3 Na    x       0.6486      0.0000     -0.0000
            y       0.0000      0.6486      0.0000
            z      -0.0000      0.0000      0.4827
-------------------------------------------------------------------------------




  Elastic Constant Matrix: (Units=GPa)

-------------------------------------------------------------------------------
  Indices      1         2         3         4         5         6    
-------------------------------------------------------------------------------
       1     77.0757   16.0262   16.0262   -0.0000   -0.0000   -0.0000
       2     16.0262   77.0757   16.0262   -0.0000   -0.0000    0.0000
       3     16.0262   16.0262   77.0757    0.0000    0.0000    0.0000
       4     -0.0000   -0.0000    0.0000   16.0262    0.0000   -0.0000
       5     -0.0000   -0.0000    0.0000    0.0000   16.0262   -0.0000
       6     -0.0000    0.0000    0.0000   -0.0000   -0.0000   16.0262
-------------------------------------------------------------------------------


  Elastic Compliance Matrix: (Units=1/GPa)

-------------------------------------------------------------------------------
  Indices      1         2         3         4         5         6    
-------------------------------------------------------------------------------
       1    0.013975 -0.002406 -0.002406  0.000000  0.000000  0.000000
       2   -0.002406  0.013975 -0.002406  0.000000  0.000000 -0.000000
       3   -0.002406 -0.002406  0.013975 -0.000000 -0.000000 -0.000000
       4    0.000000  0.000000 -0.000000  0.062398 -0.000000  0.000000
       5    0.000000  0.000000 -0.000000 -0.000000  0.062398  0.000000
       6    0.000000 -0.000000 -0.000000  0.000000  0.000000  0.062398
-------------------------------------------------------------------------------

  Mechanical properties :

-------------------------------------------------------------------------------
  Convention :                    Reuss         Voigt         Hill
-------------------------------------------------------------------------------
  Bulk  Modulus (GPa)     =      36.37603      36.37603      36.37603
  Shear Modulus (GPa)     =      19.78520      21.82562      20.80541
-------------------------------------------------------------------------------
  Velocity S-wave (km/s)  =       2.93138       3.07883       3.00601
  Velocity P-wave (km/s)  =       5.22072       5.33268       5.27700
-------------------------------------------------------------------------------
  Compressibility (1/GPa) =    0.02749063
-------------------------------------------------------------------------------
  Stress axis :                     x             y             z
-------------------------------------------------------------------------------
  Youngs Moduli (GPa)     =      71.55833      71.55833      71.55833
-------------------------------------------------------------------------------
  Poissons Ratio (x)      =                     0.17214       0.17214
  Poissons Ratio (y)      =       0.17214                     0.17214
  Poissons Ratio (z)      =       0.17214       0.17214
-------------------------------------------------------------------------------


  Piezoelectric Strain Matrix: (Units=C/m**2)

-------------------------------------------------------------------------------
  Indices      1         2         3         4         5         6    
-------------------------------------------------------------------------------
       x    -0.00000  -0.00000  -0.00000  -0.00000  -0.00000   0.00000
       y     0.00000   0.00000   0.00000  -0.00000  -0.00000  -0.00000
       z     0.00000   0.00000  -0.00000   0.00000  -0.00000  -0.00000
-------------------------------------------------------------------------------


  Piezoelectric Stress Matrix: (Units=10**-11 C/N)

-------------------------------------------------------------------------------
  Indices      1         2         3         4         5         6    
-------------------------------------------------------------------------------
       x    -0.00000  -0.00000  -0.00000  -0.00000  -0.00000   0.00000
       y     0.00000   0.00000   0.00000  -0.00000  -0.00000  -0.00000
       z     0.00000   0.00000  -0.00000   0.00000  -0.00000  -0.00000
-------------------------------------------------------------------------------


  Static dielectric constant tensor : 

-------------------------------------------------------------------------------
              x         y         z
-------------------------------------------------------------------------------
       x     5.77918   0.00000   0.00000
       y     0.00000   5.77918   0.00000
       z     0.00000   0.00000   5.77918
--------------------------------------------------------------------------------

  High frequency dielectric constant tensor : 

-------------------------------------------------------------------------------
              x         y         z
-------------------------------------------------------------------------------
       x     1.30980  -0.00000  -0.00000
       y    -0.00000   1.30980  -0.00000
       z    -0.00000  -0.00000   1.30980
-------------------------------------------------------------------------------

  Static refractive indices : 

-------------------------------------------------------------------------------
    1 =    2.40399      2 =    2.40399      3 =    2.40399
-------------------------------------------------------------------------------

  High frequency refractive indices : 

-------------------------------------------------------------------------------
    1 =    1.14447      2 =    1.14447      3 =    1.14447
-------------------------------------------------------------------------------


  Time to end of optimisation =       0.1176 seconds

********************************************************************************
*  Defect calculation for configuration   1 :                                  *
********************************************************************************

  Total number of defects =      3

  Total charge on defect  =  -0.67

  Defect centre is at   0.5000   0.2500   0.2500  Frac

  Region 1 radius =  12.0000      Number of ions =    575

  Number of symmetry inequivalent region 1 ions  =    331

  Region 2 radius =  16.0000      Number of ions =    818

  Number of symmetry inequivalent region 2a ions =    447

  Region 2a mode = 4 : screened electrostatics due to region 1 
                       neglect correction to region 1 forces from 2a
                       region 2a displacements based on defects only

  Region 2a ions will only interact with defects in region 1

  Vacancies:

--------------------------------------------------------------------------------
    Specification type     Symbol/Number         x          y          z
--------------------------------------------------------------------------------
    Fractional                               0.500000   0.500000   0.000000
    Fractional                               0.500000   0.000000   0.500000
--------------------------------------------------------------------------------

  Interstitials:

--------------------------------------------------------------------------------
    Specification type     Symbol/Number         x          y          z
--------------------------------------------------------------------------------
    Atom/Fractional         Na               0.500000   0.190000   0.310000
--------------------------------------------------------------------------------


  Symmetry reduced region 1 (Relative to defect centre) :

--------------------------------------------------------------------------------
   No.   Atomic       x            y             z       Radius  Multiplicity   
         Label      (Angs)       (Angs)        (Angs)    (Angs)     
--------------------------------------------------------------------------------
     1  Na    c      0.0000      -0.2657       0.2657    0.0000     1    Defect
     2  O     c      0.0000       1.1071 *     1.1071 *  0.0000     1          
     3  Cl    c      2.2142 *    -1.1071 *    -1.1071 *  0.0000     2          
     4  Na    c      2.2142 *     1.1071 *     1.1071 *  0.0000     2          
     5  O     c      0.0000       1.1071 *    -3.3213 *  0.0000     1          
     6  O     c      0.0000      -3.3213 *     1.1071 *  0.0000     1          
     7  Na    c      0.0000       1.1071 *     3.3213 *  0.0000     1          
     8  Na    c      0.0000      -3.3213 *    -1.1071 *  0.0000     1          
     9  Na    c      0.0000      -1.1071 *    -3.3213 *  0.0000     1          
    10  Na    c      0.0000       3.3213 *     1.1071 *  0.0000     1          
    11  Cl    c      2.2142 *    -1.1071 *     3.3213 *  0.0000     2          
    12  Cl    c      2.2142 *     3.3213 *    -1.1071 *  0.0000     2          
    13  Na    c      2.2142 *     1.1071 *    -3.3213 *  0.0000     2          
    14  Na    c      2.2142 *    -3.3213 *     1.1071 *  0.0000     2          
    15  O     c      4.4285 *     1.1071 *     1.1071 *  0.0000     2          
    16  Na    c      4.4285 *     1.1071 *    -1.1071 *  0.0000     2          
    17  Na    c      4.4285 *    -1.1071 *     1.1071 *  0.0000     2          
    18  O     c      0.0000      -3.3213 *    -3.3213 *  0.0000     1          
    19  Na    c      0.0000      -3.3213 *     3.3213 *  0.0000     1          
    20  Na    c      0.0000       3.3213 *    -3.3213 *  0.0000     1          
    21  Cl    c      2.2142 *     3.3213 *     3.3213 *  0.0000     2          
    22  Na    c      2.2142 *    -3.3213 *    -3.3213 *  0.0000     2          
    23  O     c      4.4285 *     1.1071 *    -3.3213 *  0.0000     2          
    24  Na    c      4.4285 *     1.1071 *     3.3213 *  0.0000     2          
    25  Na    c      4.4285 *    -1.1071 *    -3.3213 *  0.0000     2          
    26  O     c      4.4285 *    -3.3213 *     1.1071 *  0.0000     2          
    27  Na    c      4.4285 *    -3.3213 *    -1.1071 *  0.0000     2          
    28  Na    c      4.4285 *     3.3213 *     1.1071 *  0.0000     2          
    29  O     c      0.0000       1.1071 *     5.5356 *  0.0000     1          
    30  O     c      0.0000       5.5356 *     1.1071 *  0.0000     1          
    31  Na    c      0.0000       1.1071 *    -5.5356 *  0.0000     1          
    32  Na    c      0.0000       5.5356 *    -1.1071 *  0.0000     1          
    33  Na    c      0.0000      -1.1071 *     5.5356 *  0.0000     1          
    34  Na    c      0.0000      -5.5356 *     1.1071 *  0.0000     1          
    35  Cl    c      2.2142 *    -1.1071 *    -5.5356 *  0.0000     2          
    36  Cl    c      2.2142 *    -5.5356 *    -1.1071 *  0.0000     2          
    37  Na    c      2.2142 *     1.1071 *     5.5356 *  0.0000     2          
    38  Na    c      2.2142 *     5.5356 *     1.1071 *  0.0000     2          
    39  O     c      0.0000       5.5356 *    -3.3213 *  0.0000     1          
    40  O     c      0.0000      -3.3213 *     5.5356 *  0.0000     1          
    41  O     c      4.4285 *    -3.3213 *    -3.3213 *  0.0000     2          
    42  Na    c      0.0000       5.5356 *     3.3213 *  0.0000     1          
    43  Na    c      0.0000      -3.3213 *    -5.5356 *  0.0000     1          
    44  Na    c      4.4285 *    -3.3213 *     3.3213 *  0.0000     2          
    45  Na    c      0.0000       3.3213 *     5.5356 *  0.0000     1          
    46  Na    c      0.0000      -5.5356 *    -3.3213 *  0.0000     1          
    47  Na    c      4.4285 *     3.3213 *    -3.3213 *  0.0000     2          
    48  Cl    c      2.2142 *     3.3213 *    -5.5356 *  0.0000     2          
    49  Cl    c      6.6427 *    -1.1071 *    -1.1071 *  0.0000     2          
    50  Na    c      2.2142 *    -3.3213 *     5.5356 *  0.0000     2          
    51  Na    c      6.6427 *     1.1071 *     1.1071 *  0.0000     2          
    52  Cl    c      2.2142 *    -5.5356 *     3.3213 *  0.0000     2          
    53  Na    c      2.2142 *     5.5356 *    -3.3213 *  0.0000     2          
    54  O     c      4.4285 *     1.1071 *     5.5356 *  0.0000     2          
    55  O     c      4.4285 *     5.5356 *     1.1071 *  0.0000     2          
    56  Na    c      4.4285 *     1.1071 *    -5.5356 *  0.0000     2          
    57  Na    c      4.4285 *     5.5356 *    -1.1071 *  0.0000     2          
    58  Na    c      4.4285 *    -1.1071 *     5.5356 *  0.0000     2          
    59  Na    c      4.4285 *    -5.5356 *     1.1071 *  0.0000     2          
    60  Cl    c      6.6427 *     3.3213 *    -1.1071 *  0.0000     2          
    61  Na    c      6.6427 *    -3.3213 *     1.1071 *  0.0000     2          
    62  Cl    c      6.6427 *    -1.1071 *     3.3213 *  0.0000     2          
    63  Na    c      6.6427 *     1.1071 *    -3.3213 *  0.0000     2          
    64  O     c      0.0000       1.1071 *    -7.7498 *  0.0000     1          
    65  O     c      0.0000      -7.7498 *     1.1071 *  0.0000     1          
    66  Na    c      0.0000       1.1071 *     7.7498 *  0.0000     1          
    67  Na    c      0.0000      -7.7498 *    -1.1071 *  0.0000     1          
    68  Na    c      0.0000      -1.1071 *    -7.7498 *  0.0000     1          
    69  Na    c      0.0000       7.7498 *     1.1071 *  0.0000     1          
    70  O     c      4.4285 *    -3.3213 *     5.5356 *  0.0000     2          
    71  Na    c      4.4285 *    -3.3213 *    -5.5356 *  0.0000     2          
    72  Na    c      4.4285 *     3.3213 *     5.5356 *  0.0000     2          
    73  O     c      0.0000       5.5356 *     5.5356 *  0.0000     1          
    74  O     c      4.4285 *     5.5356 *    -3.3213 *  0.0000     2          
    75  Na    c      0.0000       5.5356 *    -5.5356 *  0.0000     1          
    76  Na    c      4.4285 *     5.5356 *     3.3213 *  0.0000     2          
    77  Na    c      0.0000      -5.5356 *     5.5356 *  0.0000     1          
    78  Na    c      4.4285 *    -5.5356 *    -3.3213 *  0.0000     2          
    79  Cl    c      2.2142 *    -1.1071 *     7.7498 *  0.0000     2          
    80  Cl    c      2.2142 *     7.7498 *    -1.1071 *  0.0000     2          
    81  Na    c      2.2142 *     1.1071 *    -7.7498 *  0.0000     2          
    82  Na    c      2.2142 *    -7.7498 *     1.1071 *  0.0000     2          
    83  Cl    c      6.6427 *     3.3213 *     3.3213 *  0.0000     2          
    84  Na    c      6.6427 *    -3.3213 *    -3.3213 *  0.0000     2          
    85  Cl    c      2.2142 *    -5.5356 *    -5.5356 *  0.0000     2          
    86  Na    c      2.2142 *     5.5356 *     5.5356 *  0.0000     2          
    87  O     c      0.0000      -3.3213 *    -7.7498 *  0.0000     1          
    88  O     c      0.0000      -7.7498 *    -3.3213 *  0.0000     1          
    89  Na    c      0.0000      -3.3213 *     7.7498 *  0.0000     1          
    90  Na    c      0.0000      -7.7498 *     3.3213 *  0.0000     1          
    91  Na    c      0.0000       3.3213 *    -7.7498 *  0.0000     1          
    92  Na    c      0.0000       7.7498 *    -3.3213 *  0.0000     1          
    93  Cl    c      2.2142 *     3.3213 *     7.7498 *  0.0000     2          
    94  Cl    c      2.2142 *     7.7498 *     3.3213 *  0.0000     2          
    95  Na    c      2.2142 *    -3.3213 *    -7.7498 *  0.0000     2          
    96  Na    c      2.2142 *    -7.7498 *    -3.3213 *  0.0000     2          
    97  Cl    c      6.6427 *    -5.5356 *    -1.1071 *  0.0000     2          
    98  Na    c      6.6427 *     5.5356 *     1.1071 *  0.0000     2          
    99  Cl    c      6.6427 *    -1.1071 *    -5.5356 *  0.0000     2          
   100  Na    c      6.6427 *     1.1071 *     5.5356 *  0.0000     2          
   101  O     c      4.4285 *     1.1071 *    -7.7498 *  0.0000     2          
   102  O     c      4.4285 *    -7.7498 *     1.1071 *  0.0000     2          
   103  O     c      8.8569 *     1.1071 *     1.1071 *  0.0000     2          
   104  Na    c      4.4285 *     1.1071 *     7.7498 *  0.0000     2          
   105  Na    c      4.4285 *    -7.7498 *    -1.1071 *  0.0000     2          
   106  Na    c      8.8569 *     1.1071 *    -1.1071 *  0.0000     2          
   107  Na    c      4.4285 *    -1.1071 *    -7.7498 *  0.0000     2          
   108  Na    c      4.4285 *     7.7498 *     1.1071 *  0.0000     2          
   109  Na    c      8.8569 *    -1.1071 *     1.1071 *  0.0000     2          
   110  O     c      4.4285 *     5.5356 *     5.5356 *  0.0000     2          
   111  Na    c      4.4285 *     5.5356 *    -5.5356 *  0.0000     2          
   112  Na    c      4.4285 *    -5.5356 *     5.5356 *  0.0000     2          
   113  Cl    c      6.6427 *    -5.5356 *     3.3213 *  0.0000     2          
   114  Na    c      6.6427 *     5.5356 *    -3.3213 *  0.0000     2          
   115  Cl    c      6.6427 *     3.3213 *    -5.5356 *  0.0000     2          
   116  Na    c      6.6427 *    -3.3213 *     5.5356 *  0.0000     2          
   117  O     c      4.4285 *    -3.3213 *    -7.7498 *  0.0000     2          
   118  O     c      4.4285 *    -7.7498 *    -3.3213 *  0.0000     2          
   119  O     c      8.8569 *     1.1071 *    -3.3213 *  0.0000     2          
   120  O     c      8.8569 *    -3.3213 *     1.1071 *  0.0000     2          
   121  Na    c      4.4285 *    -3.3213 *     7.7498 *  0.0000     2          
   122  Na    c      4.4285 *    -7.7498 *     3.3213 *  0.0000     2          
   123  Na    c      8.8569 *     1.1071 *     3.3213 *  0.0000     2          
   124  Na    c      8.8569 *    -3.3213 *    -1.1071 *  0.0000     2          
   125  Na    c      4.4285 *     3.3213 *    -7.7498 *  0.0000     2          
   126  Na    c      4.4285 *     7.7498 *    -3.3213 *  0.0000     2          
   127  Na    c      8.8569 *    -1.1071 *    -3.3213 *  0.0000     2          
   128  Na    c      8.8569 *     3.3213 *     1.1071 *  0.0000     2          
   129  O     c      0.0000       5.5356 *    -7.7498 *  0.0000     1          
   130  O     c      0.0000      -7.7498 *     5.5356 *  0.0000     1          
   131  Na    c      0.0000       5.5356 *     7.7498 *  0.0000     1          
   132  Na    c      0.0000      -7.7498 *    -5.5356 *  0.0000     1          
   133  Na    c      0.0000       7.7498 *     5.5356 *  0.0000     1          
   134  Na    c      0.0000      -5.5356 *    -7.7498 *  0.0000     1          
   135  Cl    c      2.2142 *     7.7498 *    -5.5356 *  0.0000     2          
   136  Cl    c      2.2142 *    -5.5356 *     7.7498 *  0.0000     2          
   137  Na    c      2.2142 *     5.5356 *    -7.7498 *  0.0000     2          
   138  Na    c      2.2142 *    -7.7498 *     5.5356 *  0.0000     2          
   139  O     c      8.8569 *    -3.3213 *    -3.3213 *  0.0000     2          
   140  Na    c      8.8569 *    -3.3213 *     3.3213 *  0.0000     2          
   141  Na    c      8.8569 *     3.3213 *    -3.3213 *  0.0000     2          
   142  O     c      0.0000       1.1071 *     9.9640 *  0.0000     1          
   143  O     c      0.0000       9.9640 *     1.1071 *  0.0000     1          
   144  Na    c      0.0000       1.1071 *    -9.9640 *  0.0000     1          
   145  Na    c      0.0000       9.9640 *    -1.1071 *  0.0000     1          
   146  Na    c      0.0000      -1.1071 *     9.9640 *  0.0000     1          
   147  Na    c      0.0000      -9.9640 *     1.1071 *  0.0000     1          
   148  Cl    c      2.2142 *    -1.1071 *    -9.9640 *  0.0000     2          
   149  Cl    c      2.2142 *    -9.9640 *    -1.1071 *  0.0000     2          
   150  Cl    c      6.6427 *    -1.1071 *     7.7498 *  0.0000     2          
   151  Cl    c      6.6427 *     7.7498 *    -1.1071 *  0.0000     2          
   152  Na    c      2.2142 *     1.1071 *     9.9640 *  0.0000     2          
   153  Na    c      2.2142 *     9.9640 *     1.1071 *  0.0000     2          
   154  Na    c      6.6427 *     1.1071 *    -7.7498 *  0.0000     2          
   155  Na    c      6.6427 *    -7.7498 *     1.1071 *  0.0000     2          
   156  Cl    c      6.6427 *    -5.5356 *    -5.5356 *  0.0000     2          
   157  Na    c      6.6427 *     5.5356 *     5.5356 *  0.0000     2          
   158  O     c      0.0000       9.9640 *    -3.3213 *  0.0000     1          
   159  O     c      0.0000      -3.3213 *     9.9640 *  0.0000     1          
   160  O     c      4.4285 *     5.5356 *    -7.7498 *  0.0000     2          
   161  O     c      4.4285 *    -7.7498 *     5.5356 *  0.0000     2          
   162  O     c      8.8569 *     1.1071 *     5.5356 *  0.0000     2          
   163  O     c      8.8569 *     5.5356 *     1.1071 *  0.0000     2          
   164  Na    c      0.0000       9.9640 *     3.3213 *  0.0000     1          
   165  Na    c      0.0000      -3.3213 *    -9.9640 *  0.0000     1          
   166  Na    c      4.4285 *     5.5356 *     7.7498 *  0.0000     2          
   167  Na    c      4.4285 *    -7.7498 *    -5.5356 *  0.0000     2          
   168  Na    c      8.8569 *     1.1071 *    -5.5356 *  0.0000     2          
   169  Na    c      8.8569 *     5.5356 *    -1.1071 *  0.0000     2          
   170  Na    c      0.0000       3.3213 *     9.9640 *  0.0000     1          
   171  Na    c      0.0000      -9.9640 *    -3.3213 *  0.0000     1          
   172  Na    c      4.4285 *     7.7498 *     5.5356 *  0.0000     2          
   173  Na    c      4.4285 *    -5.5356 *    -7.7498 *  0.0000     2          
   174  Na    c      8.8569 *    -1.1071 *     5.5356 *  0.0000     2          
   175  Na    c      8.8569 *    -5.5356 *     1.1071 *  0.0000     2          
   176  Cl    c      2.2142 *     3.3213 *    -9.9640 *  0.0000     2          
   177  Cl    c      2.2142 *    -9.9640 *     3.3213 *  0.0000     2          
   178  Cl    c      6.6427 *     3.3213 *     7.7498 *  0.0000     2          
   179  Cl    c      6.6427 *     7.7498 *     3.3213 *  0.0000     2          
   180  Na    c      2.2142 *     9.9640 *    -3.3213 *  0.0000     2          
   181  Na    c      2.2142 *    -3.3213 *     9.9640 *  0.0000     2          
   182  Na    c      6.6427 *    -3.3213 *    -7.7498 *  0.0000     2          
   183  Na    c      6.6427 *    -7.7498 *    -3.3213 *  0.0000     2          
   184  O     c      0.0000      -7.7498 *    -7.7498 *  0.0000     1          
   185  Na    c      0.0000      -7.7498 *     7.7498 *  0.0000     1          
   186  Na    c      0.0000       7.7498 *    -7.7498 *  0.0000     1          
   187  O     c      4.4285 *     1.1071 *     9.9640 *  0.0000     2          
   188  O     c      4.4285 *     9.9640 *     1.1071 *  0.0000     2          
   189  O     c      8.8569 *     5.5356 *    -3.3213 *  0.0000     2          
   190  O     c      8.8569 *    -3.3213 *     5.5356 *  0.0000     2          
   191  Na    c      4.4285 *     1.1071 *    -9.9640 *  0.0000     2          
   192  Na    c      4.4285 *     9.9640 *    -1.1071 *  0.0000     2          
   193  Na    c      8.8569 *     5.5356 *     3.3213 *  0.0000     2          
   194  Na    c      8.8569 *    -3.3213 *    -5.5356 *  0.0000     2          
   195  Na    c      4.4285 *    -1.1071 *     9.9640 *  0.0000     2          
   196  Na    c      4.4285 *    -9.9640 *     1.1071 *  0.0000     2          
   197  Na    c      8.8569 *     3.3213 *     5.5356 *  0.0000     2          
   198  Na    c      8.8569 *    -5.5356 *    -3.3213 *  0.0000     2          
   199  Cl    c      2.2142 *     7.7498 *     7.7498 *  0.0000     2          
   200  Na    c      2.2142 *    -7.7498 *    -7.7498 *  0.0000     2          
   201  Cl    c     11.0712 *    -1.1071 *    -1.1071 *  0.0000     2          
   202  Na    c     11.0712 *     1.1071 *     1.1071 *  0.0000     2          
   203  O     c      0.0000       5.5356 *     9.9640 *  0.0000     1          
   204  O     c      0.0000       9.9640 *     5.5356 *  0.0000     1          
   205  O     c      4.4285 *     9.9640 *    -3.3213 *  0.0000     2          
   206  O     c      4.4285 *    -3.3213 *     9.9640 *  0.0000     2          
   207  Na    c      0.0000       5.5356 *    -9.9640 *  0.0000     1          
   208  Na    c      0.0000       9.9640 *    -5.5356 *  0.0000     1          
   209  Na    c      4.4285 *     9.9640 *     3.3213 *  0.0000     2          
   210  Na    c      4.4285 *    -3.3213 *    -9.9640 *  0.0000     2          
   211  Na    c      0.0000      -5.5356 *     9.9640 *  0.0000     1          
   212  Na    c      0.0000      -9.9640 *     5.5356 *  0.0000     1          
   213  Na    c      4.4285 *     3.3213 *     9.9640 *  0.0000     2          
   214  Na    c      4.4285 *    -9.9640 *    -3.3213 *  0.0000     2          
   215  Cl    c      2.2142 *    -5.5356 *    -9.9640 *  0.0000     2          
   216  Cl    c      2.2142 *    -9.9640 *    -5.5356 *  0.0000     2          
   217  Cl    c      6.6427 *     7.7498 *    -5.5356 *  0.0000     2          
   218  Cl    c      6.6427 *    -5.5356 *     7.7498 *  0.0000     2          
   219  Na    c      2.2142 *     5.5356 *     9.9640 *  0.0000     2          
   220  Na    c      2.2142 *     9.9640 *     5.5356 *  0.0000     2          
   221  Na    c      6.6427 *     5.5356 *    -7.7498 *  0.0000     2          
   222  Na    c      6.6427 *    -7.7498 *     5.5356 *  0.0000     2          
   223  Cl    c     11.0712 *    -1.1071 *     3.3213 *  0.0000     2          
   224  Cl    c     11.0712 *     3.3213 *    -1.1071 *  0.0000     2          
   225  Na    c     11.0712 *     1.1071 *    -3.3213 *  0.0000     2          
   226  Na    c     11.0712 *    -3.3213 *     1.1071 *  0.0000     2          
   227  O     c      4.4285 *    -7.7498 *    -7.7498 *  0.0000     2          
   228  O     c      8.8569 *     1.1071 *    -7.7498 *  0.0000     2          
   229  O     c      8.8569 *    -7.7498 *     1.1071 *  0.0000     2          
   230  Na    c      4.4285 *    -7.7498 *     7.7498 *  0.0000     2          
   231  Na    c      8.8569 *     1.1071 *     7.7498 *  0.0000     2          
   232  Na    c      8.8569 *    -7.7498 *    -1.1071 *  0.0000     2          
   233  Na    c      4.4285 *     7.7498 *    -7.7498 *  0.0000     2          
   234  Na    c      8.8569 *    -1.1071 *    -7.7498 *  0.0000     2          
   235  Na    c      8.8569 *     7.7498 *     1.1071 *  0.0000     2          
   236  O     c      8.8569 *     5.5356 *     5.5356 *  0.0000     2          
   237  Na    c      8.8569 *     5.5356 *    -5.5356 *  0.0000     2          
   238  Na    c      8.8569 *    -5.5356 *     5.5356 *  0.0000     2          
   239  O     s      0.0000       1.1071 *     1.1071 *  0.0000     1          
   240  Cl    s      2.2142 *    -1.1071 *    -1.1071 *  0.0000     2          
   241  O     s      0.0000       1.1071 *    -3.3213 *  0.0000     1          
   242  O     s      0.0000      -3.3213 *     1.1071 *  0.0000     1          
   243  Cl    s      2.2142 *    -1.1071 *     3.3213 *  0.0000     2          
   244  Cl    s      2.2142 *     3.3213 *    -1.1071 *  0.0000     2          
   245  O     s      4.4285 *     1.1071 *     1.1071 *  0.0000     2          
   246  O     s      0.0000      -3.3213 *    -3.3213 *  0.0000     1          
   247  Cl    s      2.2142 *     3.3213 *     3.3213 *  0.0000     2          
   248  O     s      4.4285 *     1.1071 *    -3.3213 *  0.0000     2          
   249  O     s      4.4285 *    -3.3213 *     1.1071 *  0.0000     2          
   250  O     s      0.0000       1.1071 *     5.5356 *  0.0000     1          
   251  O     s      0.0000       5.5356 *     1.1071 *  0.0000     1          
   252  Cl    s      2.2142 *    -1.1071 *    -5.5356 *  0.0000     2          
   253  Cl    s      2.2142 *    -5.5356 *    -1.1071 *  0.0000     2          
   254  O     s      0.0000       5.5356 *    -3.3213 *  0.0000     1          
   255  O     s      0.0000      -3.3213 *     5.5356 *  0.0000     1          
   256  O     s      4.4285 *    -3.3213 *    -3.3213 *  0.0000     2          
   257  Cl    s      2.2142 *     3.3213 *    -5.5356 *  0.0000     2          
   258  Cl    s      6.6427 *    -1.1071 *    -1.1071 *  0.0000     2          
   259  Cl    s      2.2142 *    -5.5356 *     3.3213 *  0.0000     2          
   260  O     s      4.4285 *     1.1071 *     5.5356 *  0.0000     2          
   261  O     s      4.4285 *     5.5356 *     1.1071 *  0.0000     2          
   262  Cl    s      6.6427 *     3.3213 *    -1.1071 *  0.0000     2          
   263  Cl    s      6.6427 *    -1.1071 *     3.3213 *  0.0000     2          
   264  O     s      0.0000       1.1071 *    -7.7498 *  0.0000     1          
   265  O     s      0.0000      -7.7498 *     1.1071 *  0.0000     1          
   266  O     s      4.4285 *    -3.3213 *     5.5356 *  0.0000     2          
   267  O     s      0.0000       5.5356 *     5.5356 *  0.0000     1          
   268  O     s      4.4285 *     5.5356 *    -3.3213 *  0.0000     2          
   269  Cl    s      2.2142 *    -1.1071 *     7.7498 *  0.0000     2          
   270  Cl    s      2.2142 *     7.7498 *    -1.1071 *  0.0000     2          
   271  Cl    s      6.6427 *     3.3213 *     3.3213 *  0.0000     2          
   272  Cl    s      2.2142 *    -5.5356 *    -5.5356 *  0.0000     2          
   273  O     s      0.0000      -3.3213 *    -7.7498 *  0.0000     1          
   274  O     s      0.0000      -7.7498 *    -3.3213 *  0.0000     1          
   275  Cl    s      2.2142 *     3.3213 *     7.7498 *  0.0000     2          
   276  Cl    s      2.2142 *     7.7498 *     3.3213 *  0.0000     2          
   277  Cl    s      6.6427 *    -5.5356 *    -1.1071 *  0.0000     2          
   278  Cl    s      6.6427 *    -1.1071 *    -5.5356 *  0.0000     2          
   279  O     s      4.4285 *     1.1071 *    -7.7498 *  0.0000     2          
   280  O     s      4.4285 *    -7.7498 *     1.1071 *  0.0000     2          
   281  O     s      8.8569 *     1.1071 *     1.1071 *  0.0000     2          
   282  O     s      4.4285 *     5.5356 *     5.5356 *  0.0000     2          
   283  Cl    s      6.6427 *    -5.5356 *     3.3213 *  0.0000     2          
   284  Cl    s      6.6427 *     3.3213 *    -5.5356 *  0.0000     2          
   285  O     s      4.4285 *    -3.3213 *    -7.7498 *  0.0000     2          
   286  O     s      4.4285 *    -7.7498 *    -3.3213 *  0.0000     2          
   287  O     s      8.8569 *     1.1071 *    -3.3213 *  0.0000     2          
   288  O     s      8.8569 *    -3.3213 *     1.1071 *  0.0000     2          
   289  O     s      0.0000       5.5356 *    -7.7498 *  0.0000     1          
   290  O     s      0.0000      -7.7498 *     5.5356 *  0.0000     1          
   291  Cl    s      2.2142 *     7.7498 *    -5.5356 *  0.0000     2          
   292  Cl    s      2.2142 *    -5.5356 *     7.7498 *  0.0000     2          
   293  O     s      8.8569 *    -3.3213 *    -3.3213 *  0.0000     2          
   294  O     s      0.0000       1.1071 *     9.9640 *  0.0000     1          
   295  O     s      0.0000       9.9640 *     1.1071 *  0.0000     1          
   296  Cl    s      2.2142 *    -1.1071 *    -9.9640 *  0.0000     2          
   297  Cl    s      2.2142 *    -9.9640 *    -1.1071 *  0.0000     2          
   298  Cl    s      6.6427 *    -1.1071 *     7.7498 *  0.0000     2          
   299  Cl    s      6.6427 *     7.7498 *    -1.1071 *  0.0000     2          
   300  Cl    s      6.6427 *    -5.5356 *    -5.5356 *  0.0000     2          
   301  O     s      0.0000       9.9640 *    -3.3213 *  0.0000     1          
   302  O     s      0.0000      -3.3213 *     9.9640 *  0.0000     1          
   303  O     s      4.4285 *     5.5356 *    -7.7498 *  0.0000     2          
   304  O     s      4.4285 *    -7.7498 *     5.5356 *  0.0000     2          
   305  O     s      8.8569 *     1.1071 *     5.5356 *  0.0000     2          
   306  O     s      8.8569 *     5.5356 *     1.1071 *  0.0000     2          
   307  Cl    s      2.2142 *     3.3213 *    -9.9640 *  0.0000     2          
   308  Cl    s      2.2142 *    -9.9640 *     3.3213 *  0.0000     2          
   309  Cl    s      6.6427 *     3.3213 *     7.7498 *  0.0000     2          
   310  Cl    s      6.6427 *     7.7498 *     3.3213 *  0.0000     2          
   311  O     s      0.0000      -7.7498 *    -7.7498 *  0.0000     1          
   312  O     s      4.4285 *     1.1071 *     9.9640 *  0.0000     2          
   313  O     s      4.4285 *     9.9640 *     1.1071 *  0.0000     2          
   314  O     s      8.8569 *     5.5356 *    -3.3213 *  0.0000     2          
   315  O     s      8.8569 *    -3.3213 *     5.5356 *  0.0000     2          
   316  Cl    s      2.2142 *     7.7498 *     7.7498 *  0.0000     2          
   317  Cl    s     11.0712 *    -1.1071 *    -1.1071 *  0.0000     2          
   318  O     s      0.0000       5.5356 *     9.9640 *  0.0000     1          
   319  O     s      0.0000       9.9640 *     5.5356 *  0.0000     1          
   320  O     s      4.4285 *     9.9640 *    -3.3213 *  0.0000     2          
   321  O     s      4.4285 *    -3.3213 *     9.9640 *  0.0000     2          
   322  Cl    s      2.2142 *    -5.5356 *    -9.9640 *  0.0000     2          
   323  Cl    s      2.2142 *    -9.9640 *    -5.5356 *  0.0000     2          
   324  Cl    s      6.6427 *     7.7498 *    -5.5356 *  0.0000     2          
   325  Cl    s      6.6427 *    -5.5356 *     7.7498 *  0.0000     2          
   326  Cl    s     11.0712 *    -1.1071 *     3.3213 *  0.0000     2          
   327  Cl    s     11.0712 *     3.3213 *    -1.1071 *  0.0000     2          
   328  O     s      4.4285 *    -7.7498 *    -7.7498 *  0.0000     2          
   329  O     s      8.8569 *     1.1071 *    -7.7498 *  0.0000     2          
   330  O     s      8.8569 *    -7.7498 *     1.1071 *  0.0000     2          
   331  O     s      8.8569 *     5.5356 *     5.5356 *  0.0000     2          
--------------------------------------------------------------------------------

  Components of defect energy : 

--------------------------------------------------------------------------------
  Region 1 - region 1                   =      6.72722983 eV
  Region 1 - region 2a (unrelaxed)      =     -0.01092733 eV
  Region 1 - 2a (relaxed - correction)  =     -0.11662325 eV
  Region 1 (Total)                      =      6.59967925 eV
  Region 2a                             =      0.05829132 eV
  Region 2b                             =     -0.16626433 eV
--------------------------------------------------------------------------------
  Total defect energy                   =      6.49170624 eV
--------------------------------------------------------------------------------

  Largest displacement in region 2 =   0.0181 Angstroms


  Number of variables =      904

  Maximum number of calculations  =        1000
  Maximum Hessian update interval =          10
  Maximum step size               =   1.0000000
  Maximum parameter tolerance     =   0.0000100
  Maximum function  tolerance     =   0.0000100
  Maximum gradient  tolerance     =   0.0010000

  Symmetry adapted optimisation

  Symmetry to be used for second derivatives

  Newton-Raphson optimiser to be used

  BFGS hessian update to be used

  Lower half triangular hessian to be used

  Start of defect optimisation :

  Cycle:      0 Defect Energy:   6.491706  Gnorm:     0.020860  CPU:    3.405
  ** Hessian calculated **
  Cycle:      1 Defect Energy:   5.418474  Gnorm:     0.016559  CPU:    9.530
  Cycle:      2 Defect Energy:   3.918996  Gnorm:     0.009413  CPU:   14.689
  Cycle:      3 Defect Energy:   3.441841  Gnorm:     0.005977  CPU:   19.610
  ** Hessian calculated **
  Cycle:      4 Defect Energy:   3.207567  Gnorm:     0.003252  CPU:   24.469
  Cycle:      5 Defect Energy:   3.125094  Gnorm:     0.002632  CPU:   25.383
  Cycle:      6 Defect Energy:   3.013169  Gnorm:     0.001922  CPU:   26.388
  Cycle:      7 Defect Energy:   2.937716  Gnorm:     0.001331  CPU:   27.254
  Cycle:      8 Defect Energy:   2.893927  Gnorm:     0.000947  CPU:   28.167
  Cycle:      9 Defect Energy:   2.866426  Gnorm:     0.000685  CPU:   29.031
  Cycle:     10 Defect Energy:   2.849518  Gnorm:     0.000499  CPU:   29.895
  Cycle:     11 Defect Energy:   2.839086  Gnorm:     0.000394  CPU:   30.932
  Cycle:     12 Defect Energy:   2.831981  Gnorm:     0.000346  CPU:   31.758
  Cycle:     13 Defect Energy:   2.826509  Gnorm:     0.000317  CPU:   36.255
  ** Hessian calculated **
  Cycle:     14 Defect Energy:   2.825730  Gnorm:     0.000296  CPU:   39.566
  Cycle:     15 Defect Energy:   2.824560  Gnorm:     0.000288  CPU:   40.636
  Cycle:     16 Defect Energy:   2.822859  Gnorm:     0.000280  CPU:   41.706
  Cycle:     17 Defect Energy:   2.820390  Gnorm:     0.000269  CPU:   42.873
  Cycle:     18 Defect Energy:   2.816929  Gnorm:     0.000252  CPU:   43.925
  Cycle:     19 Defect Energy:   2.812211  Gnorm:     0.000235  CPU:   44.945
  Cycle:     20 Defect Energy:   2.806166  Gnorm:     0.000210  CPU:   45.959
  Cycle:     21 Defect Energy:   2.800344  Gnorm:     0.000200  CPU:   46.996
  Cycle:     22 Defect Energy:   2.797594  Gnorm:     0.000185  CPU:   48.136
  Cycle:     23 Defect Energy:   2.796157  Gnorm:     0.000179  CPU:   49.175
  ** Hessian calculated **
  Cycle:     24 Defect Energy:   2.792921  Gnorm:     0.000152  CPU:   51.820
  Cycle:     25 Defect Energy:   2.789041  Gnorm:     0.000113  CPU:   52.944
  Cycle:     26 Defect Energy:   2.786688  Gnorm:     0.000079  CPU:   53.896
  Cycle:     27 Defect Energy:   2.785562  Gnorm:     0.000054  CPU:   54.788
  Cycle:     28 Defect Energy:   2.785015  Gnorm:     0.000038  CPU:   55.723
  Cycle:     29 Defect Energy:   2.784741  Gnorm:     0.000026  CPU:   56.656
  Cycle:     30 Defect Energy:   2.784600  Gnorm:     0.000019  CPU:   57.705
  Cycle:     31 Defect Energy:   2.784529  Gnorm:     0.000011  CPU:   58.615
  Cycle:     32 Defect Energy:   2.784487  Gnorm:     0.000009  CPU:   59.544
  Cycle:     33 Defect Energy:   2.784470  Gnorm:     0.000005  CPU:   60.462
  ** Hessian calculated **


  **** Optimisation achieved ****


  Final defect energy  =        2.78446223
  Final defect Gnorm   =        0.00000338

  Components of defect energy : 

--------------------------------------------------------------------------------
  Region 1 - region 1                   =      3.45188121 eV
  Region 1 - region 2a (unrelaxed)      =     -0.45273369 eV
  Region 1 - 2a (relaxed - correction)  =     -0.09694755 eV
  Region 1 (Total)                      =      2.90219997 eV
  Region 2a                             =      0.04848561 eV
  Region 2b                             =     -0.16622335 eV
--------------------------------------------------------------------------------
  Total defect energy                   =      2.78446223 eV
--------------------------------------------------------------------------------

  Largest displacement in region 2 =   0.0181 Angstroms

  Final coordinates of region 1 :

--------------------------------------------------------------------------------
   No.  Atomic        x           y           z          Radius      Charge
        Label       (Angs)      (Angs)      (Angs)       (Angs)       (e) 
--------------------------------------------------------------------------------
     1  Na    c     2.214230    0.841408    1.372823    0.000000    0.670000
     2  O     c     2.214230    2.605283    2.475347    0.000000    0.489000
     3  Cl    c     4.511854   -0.059842   -0.030252    0.000000    0.615000
     4  Cl    c    -0.083393   -0.059842   -0.030252    0.000000    0.615000
     5  Na    c     4.417011    2.596756    2.369515    0.000000    0.670000
     6  Na    c     0.011449    2.596756    2.369515    0.000000    0.670000
     7  O     c     2.214230    2.250852   -2.279576    0.000000    0.489000
     8  O     c     2.214230   -2.205161    2.215956    0.000000    0.489000
     9  Na    c     2.214230    2.103789    4.539178    0.000000    0.670000
    10  Na    c     2.214230   -2.254123    0.026562    0.000000    0.670000
    11  Na    c     2.214230    0.065691   -2.147706    0.000000    0.670000
    12  Na    c     2.214230    4.564634    1.668128    0.000000    0.670000
    13  Cl    c     4.529217    0.038404    4.557247    0.000000    0.615000
    14  Cl    c    -0.100756    0.038404    4.557247    0.000000    0.615000
    15  Cl    c     4.575816    4.566779    0.001966    0.000000    0.615000
    16  Cl    c    -0.147355    4.566779    0.001966    0.000000    0.615000
    17  Na    c     4.366150    2.231584   -1.954758    0.000000    0.670000
    18  Na    c     0.062311    2.231584   -1.954758    0.000000    0.670000
    19  Na    c     4.387721   -2.076600    2.217108    0.000000    0.670000
    20  Na    c     0.040740   -2.076600    2.217108    0.000000    0.670000
    21  O     c     6.633869    2.268875    2.249757    0.000000    0.489000
    22  O     c    -2.205409    2.268875    2.249757    0.000000    0.489000
    23  Na    c     6.649346    2.298059    0.036346    0.000000    0.670000
    24  Na    c    -2.220885    2.298059    0.036346    0.000000    0.670000
    25  Na    c     6.502278    0.058296    2.175086    0.000000    0.670000
    26  Na    c    -2.073817    0.058296    2.175086    0.000000    0.670000
    27  O     c     2.214230   -2.180985   -2.199698    0.000000    0.489000
    28  Na    c     2.214230   -1.771618    4.371402    0.000000    0.670000
    29  Na    c     2.214230    4.400245   -1.843849    0.000000    0.670000
    30  Cl    c     4.603247    4.539789    4.554209    0.000000    0.615000
    31  Cl    c    -0.174786    4.539789    4.554209    0.000000    0.615000
    32  Na    c     4.424596   -2.175749   -2.200226    0.000000    0.670000
    33  Na    c     0.003865   -2.175749   -2.200226    0.000000    0.670000
    34  O     c     6.608177    2.227032   -2.182395    0.000000    0.489000
    35  O     c    -2.179716    2.227032   -2.182395    0.000000    0.489000
    36  Na    c     6.633212    2.186393    4.461294    0.000000    0.670000
    37  Na    c    -2.204751    2.186393    4.461294    0.000000    0.670000
    38  Na    c     6.606296    0.014303   -2.152469    0.000000    0.670000
    39  Na    c    -2.177835    0.014303   -2.152469    0.000000    0.670000
    40  O     c     6.619571   -2.168952    2.222748    0.000000    0.489000
    41  O     c    -2.191110   -2.168952    2.222748    0.000000    0.489000
    42  Na    c     6.609654   -2.238464    0.007992    0.000000    0.670000
    43  Na    c    -2.181194   -2.238464    0.007992    0.000000    0.670000
    44  Na    c     6.791196    4.475946    2.268488    0.000000    0.670000
    45  Na    c    -2.362735    4.475946    2.268488    0.000000    0.670000
    46  O     c     2.214230    2.214664    6.729472    0.000000    0.489000
    47  O     c     2.214230    6.712154    2.174592    0.000000    0.489000
    48  Na    c     2.214230    2.371358   -4.437916    0.000000    0.670000
    49  Na    c     2.214230    7.062206   -0.017301    0.000000    0.670000
    50  Na    c     2.214230    0.008761    6.868174    0.000000    0.670000
    51  Na    c     2.214230   -4.394068    2.416756    0.000000    0.670000
    52  Cl    c     4.477768   -0.067336   -4.500403    0.000000    0.615000
    53  Cl    c    -0.049307   -0.067336   -4.500403    0.000000    0.615000
    54  Cl    c     4.465368   -4.460541   -0.042674    0.000000    0.615000
    55  Cl    c    -0.036908   -4.460541   -0.042674    0.000000    0.615000
    56  Na    c     4.437391    2.229668    6.671613    0.000000    0.670000
    57  Na    c    -0.008930    2.229668    6.671613    0.000000    0.670000
    58  Na    c     4.441276    6.628253    2.219271    0.000000    0.670000
    59  Na    c    -0.012815    6.628253    2.219271    0.000000    0.670000
    60  O     c     2.214230    6.640264   -2.193810    0.000000    0.489000
    61  O     c     2.214230   -2.187840    6.604372    0.000000    0.489000
    62  O     c     6.644622   -2.206676   -2.211737    0.000000    0.489000
    63  O     c    -2.216161   -2.206676   -2.211737    0.000000    0.489000
    64  Na    c     2.214230    6.342538    4.374766    0.000000    0.670000
    65  Na    c     2.214230   -2.141904   -4.413044    0.000000    0.670000
    66  Na    c     6.650107   -2.130597    4.431340    0.000000    0.670000
    67  Na    c    -2.221646   -2.130597    4.431340    0.000000    0.670000
    68  Na    c     2.214230    4.420137    6.687911    0.000000    0.670000
    69  Na    c     2.214230   -4.400514   -2.265747    0.000000    0.670000
    70  Na    c     6.618979    4.436691   -2.241614    0.000000    0.670000
    71  Na    c    -2.190518    4.436691   -2.241614    0.000000    0.670000
    72  Cl    c     4.498869    4.498764   -4.507755    0.000000    0.615000
    73  Cl    c    -0.070408    4.498764   -4.507755    0.000000    0.615000
    74  Cl    c     8.882574    0.018782    0.012713    0.000000    0.615000
    75  Cl    c    -4.454114    0.018782    0.012713    0.000000    0.615000
    76  Na    c     4.426444   -2.215228    6.582440    0.000000    0.670000
    77  Na    c     0.002017   -2.215228    6.582440    0.000000    0.670000
    78  Na    c     8.848306    2.132992    2.257429    0.000000    0.670000
    79  Na    c    -4.419845    2.132992    2.257429    0.000000    0.670000
    80  Cl    c     4.488161   -4.485849    4.459806    0.000000    0.615000
    81  Cl    c    -0.059700   -4.485849    4.459806    0.000000    0.615000
    82  Na    c     4.428433    6.606931   -2.208119    0.000000    0.670000
    83  Na    c     0.000028    6.606931   -2.208119    0.000000    0.670000
    84  O     c     6.657581    2.224486    6.674746    0.000000    0.489000
    85  O     c    -2.229120    2.224486    6.674746    0.000000    0.489000
    86  O     c     6.665164    6.681195    2.222954    0.000000    0.489000
    87  O     c    -2.236704    6.681195    2.222954    0.000000    0.489000
    88  Na    c     6.480574    2.189390   -4.397463    0.000000    0.670000
    89  Na    c    -2.052113    2.189390   -4.397463    0.000000    0.670000
    90  Na    c     6.638033    6.627096    0.000959    0.000000    0.670000
    91  Na    c    -2.209572    6.627096    0.000959    0.000000    0.670000
    92  Na    c     6.623077    0.006879    6.697046    0.000000    0.670000
    93  Na    c    -2.194617    0.006879    6.697046    0.000000    0.670000
    94  Na    c     6.600153   -4.391192    2.269198    0.000000    0.670000
    95  Na    c    -2.171692   -4.391192    2.269198    0.000000    0.670000
    96  Cl    c     8.887407    4.454450    0.014096    0.000000    0.615000
    97  Cl    c    -4.458946    4.454450    0.014096    0.000000    0.615000
    98  Na    c     8.836091   -2.131295    2.197993    0.000000    0.670000
    99  Na    c    -4.407630   -2.131295    2.197993    0.000000    0.670000
   100  Cl    c     8.889026    0.014677    4.449925    0.000000    0.615000
   101  Cl    c    -4.460565    0.014677    4.449925    0.000000    0.615000
   102  Na    c     8.827778    2.208886   -2.261838    0.000000    0.670000
   103  Na    c    -4.399317    2.208886   -2.261838    0.000000    0.670000
   104  O     c     2.214230    2.224498   -6.661633    0.000000    0.489000
   105  O     c     2.214230   -6.626785    2.220741    0.000000    0.489000
   106  Na    c     2.214230    2.291558    8.908464    0.000000    0.670000
   107  Na    c     2.214230   -6.497558    0.009453    0.000000    0.670000
   108  Na    c     2.214230    0.012881   -6.571905    0.000000    0.670000
   109  Na    c     2.214230    8.882367    2.465666    0.000000    0.670000
   110  O     c     6.646553   -2.211869    6.649161    0.000000    0.489000
   111  O     c    -2.218092   -2.211869    6.649161    0.000000    0.489000
   112  Na    c     6.632656   -2.167048   -4.424231    0.000000    0.670000
   113  Na    c    -2.204195   -2.167048   -4.424231    0.000000    0.670000
   114  Na    c     6.652883    4.442149    6.618357    0.000000    0.670000
   115  Na    c    -2.224422    4.442149    6.618357    0.000000    0.670000
   116  O     c     2.214230    6.629933    6.607345    0.000000    0.489000
   117  O     c     6.649414    6.656329   -2.220377    0.000000    0.489000
   118  O     c    -2.220953    6.656329   -2.220377    0.000000    0.489000
   119  Na    c     2.214230    6.382336   -4.406707    0.000000    0.670000
   120  Na    c     6.649066    6.680616    4.438664    0.000000    0.670000
   121  Na    c    -2.220605    6.680616    4.438664    0.000000    0.670000
   122  Na    c     2.214230   -4.399069    6.385889    0.000000    0.670000
   123  Na    c     6.627162   -4.418114   -2.245439    0.000000    0.670000
   124  Na    c    -2.198702   -4.418114   -2.245439    0.000000    0.670000
   125  Cl    c     4.440276   -0.000814    8.902557    0.000000    0.615000
   126  Cl    c    -0.011815   -0.000814    8.902557    0.000000    0.615000
   127  Cl    c     4.469993    8.921354   -0.013385    0.000000    0.615000
   128  Cl    c    -0.041532    8.921354   -0.013385    0.000000    0.615000
   129  Na    c     4.422340    2.207934   -6.662231    0.000000    0.670000
   130  Na    c     0.006121    2.207934   -6.662231    0.000000    0.670000
   131  Na    c     4.425392   -6.603176    2.197303    0.000000    0.670000
   132  Na    c     0.003069   -6.603176    2.197303    0.000000    0.670000
   133  Cl    c     8.902059    4.448788    4.447028    0.000000    0.615000
   134  Cl    c    -4.473598    4.448788    4.447028    0.000000    0.615000
   135  Na    c     8.851499   -2.195882   -2.203789    0.000000    0.670000
   136  Na    c    -4.423038   -2.195882   -2.203789    0.000000    0.670000
   137  Cl    c     4.430265   -4.448858   -4.439278    0.000000    0.615000
   138  Cl    c    -0.001804   -4.448858   -4.439278    0.000000    0.615000
   139  Na    c     4.434161    6.643878    6.607720    0.000000    0.670000
   140  Na    c    -0.005701    6.643878    6.607720    0.000000    0.670000
   141  O     c     2.214230   -2.207704   -6.635326    0.000000    0.489000
   142  O     c     2.214230   -6.626668   -2.208281    0.000000    0.489000
   143  Na    c     2.214230   -2.364149    8.830935    0.000000    0.670000
   144  Na    c     2.214230   -6.781435    4.423072    0.000000    0.670000
   145  Na    c     2.214230    4.428302   -6.776120    0.000000    0.670000
   146  Na    c     2.214230    8.850326   -2.461386    0.000000    0.670000
   147  Cl    c     4.425501    4.439391    8.899738    0.000000    0.615000
   148  Cl    c     0.002960    4.439391    8.899738    0.000000    0.615000
   149  Cl    c     4.456379    8.913392    4.439154    0.000000    0.615000
   150  Cl    c    -0.027918    8.913392    4.439154    0.000000    0.615000
   151  Na    c     4.429140   -2.201902   -6.625592    0.000000    0.670000
   152  Na    c    -0.000679   -2.201902   -6.625592    0.000000    0.670000
   153  Na    c     4.427469   -6.623031   -2.195894    0.000000    0.670000
   154  Na    c     0.000991   -6.623031   -2.195894    0.000000    0.670000
   155  Cl    c     8.876859   -4.429885   -0.001620    0.000000    0.615000
   156  Cl    c    -4.448398   -4.429885   -0.001620    0.000000    0.615000
   157  Na    c     8.870084    6.740136    2.205650    0.000000    0.670000
   158  Na    c    -4.441623    6.740136    2.205650    0.000000    0.670000
   159  Cl    c     8.884301   -0.004334   -4.431293    0.000000    0.615000
   160  Cl    c    -4.455840   -0.004334   -4.431293    0.000000    0.615000
   161  Na    c     8.863384    2.209321    6.642990    0.000000    0.670000
   162  Na    c    -4.434923    2.209321    6.642990    0.000000    0.670000
   163  O     c     6.635025    2.214911   -6.626737    0.000000    0.489000
   164  O     c    -2.206564    2.214911   -6.626737    0.000000    0.489000
   165  O     c     6.639534   -6.624441    2.213888    0.000000    0.489000
   166  O     c    -2.211073   -6.624441    2.213888    0.000000    0.489000
   167  O     c    11.066297    2.217606    2.216099    0.000000    0.489000
   168  O     c    -6.637836    2.217606    2.216099    0.000000    0.489000
   169  Na    c     6.650179    2.250979    8.873010    0.000000    0.670000
   170  Na    c    -2.221719    2.250979    8.873010    0.000000    0.670000
   171  Na    c     6.652995   -6.577647    0.000762    0.000000    0.670000
   172  Na    c    -2.224534   -6.577647    0.000762    0.000000    0.670000
   173  Na    c    11.004999    2.235778    0.001161    0.000000    0.670000
   174  Na    c    -6.576538    2.235778    0.001161    0.000000    0.670000
   175  Na    c     6.650459    0.001389   -6.639661    0.000000    0.670000
   176  Na    c    -2.221998    0.001389   -6.639661    0.000000    0.670000
   177  Na    c     6.609569    8.878304    2.196048    0.000000    0.670000
   178  Na    c    -2.181108    8.878304    2.196048    0.000000    0.670000
   179  Na    c    11.113451    0.004745    2.198952    0.000000    0.670000
   180  Na    c    -6.684991    0.004745    2.198952    0.000000    0.670000
   181  O     c     6.658175    6.661413    6.656412    0.000000    0.489000
   182  O     c    -2.229714    6.661413    6.656412    0.000000    0.489000
   183  Na    c     6.643005    6.655248   -4.430739    0.000000    0.670000
   184  Na    c    -2.214544    6.655248   -4.430739    0.000000    0.670000
   185  Na    c     6.648565   -4.424311    6.591475    0.000000    0.670000
   186  Na    c    -2.220104   -4.424311    6.591475    0.000000    0.670000
   187  Cl    c     8.876849   -4.431663    4.443401    0.000000    0.615000
   188  Cl    c    -4.448388   -4.431663    4.443401    0.000000    0.615000
   189  Na    c     8.857006    6.645609   -2.205353    0.000000    0.670000
   190  Na    c    -4.428546    6.645609   -2.205353    0.000000    0.670000
   191  Cl    c     8.885976    4.448075   -4.427400    0.000000    0.615000
   192  Cl    c    -4.457515    4.448075   -4.427400    0.000000    0.615000
   193  Na    c     8.855919   -2.200679    6.654986    0.000000    0.670000
   194  Na    c    -4.427458   -2.200679    6.654986    0.000000    0.670000
   195  O     c     6.646736   -2.217185   -6.643661    0.000000    0.489000
   196  O     c    -2.218275   -2.217185   -6.643661    0.000000    0.489000
   197  O     c     6.643483   -6.638536   -2.216111    0.000000    0.489000
   198  O     c    -2.215022   -6.638536   -2.216111    0.000000    0.489000
   199  O     c    11.057518    2.217504   -2.212252    0.000000    0.489000
   200  O     c    -6.629058    2.217504   -2.212252    0.000000    0.489000
   201  O     c    11.063166   -2.207061    2.215314    0.000000    0.489000
   202  O     c    -6.634705   -2.207061    2.215314    0.000000    0.489000
   203  Na    c     6.619983   -2.247357    8.857048    0.000000    0.670000
   204  Na    c    -2.191522   -2.247357    8.857048    0.000000    0.670000
   205  Na    c     6.620134   -6.655923    4.426741    0.000000    0.670000
   206  Na    c    -2.191673   -6.655923    4.426741    0.000000    0.670000
   207  Na    c    11.080770    2.218107    4.429926    0.000000    0.670000
   208  Na    c    -6.652309    2.218107    4.429926    0.000000    0.670000
   209  Na    c    11.061053   -2.229799    0.002052    0.000000    0.670000
   210  Na    c    -6.632593   -2.229799    0.002052    0.000000    0.670000
   211  Na    c     6.628145    4.430730   -6.610510    0.000000    0.670000
   212  Na    c    -2.199684    4.430730   -6.610510    0.000000    0.670000
   213  Na    c     6.628923    8.862559   -2.206371    0.000000    0.670000
   214  Na    c    -2.200462    8.862559   -2.206371    0.000000    0.670000
   215  Na    c    11.058646    0.003762   -2.193358    0.000000    0.670000
   216  Na    c    -6.630185    0.003762   -2.193358    0.000000    0.670000
   217  Na    c    11.011826    4.433976    2.224377    0.000000    0.670000
   218  Na    c    -6.583365    4.433976    2.224377    0.000000    0.670000
   219  O     c     2.214230    6.634359   -6.629996    0.000000    0.489000
   220  O     c     2.214230   -6.625422    6.629636    0.000000    0.489000
   221  Na    c     2.214230    6.683391    8.834495    0.000000    0.670000
   222  Na    c     2.214230   -6.659758   -4.422939    0.000000    0.670000
   223  Na    c     2.214230    8.841981    6.510975    0.000000    0.670000
   224  Na    c     2.214230   -4.421342   -6.609407    0.000000    0.670000
   225  Cl    c     4.441585    8.898010   -4.437989    0.000000    0.615000
   226  Cl    c    -0.013124    8.898010   -4.437989    0.000000    0.615000
   227  Cl    c     4.440785   -4.431511    8.888291    0.000000    0.615000
   228  Cl    c    -0.012324   -4.431511    8.888291    0.000000    0.615000
   229  Na    c     4.429306    6.644329   -6.619593    0.000000    0.670000
   230  Na    c    -0.000845    6.644329   -6.619593    0.000000    0.670000
   231  Na    c     4.427988   -6.611896    6.647697    0.000000    0.670000
   232  Na    c     0.000473   -6.611896    6.647697    0.000000    0.670000
   233  O     c    11.071063   -2.211715   -2.211407    0.000000    0.489000
   234  O     c    -6.642602   -2.211715   -2.211407    0.000000    0.489000
   235  Na    c    11.045373   -2.204800    4.428374    0.000000    0.670000
   236  Na    c    -6.616912   -2.204800    4.428374    0.000000    0.670000
   237  Na    c    11.049806    4.429514   -2.225208    0.000000    0.670000
   238  Na    c    -6.621346    4.429514   -2.225208    0.000000    0.670000
   239  O     c     2.214230    2.215826   11.094583    0.000000    0.489000
   240  O     c     2.214230   11.079601    2.224880    0.000000    0.489000
   241  Na    c     2.214230    2.159564   -8.867013    0.000000    0.670000
   242  Na    c     2.214230   10.965162   -0.002566    0.000000    0.670000
   243  Na    c     2.214230   -0.008647   11.020211    0.000000    0.670000
   244  Na    c     2.214230   -8.847694    2.138985    0.000000    0.670000
   245  Cl    c     4.430895    0.000987   -8.886979    0.000000    0.615000
   246  Cl    c    -0.002434    0.000987   -8.886979    0.000000    0.615000
   247  Cl    c     4.430766   -8.888673    0.000938    0.000000    0.615000
   248  Cl    c    -0.002305   -8.888673    0.000938    0.000000    0.615000
   249  Cl    c     8.875399   -0.000570    8.877640    0.000000    0.615000
   250  Cl    c    -4.446938   -0.000570    8.877640    0.000000    0.615000
   251  Cl    c     8.880318    8.881681    0.002938    0.000000    0.615000
   252  Cl    c    -4.451857    8.881681    0.002938    0.000000    0.615000
   253  Na    c     4.430092    2.198582   11.086097    0.000000    0.670000
   254  Na    c    -0.001631    2.198582   11.086097    0.000000    0.670000
   255  Na    c     4.427382   11.081153    2.186617    0.000000    0.670000
   256  Na    c     0.001079   11.081153    2.186617    0.000000    0.670000
   257  Na    c     8.846828    2.229636   -6.572326    0.000000    0.670000
   258  Na    c    -4.418368    2.229636   -6.572326    0.000000    0.670000
   259  Na    c     8.849626   -6.626126    2.223090    0.000000    0.670000
   260  Na    c    -4.421165   -6.626126    2.223090    0.000000    0.670000
   261  Cl    c     8.874577   -4.442826   -4.437964    0.000000    0.615000
   262  Cl    c    -4.446117   -4.442826   -4.437964    0.000000    0.615000
   263  Na    c     8.864832    6.646387    6.648628    0.000000    0.670000
   264  Na    c    -4.436371    6.646387    6.648628    0.000000    0.670000
   265  O     c     2.214230   11.064115   -2.228491    0.000000    0.489000
   266  O     c     2.214230   -2.225898   11.061936    0.000000    0.489000
   267  O     c     6.648188    6.650797   -6.646889    0.000000    0.489000
   268  O     c    -2.219727    6.650797   -6.646889    0.000000    0.489000
   269  O     c     6.645444   -6.643466    6.643694    0.000000    0.489000
   270  O     c    -2.216984   -6.643466    6.643694    0.000000    0.489000
   271  O     c    11.077353    2.215692    6.645650    0.000000    0.489000
   272  O     c    -6.648892    2.215692    6.645650    0.000000    0.489000
   273  O     c    11.078019    6.651869    2.214851    0.000000    0.489000
   274  O     c    -6.649558    6.651869    2.214851    0.000000    0.489000
   275  Na    c     2.214230   11.170419    4.435859    0.000000    0.670000
   276  Na    c     2.214230   -2.197284   -8.848077    0.000000    0.670000
   277  Na    c     6.637916    6.634961    8.858986    0.000000    0.670000
   278  Na    c    -2.209455    6.634961    8.858986    0.000000    0.670000
   279  Na    c     6.633401   -6.655086   -4.427972    0.000000    0.670000
   280  Na    c    -2.204940   -6.655086   -4.427972    0.000000    0.670000
   281  Na    c    11.089154    2.205266   -4.424369    0.000000    0.670000
   282  Na    c    -6.660694    2.205266   -4.424369    0.000000    0.670000
   283  Na    c    11.075155    6.628122   -0.000223    0.000000    0.670000
   284  Na    c    -6.646695    6.628122   -0.000223    0.000000    0.670000
   285  Na    c     2.214230    4.437195   11.085829    0.000000    0.670000
   286  Na    c     2.214230   -8.844206   -2.167467    0.000000    0.670000
   287  Na    c     6.651382    8.862732    6.660055    0.000000    0.670000
   288  Na    c    -2.222921    8.862732    6.660055    0.000000    0.670000
   289  Na    c     6.638036   -4.428374   -6.620821    0.000000    0.670000
   290  Na    c    -2.209575   -4.428374   -6.620821    0.000000    0.670000
   291  Na    c    11.071053    0.001609    6.638927    0.000000    0.670000
   292  Na    c    -6.642592    0.001609    6.638927    0.000000    0.670000
   293  Na    c    11.030498   -4.421581    2.225616    0.000000    0.670000
   294  Na    c    -6.602038   -4.421581    2.225616    0.000000    0.670000
   295  Cl    c     4.431009    4.433572   -8.882173    0.000000    0.615000
   296  Cl    c    -0.002548    4.433572   -8.882173    0.000000    0.615000
   297  Cl    c     4.432875   -8.874016    4.433276    0.000000    0.615000
   298  Cl    c    -0.004415   -8.874016    4.433276    0.000000    0.615000
   299  Cl    c     8.878702    4.436007    8.881563    0.000000    0.615000
   300  Cl    c    -4.450241    4.436007    8.881563    0.000000    0.615000
   301  Cl    c     8.885092    8.877254    4.436586    0.000000    0.615000
   302  Cl    c    -4.456632    8.877254    4.436586    0.000000    0.615000
   303  Na    c     4.428823   11.060405   -2.193526    0.000000    0.670000
   304  Na    c    -0.000362   11.060405   -2.193526    0.000000    0.670000
   305  Na    c     4.427531   -2.199537   11.057982    0.000000    0.670000
   306  Na    c     0.000930   -2.199537   11.057982    0.000000    0.670000
   307  Na    c     8.855436   -2.224550   -6.636788    0.000000    0.670000
   308  Na    c    -4.426975   -2.224550   -6.636788    0.000000    0.670000
   309  Na    c     8.854326   -6.636181   -2.218836    0.000000    0.670000
   310  Na    c    -4.425865   -6.636181   -2.218836    0.000000    0.670000
   311  O     c     2.214230   -6.643013   -6.641885    0.000000    0.489000
[...]
    251 y          6.642691      6.712702     0.070010    Cartesian    1.05
    251 z          2.214230      2.173224    -0.041007    Cartesian   -1.85
    252 x          4.428461      4.480266     0.051805    Cartesian    1.17
    252 y          0.000000     -0.070336    -0.070336    Cartesian    0.00
    252 z         -4.428461     -4.503709    -0.075248    Cartesian    1.70
    253 x          4.428461      4.466722     0.038261    Cartesian    0.86
    253 y         -4.428461     -4.462990    -0.034529    Cartesian    0.78
    253 z          0.000000     -0.044475    -0.044475    Cartesian    0.00
    254 x          2.214230      2.214230     0.000000    Cartesian    0.00
    254 y          6.642691      6.642937     0.000245    Cartesian    0.00
    254 z         -2.214230     -2.193359     0.020871    Cartesian   -0.94
    255 x          2.214230      2.214230     0.000000    Cartesian    0.00
    255 y         -2.214230     -2.186722     0.027509    Cartesian   -1.24
    255 z          6.642691      6.606346    -0.036346    Cartesian   -0.55
    256 x          6.642691      6.644774     0.002083    Cartesian    0.03
    256 y         -2.214230     -2.206945     0.007285    Cartesian   -0.33
    256 z         -2.214230     -2.211877     0.002353    Cartesian   -0.11
    257 x          4.428461      4.500991     0.072530    Cartesian    1.64
    257 y          4.428461      4.501864     0.073403    Cartesian    1.66
    257 z         -4.428461     -4.510834    -0.082373    Cartesian    1.86
    258 x          8.856922      8.884307     0.027385    Cartesian    0.31
    258 y          0.000000      0.018963     0.018963    Cartesian    0.00
    258 z          0.000000      0.013116     0.013116    Cartesian    0.00
    259 x          4.428461      4.489311     0.060851    Cartesian    1.37
    259 y         -4.428461     -4.488509    -0.060048    Cartesian    1.36
    259 z          4.428461      4.461614     0.033153    Cartesian    0.75
    260 x          6.642691      6.657920     0.015229    Cartesian    0.23
    260 y          2.214230      2.224317     0.010086    Cartesian    0.46
    260 z          6.642691      6.675225     0.032534    Cartesian    0.49
    261 x          6.642691      6.666333     0.023641    Cartesian    0.36
    261 y          6.642691      6.681622     0.038931    Cartesian    0.59
    261 z          2.214230      2.223295     0.009065    Cartesian    0.41
    262 x          8.856922      8.888537     0.031615    Cartesian    0.36
    262 y          4.428461      4.454870     0.026409    Cartesian    0.60
    262 z          0.000000      0.014757     0.014757    Cartesian    0.00
    263 x          8.856922      8.890222     0.033300    Cartesian    0.38
    263 y          0.000000      0.014984     0.014984    Cartesian    0.00
    263 z          4.428461      4.450205     0.021744    Cartesian    0.49
    264 x          2.214230      2.214230     0.000000    Cartesian    0.00
    264 y          2.214230      2.225098     0.010867    Cartesian    0.49
    264 z         -6.642691     -6.663188    -0.020497    Cartesian    0.31
    265 x          2.214230      2.214230     0.000000    Cartesian    0.00
    265 y         -6.642691     -6.627734     0.014958    Cartesian   -0.23
    265 z          2.214230      2.221443     0.007212    Cartesian    0.33
    266 x          6.642691      6.646933     0.004242    Cartesian    0.06
    266 y         -2.214230     -2.211903     0.002328    Cartesian   -0.11
    266 z          6.642691      6.649361     0.006669    Cartesian    0.10
    267 x          2.214230      2.214230     0.000000    Cartesian    0.00
    267 y          6.642691      6.628782    -0.013910    Cartesian   -0.21
    267 z          6.642691      6.608471    -0.034220    Cartesian   -0.52
    268 x          6.642691      6.649753     0.007062    Cartesian    0.11
    268 y          6.642691      6.656551     0.013859    Cartesian    0.21
    268 z         -2.214230     -2.220844    -0.006613    Cartesian    0.30
    269 x          4.428461      4.440136     0.011676    Cartesian    0.26
    269 y          0.000000     -0.000619    -0.000619    Cartesian    0.00
    269 z          8.856922      8.903348     0.046426    Cartesian    0.52
    270 x          4.428461      4.469609     0.041148    Cartesian    0.93
    270 y          8.856922      8.922274     0.065352    Cartesian    0.74
    270 z          0.000000     -0.013666    -0.013666    Cartesian    0.00
    271 x          8.856922      8.903124     0.046202    Cartesian    0.52
    271 y          4.428461      4.449244     0.020783    Cartesian    0.47
    271 z          4.428461      4.446923     0.018462    Cartesian    0.42
    272 x          4.428461      4.430430     0.001969    Cartesian    0.04
    272 y         -4.428461     -4.450001    -0.021540    Cartesian    0.49
    272 z         -4.428461     -4.439731    -0.011270    Cartesian    0.25
    273 x          2.214230      2.214230     0.000000    Cartesian    0.00
    273 y         -2.214230     -2.207623     0.006607    Cartesian   -0.30
    273 z         -6.642691     -6.635272     0.007419    Cartesian   -0.11
    274 x          2.214230      2.214230     0.000000    Cartesian    0.00
    274 y         -6.642691     -6.626557     0.016134    Cartesian   -0.24
    274 z         -2.214230     -2.208596     0.005634    Cartesian   -0.25
    275 x          4.428461      4.425171    -0.003290    Cartesian   -0.07
    275 y          4.428461      4.439133     0.010672    Cartesian    0.24
    275 z          8.856922      8.900980     0.044058    Cartesian    0.50
    276 x          4.428461      4.456410     0.027949    Cartesian    0.63
    276 y          8.856922      8.915301     0.058380    Cartesian    0.66
    276 z          4.428461      4.439156     0.010695    Cartesian    0.24
    277 x          8.856922      8.878071     0.021149    Cartesian    0.24
    277 y         -4.428461     -4.430600    -0.002139    Cartesian    0.05
    277 z          0.000000     -0.001932    -0.001932    Cartesian    0.00
    278 x          8.856922      8.885848     0.028926    Cartesian    0.33
    278 y          0.000000     -0.004740    -0.004740    Cartesian    0.00
    278 z         -4.428461     -4.431829    -0.003368    Cartesian    0.08
    279 x          6.642691      6.634407    -0.008284    Cartesian   -0.12
    279 y          2.214230      2.214740     0.000509    Cartesian    0.02
    279 z         -6.642691     -6.627420     0.015272    Cartesian   -0.23
    280 x          6.642691      6.639467    -0.003224    Cartesian   -0.05
    280 y         -6.642691     -6.624942     0.017749    Cartesian   -0.27
    280 z          2.214230      2.214058    -0.000173    Cartesian   -0.01
    281 x         11.071152     11.066331    -0.004821    Cartesian   -0.04
    281 y          2.214230      2.217180     0.002950    Cartesian    0.13
    281 z          2.214230      2.216266     0.002035    Cartesian    0.09
    282 x          6.642691      6.658866     0.016175    Cartesian    0.24
    282 y          6.642691      6.662166     0.019474    Cartesian    0.29
    282 z          6.642691      6.656699     0.014008    Cartesian    0.21
    283 x          8.856922      8.877958     0.021036    Cartesian    0.24
    283 y         -4.428461     -4.432373    -0.003912    Cartesian    0.09
    283 z          4.428461      4.444162     0.015701    Cartesian    0.35
    284 x          8.856922      8.887469     0.030547    Cartesian    0.34
    284 y          4.428461      4.448799     0.020338    Cartesian    0.46
    284 z         -4.428461     -4.427566     0.000895    Cartesian   -0.02
    285 x          6.642691      6.647051     0.004359    Cartesian    0.07
    285 y         -2.214230     -2.217244    -0.003013    Cartesian    0.14
    285 z         -6.642691     -6.643901    -0.001210    Cartesian    0.02
    286 x          6.642691      6.643626     0.000935    Cartesian    0.01
    286 y         -6.642691     -6.638630     0.004062    Cartesian   -0.06
    286 z         -2.214230     -2.216357    -0.002126    Cartesian    0.10
    287 x         11.071152     11.057975    -0.013177    Cartesian   -0.12
    287 y          2.214230      2.217587     0.003357    Cartesian    0.15
    287 z         -2.214230     -2.212450     0.001781    Cartesian   -0.08
    288 x         11.071152     11.063804    -0.007348    Cartesian   -0.07
    288 y         -2.214230     -2.206764     0.007466    Cartesian   -0.34
    288 z          2.214230      2.215216     0.000985    Cartesian    0.04
    289 x          2.214230      2.214230     0.000000    Cartesian    0.00
    289 y          6.642691      6.633353    -0.009338    Cartesian   -0.14
    289 z         -6.642691     -6.631155     0.011536    Cartesian   -0.17
    290 x          2.214230      2.214230     0.000000    Cartesian    0.00
    290 y         -6.642691     -6.626588     0.016103    Cartesian   -0.24
    290 z          6.642691      6.628723    -0.013968    Cartesian   -0.21
    291 x          4.428461      4.441051     0.012590    Cartesian    0.28
    291 y          8.856922      8.899560     0.042639    Cartesian    0.48
    291 z         -4.428461     -4.437787    -0.009326    Cartesian    0.21
    292 x          4.428461      4.440897     0.012436    Cartesian    0.28
    292 y         -4.428461     -4.431572    -0.003111    Cartesian    0.07
    292 z          8.856922      8.889954     0.033033    Cartesian    0.37
    293 x         11.071152     11.071100    -0.000052    Cartesian   -0.00
    293 y         -2.214230     -2.211786     0.002444    Cartesian   -0.11
    293 z         -2.214230     -2.211310     0.002921    Cartesian   -0.13
    294 x          2.214230      2.214230     0.000000    Cartesian    0.00
    294 y          2.214230      2.216369     0.002139    Cartesian    0.10
    294 z         11.071152     11.093857     0.022705    Cartesian    0.21
    295 x          2.214230      2.214230     0.000000    Cartesian    0.00
    295 y         11.071152     11.079912     0.008760    Cartesian    0.08
    295 z          2.214230      2.226795     0.012565    Cartesian    0.57
    296 x          4.428461      4.430769     0.002308    Cartesian    0.05
    296 y          0.000000      0.001176     0.001176    Cartesian    0.00
    296 z         -8.856922     -8.888130    -0.031209    Cartesian    0.35
    297 x          4.428461      4.430755     0.002294    Cartesian    0.05
    297 y         -8.856922     -8.890403    -0.033481    Cartesian    0.38
    297 z          0.000000      0.001021     0.001021    Cartesian    0.00
    298 x          8.856922      8.876038     0.019116    Cartesian    0.22
    298 y          0.000000     -0.000526    -0.000526    Cartesian    0.00
    298 z          8.856922      8.878184     0.021262    Cartesian    0.24
    299 x          8.856922      8.881030     0.024108    Cartesian    0.27
    299 y          8.856922      8.882138     0.025216    Cartesian    0.28
    299 z          0.000000      0.003394     0.003394    Cartesian    0.00
    300 x          8.856922      8.875344     0.018422    Cartesian    0.21
    300 y         -4.428461     -4.443481    -0.015021    Cartesian    0.34
    300 z         -4.428461     -4.438312    -0.009851    Cartesian    0.22
    301 x          2.214230      2.214230     0.000000    Cartesian    0.00
    301 y         11.071152     11.064320    -0.006833    Cartesian   -0.06
    301 z         -2.214230     -2.230367    -0.016136    Cartesian    0.73
    302 x          2.214230      2.214230     0.000000    Cartesian    0.00
    302 y         -2.214230     -2.226917    -0.012686    Cartesian    0.57
    302 z         11.071152     11.062590    -0.008562    Cartesian   -0.08
    303 x          6.642691      6.648554     0.005863    Cartesian    0.09
    303 y          6.642691      6.651345     0.008653    Cartesian    0.13
    303 z         -6.642691     -6.646788    -0.004097    Cartesian    0.06
    304 x          6.642691      6.645700     0.003009    Cartesian    0.05
    304 y         -6.642691     -6.643556    -0.000865    Cartesian    0.01
    304 z          6.642691      6.643740     0.001049    Cartesian    0.02
    305 x         11.071152     11.077534     0.006382    Cartesian    0.06
    305 y          2.214230      2.215655     0.001425    Cartesian    0.06
    305 z          6.642691      6.645791     0.003100    Cartesian    0.05
    306 x         11.071152     11.077789     0.006637    Cartesian    0.06
    306 y          6.642691      6.652615     0.009924    Cartesian    0.15
    306 z          2.214230      2.214829     0.000599    Cartesian    0.03
    307 x          4.428461      4.430742     0.002281    Cartesian    0.05
    307 y          4.428461      4.433591     0.005130    Cartesian    0.12
    307 z         -8.856922     -8.882549    -0.025627    Cartesian    0.29
    308 x          4.428461      4.432912     0.004451    Cartesian    0.10
    308 y         -8.856922     -8.874169    -0.017248    Cartesian    0.19
    308 z          4.428461      4.433571     0.005110    Cartesian    0.12
    309 x          8.856922      8.879343     0.022421    Cartesian    0.25
    309 y          4.428461      4.436062     0.007602    Cartesian    0.17
    309 z          8.856922      8.882311     0.025389    Cartesian    0.29
    310 x          8.856922      8.885913     0.028992    Cartesian    0.33
    310 y          8.856922      8.877393     0.020471    Cartesian    0.23
    310 z          4.428461      4.436653     0.008192    Cartesian    0.18
    311 x          2.214230      2.214230     0.000000    Cartesian    0.00
    311 y         -6.642691     -6.643434    -0.000743    Cartesian    0.01
    311 z         -6.642691     -6.641924     0.000768    Cartesian   -0.01
    312 x          6.642691      6.645824     0.003133    Cartesian    0.05
    312 y          2.214230      2.216618     0.002387    Cartesian    0.11
    312 z         11.071152     11.081302     0.010150    Cartesian    0.09
    313 x          6.642691      6.644429     0.001738    Cartesian    0.03
    313 y         11.071152     11.084679     0.013527    Cartesian    0.12
    313 z          2.214230      2.211045    -0.003185    Cartesian   -0.14
    314 x         11.071152     11.074416     0.003264    Cartesian    0.03
    314 y          6.642691      6.645264     0.002573    Cartesian    0.04
    314 z         -2.214230     -2.213984     0.000246    Cartesian   -0.01
    315 x         11.071152     11.072766     0.001614    Cartesian    0.01
    315 y         -2.214230     -2.212748     0.001483    Cartesian   -0.07
    315 z          6.642691      6.645313     0.002621    Cartesian    0.04
    316 x          4.428461      4.439864     0.011403    Cartesian    0.26
    316 y          8.856922      8.872000     0.015078    Cartesian    0.17
    316 z          8.856922      8.877016     0.020095    Cartesian    0.23
    317 x         13.285383     13.308331     0.022949    Cartesian    0.17
    317 y          0.000000      0.000028     0.000028    Cartesian    0.00
    317 z          0.000000      0.000840     0.000840    Cartesian    0.00
    318 x          2.214230      2.214230     0.000000    Cartesian    0.00
    318 y          6.642691      6.650016     0.007325    Cartesian    0.11
    318 z         11.071152     11.066710    -0.004442    Cartesian   -0.04
    319 x          2.214230      2.214230     0.000000    Cartesian    0.00
    319 y         11.071152     11.072434     0.001282    Cartesian    0.01
    319 z          6.642691      6.639851    -0.002840    Cartesian   -0.04
    320 x          6.642691      6.646919     0.004228    Cartesian    0.06
    320 y         11.071152     11.079664     0.008512    Cartesian    0.08
    320 z         -2.214230     -2.216221    -0.001991    Cartesian    0.09
    321 x          6.642691      6.644721     0.002030    Cartesian    0.03
    321 y         -2.214230     -2.216990    -0.002760    Cartesian    0.12
    321 z         11.071152     11.074707     0.003555    Cartesian    0.03
    322 x          4.428461      4.436965     0.008505    Cartesian    0.19
    322 y         -4.428461     -4.443032    -0.014571    Cartesian    0.33
    322 z         -8.856922     -8.879073    -0.022152    Cartesian    0.25
    323 x          4.428461      4.433880     0.005419    Cartesian    0.12
    323 y         -8.856922     -8.874322    -0.017400    Cartesian    0.20
    323 z         -4.428461     -4.440381    -0.011920    Cartesian    0.27
    324 x          8.856922      8.878153     0.021231    Cartesian    0.24
    324 y          8.856922      8.879193     0.022271    Cartesian    0.25
    324 z         -4.428461     -4.440138    -0.011677    Cartesian    0.26
    325 x          8.856922      8.873411     0.016489    Cartesian    0.19
    325 y         -4.428461     -4.437408    -0.008947    Cartesian    0.20
    325 z          8.856922      8.876968     0.020046    Cartesian    0.23
    326 x         13.285383     13.306028     0.020646    Cartesian    0.16
    326 y          0.000000     -0.001798    -0.001798    Cartesian    0.00
    326 z          4.428461      4.435969     0.007508    Cartesian    0.17
    327 x         13.285383     13.316079     0.030696    Cartesian    0.23
    327 y          4.428461      4.433938     0.005477    Cartesian    0.12
    327 z          0.000000     -0.003968    -0.003968    Cartesian    0.00
    328 x          6.642691      6.644241     0.001550    Cartesian    0.02
    328 y         -6.642691     -6.646692    -0.004001    Cartesian    0.06
    328 z         -6.642691     -6.644678    -0.001987    Cartesian    0.03
    329 x         11.071152     11.072573     0.001421    Cartesian    0.01
    329 y          2.214230      2.216098     0.001867    Cartesian    0.08
    329 z         -6.642691     -6.641428     0.001263    Cartesian   -0.02
    330 x         11.071152     11.070692    -0.000460    Cartesian   -0.00
    330 y         -6.642691     -6.642544     0.000147    Cartesian   -0.00
    330 z          2.214230      2.216932     0.002701    Cartesian    0.12
    331 x         11.071152     11.078855     0.007702    Cartesian    0.07
    331 y          6.642691      6.646308     0.003617    Cartesian    0.05
    331 z          6.642691      6.646937     0.004245    Cartesian    0.06
--------------------------------------------------------------------------------


  Time to end of optimisation  =       62.9924 seconds


  Peak dynamic memory used =     101.61 MB 


  Timing analysis for GULP :

--------------------------------------------------------------------------------
  Task / Subroutine                                          Time (Seconds)
--------------------------------------------------------------------------------
  Calculation of reciprocal space energy and derivatives          0.0014
  Calculation of reciprocal space energy using symmetry           0.0051
  Calculation of real space energy and derivatives                0.0064
  Calculation of real space energy using symmetry                 0.0496
  Calculation for region 1 energy and derivatives (2-b)          36.8699
  Calculation for region 2a energy                               23.1681
  Calculation for region 2b energy                                0.0106
  Calculation and manipulation of Hessian matrix                  0.1352
  Calculation of matrix inversion                                 2.4146
  Symmetry generation of equivalent positions                     0.0196
--------------------------------------------------------------------------------
  Total CPU time                                                 62.9925
--------------------------------------------------------------------------------


  Dump file written as Na3OCl.grs


  Job Finished at 16:32.53  5th July       2021                               

