********************************************************************************
*                       GENERAL UTILITY LATTICE PROGRAM                        *
*                                 Julian Gale                                  *
*                       Curtin Institute for Computation                       *
*                    School of Molecular and Life Sciences                     *
*                    Curtin University, Western Australia                      *
********************************************************************************
* Version = 5.2.0 * Last modified =  10th September 2020                       *
********************************************************************************
*  optimise     - perform optimisation run                                     *
*  conp         - constant pressure calculation                                *
*  property     - calculate properties for final geometry                      *
*  defect       - perform defect calculation after bulk run                    *
*  compare      - compare initial and final structures                         *
********************************************************************************

  Job Started  at 16:31.58  5th July       2021                               

  Number of CPUs =     1


  Total number of configurations input =      1

********************************************************************************
*  Input for Configuration =   1                                               *
********************************************************************************

  Formula = ClONa3                                                      

  Number of irreducible atoms/shells =       5


  Total number atoms/shells =       7

  Dimensionality = 3               :  Bulk   


  Symmetry :

  Crystal family                   :  Cubic       
  Crystal class  (Groth - 1921)    :  Cubic Hexakisoctahedral              

  Space group (centrosymmetric)    :  P M 3 M         

  Patterson group                  :  P m -3 m 

  Cartesian lattice vectors (Angstroms) :

        4.504000    0.000000    0.000000
        0.000000    4.504000    0.000000
        0.000000    0.000000    4.504000

  Cell parameters (Angstroms/Degrees):

  a =       4.5040    alpha =  90.0000
  b =       4.5040    beta  =  90.0000
  c =       4.5040    gamma =  90.0000

  Initial cell volume =          91.368216 Angs**3

  Temperature of configuration =   0.00     K 

  Pressure of configuration =         0.000 GPa 

  Fractional coordinates of asymmetric unit :

--------------------------------------------------------------------------------
   No.  Atomic       x           y          z         Charge      Occupancy
        Label      (Frac)      (Frac)     (Frac)        (e)         (Frac)  
--------------------------------------------------------------------------------
      1 Cl    c    0.000000    0.000000    0.000000     0.61500    1.000000    
      2 O     c    0.500000    0.500000    0.500000     0.48900    1.000000    
      3 Na    c    0.500000    0.500000    0.000000     0.67000    1.000000    
      4 Cl    s    0.000000    0.000000    0.000000    -1.28500    1.000000    
      5 O     s    0.500000    0.500000    0.500000    -1.82900    1.000000    
--------------------------------------------------------------------------------


  Constraints : 

--------------------------------------------------------------------------------
  Constraint no.      Unconstrained     Constrained    Coefficient    Offset
                         Variable         Variable
--------------------------------------------------------------------------------
           1              Strain 1        Strain 2       1.00000      0.0000
           2              Strain 1        Strain 3       1.00000      0.0000
--------------------------------------------------------------------------------


********************************************************************************
*  General input information                                                   *
********************************************************************************

  Species output for all configurations : 

--------------------------------------------------------------------------------
  Species    Type    Atomic    Atomic    Charge       Radii (Angs)     Library
                     Number     Mass       (e)     Cova   Ionic  VDW   Symbol
--------------------------------------------------------------------------------
    Na       Core       11      22.99   0.670000   0.970  0.000  2.300          
    O        Core        8      16.00   0.489000   0.730  0.000  1.360          
    O        Shell       8       0.00  -1.829000   0.730  0.000  1.360          
    Cl       Core       17      35.45   0.615000   0.990  0.000  1.650          
    Cl       Shell      17       0.00  -1.285000   0.990  0.000  1.650          
--------------------------------------------------------------------------------


  Lattice summation method               =    Ewald          (3-D)
                                         =    Parry          (2-D)
                                         =    Saunders et al (1-D)
  Accuracy factor for lattice sums       =   12.000


  Analytic derivatives to be used

  Time limit = Infinity

  Maximum range for interatomic potentials =    100000.000000 Angstroms

  General interatomic potentials :

--------------------------------------------------------------------------------
Atom  Types   Potential      Parameter       Value         Units   Cutoffs(Ang)
  1     2                                                            Min /  Max 
--------------------------------------------------------------------------------
O    c O    s Spring (c-s)  Spring k 2       34.450000    eV*Ang^-2 0.000  0.800
                            Spring k 4       0.0000000    eV*Ang^-4 
--------------------------------------------------------------------------------
Cl   c Cl   s Spring (c-s)  Spring k 2       28.250000    eV*Ang^-2 0.000  0.800
                            Spring k 4       0.0000000    eV*Ang^-4 
--------------------------------------------------------------------------------
Na   c Na   c Buckingham    Buckingham A     996.28210    eV        0.000 12.000
                            Buckingham rho  0.28830000    Ang       
                            Buckingham C     0.0000000    eV*Ang^6  
--------------------------------------------------------------------------------
Na   c O    s Buckingham    Buckingham A     12439.222    eV        0.000 12.000
                            Buckingham rho  0.20150000    Ang       
                            Buckingham C     0.0000000    eV*Ang^6  
--------------------------------------------------------------------------------
Na   c Cl   s Buckingham    Buckingham A     20907.738    eV        0.000 12.000
                            Buckingham rho  0.21660000    Ang       
                            Buckingham C     0.0000000    eV*Ang^6  
--------------------------------------------------------------------------------
O    s O    s Buckingham    Buckingham A     35546.853    eV        0.000 12.000
                            Buckingham rho  0.12056000    Ang       
                            Buckingham C     13.190000    eV*Ang^6  
--------------------------------------------------------------------------------
O    s Cl   s Buckingham    Buckingham A     47777.071    eV        0.000 12.000
                            Buckingham rho  0.24370000    Ang       
                            Buckingham C     62.200000    eV*Ang^6  
--------------------------------------------------------------------------------
Cl   s Cl   s Buckingham    Buckingham A     35155.254    eV        0.000 12.000
                            Buckingham rho  0.21360000    Ang       
                            Buckingham C     14.530000    eV*Ang^6  
--------------------------------------------------------------------------------

********************************************************************************
*  Output for configuration   1                                                *
********************************************************************************


  Components of energy : 

--------------------------------------------------------------------------------
  Interatomic potentials     =           1.21745275 eV    
  Monopole - monopole (real) =          -4.50527050 eV    
  Monopole - monopole (recip)=         -13.25862634 eV    
  Monopole - monopole (total)=         -17.76389683 eV    
--------------------------------------------------------------------------------
  Total lattice energy       =         -16.54644409 eV    
--------------------------------------------------------------------------------
  Total lattice energy       =           -1596.4789 kJ/(mole unit cells)
--------------------------------------------------------------------------------


  Number of variables =        1

  Maximum number of calculations  =          1000
  Maximum Hessian update interval =            10
  Maximum step size               =   1.000000000
  Maximum parameter tolerance     =   0.000010000
  Maximum function  tolerance     =   0.000010000
  Maximum gradient  tolerance     =   0.001000000
  Maximum gradient  component     =   0.010000000

  Symmetry constrained optimisation

  Symmetry used for second derivatives

  Cell parameters to be optimised using strains

  Newton-Raphson optimiser to be used

  BFGS hessian update to be used

  Lower half triangular hessian to be used

  Start of bulk optimisation :

  Cycle:      0 Energy:       -16.546444  Gnorm:      2.744113  CPU:    0.016
  ** Hessian calculated **
  Cycle:      1 Energy:       -16.570356  Gnorm:      0.030142  CPU:    0.021
  Cycle:      2 Energy:       -16.570358  Gnorm:      0.003103  CPU:    0.024


  **** Optimisation achieved ****


  Final energy =     -16.57035847 eV
  Final Gnorm  =       0.00000012

  Components of energy : 

--------------------------------------------------------------------------------
  Interatomic potentials     =           1.49654868 eV    
  Monopole - monopole (real) =          -4.58211982 eV    
  Monopole - monopole (recip)=         -13.48478733 eV    
  Monopole - monopole (total)=         -18.06690714 eV    
--------------------------------------------------------------------------------
  Total lattice energy       =         -16.57035847 eV    
--------------------------------------------------------------------------------
  Total lattice energy       =           -1598.7863 kJ/(mole unit cells)
--------------------------------------------------------------------------------

  Final asymmetric unit coordinates :

--------------------------------------------------------------------------------
   No.  Atomic        x           y           z         Radius
        Label       (Frac)      (Frac)      (Frac)       (Angs) 
--------------------------------------------------------------------------------
     1  Cl    c     0.000000    0.000000    0.000000    0.000000
     2  O     c     0.500000    0.500000    0.500000    0.000000
     3  Na    c     0.500000    0.500000    0.000000    0.000000
     4  Cl    s     0.000000    0.000000    0.000000    0.000000
     5  O     s     0.500000    0.500000    0.500000    0.000000
--------------------------------------------------------------------------------

  Final Cartesian lattice vectors (Angstroms) :

        4.428461    0.000000    0.000000
        0.000000    4.428461    0.000000
        0.000000    0.000000    4.428461


  Final cell parameters and derivatives :

--------------------------------------------------------------------------------
       a            4.428461 Angstrom     dE/de1(xx)     0.000000 eV/strain
       b            4.428461 Angstrom     dE/de2(yy)     0.000000 eV/strain
       c            4.428461 Angstrom     dE/de3(zz)     0.000000 eV/strain
       alpha       90.000000 Degrees      dE/de4(yz)     0.000000 eV/strain
       beta        90.000000 Degrees      dE/de5(xz)     0.000000 eV/strain
       gamma       90.000000 Degrees      dE/de6(xy)     0.000000 eV/strain
--------------------------------------------------------------------------------

  Primitive cell volume =            86.847723 Angs**3

  Density of cell =      2.302482 g/cm**3

  Non-primitive cell volume =            86.847723 Angs**3


  Final internal derivatives :

--------------------------------------------------------------------------------
   No.  Atomic          a             b             c           Radius
        Label          (eV)          (eV)          (eV)        (eV/Angs)
--------------------------------------------------------------------------------
      1 Cl    c       0.000000      0.000000      0.000000      0.000000
      2 O     c       0.000000      0.000000      0.000000      0.000000
      3 Na    c       0.000000      0.000000      0.000000      0.000000
      4 Cl    s       0.000000      0.000000      0.000000      0.000000
      5 O     s       0.000000      0.000000      0.000000      0.000000
--------------------------------------------------------------------------------
  Maximum abs         0.000000      0.000000      0.000000      0.000000
--------------------------------------------------------------------------------

  Comparison of initial and final structures : 

--------------------------------------------------------------------------------
  Parameter   Initial value   Final value   Difference    Units      Percent
--------------------------------------------------------------------------------
    Volume        91.368216     86.847723    -4.520493    Angs**3     -4.95
    a              4.504000      4.428461    -0.075539    Angstroms   -1.68
    b              4.504000      4.428461    -0.075539    Angstroms   -1.68
    c              4.504000      4.428461    -0.075539    Angstroms   -1.68
    alpha         90.000000     90.000000     0.000000    Degrees      0.00
    beta          90.000000     90.000000     0.000000    Degrees      0.00
    gamma         90.000000     90.000000     0.000000    Degrees      0.00
      1 x          0.000000      0.000000     0.000000    Fractional   0.00
      1 y          0.000000      0.000000     0.000000    Fractional   0.00
      1 z          0.000000      0.000000     0.000000    Fractional   0.00
      2 x          0.500000      0.500000     0.000000    Fractional   0.00
      2 y          0.500000      0.500000     0.000000    Fractional   0.00
      2 z          0.500000      0.500000     0.000000    Fractional   0.00
      3 x          0.500000      0.500000     0.000000    Fractional   0.00
      3 y          0.500000      0.500000     0.000000    Fractional   0.00
      3 z          0.000000      0.000000     0.000000    Fractional   0.00
      4 x          0.000000      0.000000     0.000000    Fractional   0.00
      4 y          0.000000      0.000000     0.000000    Fractional   0.00
      4 z          0.000000      0.000000     0.000000    Fractional   0.00
      5 x          0.500000      0.500000     0.000000    Fractional   0.00
      5 y          0.500000      0.500000     0.000000    Fractional   0.00
      5 z          0.500000      0.500000     0.000000    Fractional   0.00
--------------------------------------------------------------------------------


  Born effective charge tensors : 

-------------------------------------------------------------------------------
  Atom             x           y             z
-------------------------------------------------------------------------------
    1 Cl    x      -0.6995     -0.0000     -0.0000
            y      -0.0000     -0.6995     -0.0000
            z      -0.0000     -0.0000     -0.6995
-------------------------------------------------------------------------------
    2 O     x      -1.0805      0.0000      0.0000
            y       0.0000     -1.0805      0.0000
            z       0.0000      0.0000     -1.0805
-------------------------------------------------------------------------------
    3 Na    x       0.6486      0.0000     -0.0000
            y       0.0000      0.6486      0.0000
            z      -0.0000      0.0000      0.4827
-------------------------------------------------------------------------------




  Elastic Constant Matrix: (Units=GPa)

-------------------------------------------------------------------------------
  Indices      1         2         3         4         5         6    
-------------------------------------------------------------------------------
       1     77.0757   16.0262   16.0262   -0.0000   -0.0000   -0.0000
       2     16.0262   77.0757   16.0262   -0.0000   -0.0000    0.0000
       3     16.0262   16.0262   77.0757    0.0000    0.0000    0.0000
       4     -0.0000   -0.0000    0.0000   16.0262    0.0000   -0.0000
       5     -0.0000   -0.0000    0.0000    0.0000   16.0262   -0.0000
       6     -0.0000    0.0000    0.0000   -0.0000   -0.0000   16.0262
-------------------------------------------------------------------------------


  Elastic Compliance Matrix: (Units=1/GPa)

-------------------------------------------------------------------------------
  Indices      1         2         3         4         5         6    
-------------------------------------------------------------------------------
       1    0.013975 -0.002406 -0.002406  0.000000  0.000000  0.000000
       2   -0.002406  0.013975 -0.002406  0.000000  0.000000 -0.000000
       3   -0.002406 -0.002406  0.013975 -0.000000 -0.000000 -0.000000
       4    0.000000  0.000000 -0.000000  0.062398 -0.000000  0.000000
       5    0.000000  0.000000 -0.000000 -0.000000  0.062398  0.000000
       6    0.000000 -0.000000 -0.000000  0.000000  0.000000  0.062398
-------------------------------------------------------------------------------

  Mechanical properties :

-------------------------------------------------------------------------------
  Convention :                    Reuss         Voigt         Hill
-------------------------------------------------------------------------------
  Bulk  Modulus (GPa)     =      36.37603      36.37603      36.37603
  Shear Modulus (GPa)     =      19.78520      21.82562      20.80541
-------------------------------------------------------------------------------
  Velocity S-wave (km/s)  =       2.93138       3.07883       3.00601
  Velocity P-wave (km/s)  =       5.22072       5.33268       5.27700
-------------------------------------------------------------------------------
  Compressibility (1/GPa) =    0.02749063
-------------------------------------------------------------------------------
  Stress axis :                     x             y             z
-------------------------------------------------------------------------------
  Youngs Moduli (GPa)     =      71.55833      71.55833      71.55833
-------------------------------------------------------------------------------
  Poissons Ratio (x)      =                     0.17214       0.17214
  Poissons Ratio (y)      =       0.17214                     0.17214
  Poissons Ratio (z)      =       0.17214       0.17214
-------------------------------------------------------------------------------


  Piezoelectric Strain Matrix: (Units=C/m**2)

-------------------------------------------------------------------------------
  Indices      1         2         3         4         5         6    
-------------------------------------------------------------------------------
       x    -0.00000  -0.00000  -0.00000  -0.00000  -0.00000   0.00000
       y     0.00000   0.00000   0.00000  -0.00000  -0.00000  -0.00000
       z     0.00000   0.00000  -0.00000   0.00000  -0.00000  -0.00000
-------------------------------------------------------------------------------


  Piezoelectric Stress Matrix: (Units=10**-11 C/N)

-------------------------------------------------------------------------------
  Indices      1         2         3         4         5         6    
-------------------------------------------------------------------------------
       x    -0.00000  -0.00000  -0.00000  -0.00000  -0.00000   0.00000
       y     0.00000   0.00000   0.00000  -0.00000  -0.00000  -0.00000
       z     0.00000   0.00000  -0.00000   0.00000  -0.00000  -0.00000
-------------------------------------------------------------------------------


  Static dielectric constant tensor : 

-------------------------------------------------------------------------------
              x         y         z
-------------------------------------------------------------------------------
       x     5.77918   0.00000   0.00000
       y     0.00000   5.77918   0.00000
       z     0.00000   0.00000   5.77918
--------------------------------------------------------------------------------

  High frequency dielectric constant tensor : 

-------------------------------------------------------------------------------
              x         y         z
-------------------------------------------------------------------------------
       x     1.30980  -0.00000  -0.00000
       y    -0.00000   1.30980  -0.00000
       z    -0.00000  -0.00000   1.30980
-------------------------------------------------------------------------------

  Static refractive indices : 

-------------------------------------------------------------------------------
    1 =    2.40399      2 =    2.40399      3 =    2.40399
-------------------------------------------------------------------------------

  High frequency refractive indices : 

-------------------------------------------------------------------------------
    1 =    1.14447      2 =    1.14447      3 =    1.14447
-------------------------------------------------------------------------------


  Time to end of optimisation =       0.0347 seconds

********************************************************************************
*  Defect calculation for configuration   1 :                                  *
********************************************************************************

  Total number of defects =      3

  Total charge on defect  =  -0.67

  Defect centre is at   0.5000   0.2500   0.2500  Frac

  Region 1 radius =  12.0000      Number of ions =    575

  Number of symmetry inequivalent region 1 ions  =    331

  Region 2 radius =  16.0000      Number of ions =    818

  Number of symmetry inequivalent region 2a ions =    447

  Region 2a mode = 4 : screened electrostatics due to region 1 
                       neglect correction to region 1 forces from 2a
                       region 2a displacements based on defects only

  Region 2a ions will only interact with defects in region 1

  Vacancies:

--------------------------------------------------------------------------------
    Specification type     Symbol/Number         x          y          z
--------------------------------------------------------------------------------
    Fractional                               0.500000   0.500000   0.000000
    Fractional                               0.500000   0.000000   0.500000
--------------------------------------------------------------------------------

  Interstitials:

--------------------------------------------------------------------------------
    Specification type     Symbol/Number         x          y          z
--------------------------------------------------------------------------------
    Atom/Fractional         Na               0.500000   0.220000   0.280000
--------------------------------------------------------------------------------


  Symmetry reduced region 1 (Relative to defect centre) :

--------------------------------------------------------------------------------
   No.   Atomic       x            y             z       Radius  Multiplicity   
         Label      (Angs)       (Angs)        (Angs)    (Angs)     
--------------------------------------------------------------------------------
     1  Na    c      0.0000      -0.1329       0.1329    0.0000     1    Defect
     2  O     c      0.0000       1.1071 *     1.1071 *  0.0000     1          
     3  Cl    c      2.2142 *    -1.1071 *    -1.1071 *  0.0000     2          
     4  Na    c      2.2142 *     1.1071 *     1.1071 *  0.0000     2          
     5  O     c      0.0000       1.1071 *    -3.3213 *  0.0000     1          
     6  O     c      0.0000      -3.3213 *     1.1071 *  0.0000     1          
     7  Na    c      0.0000       1.1071 *     3.3213 *  0.0000     1          
     8  Na    c      0.0000      -3.3213 *    -1.1071 *  0.0000     1          
     9  Na    c      0.0000      -1.1071 *    -3.3213 *  0.0000     1          
    10  Na    c      0.0000       3.3213 *     1.1071 *  0.0000     1          
    11  Cl    c      2.2142 *    -1.1071 *     3.3213 *  0.0000     2          
    12  Cl    c      2.2142 *     3.3213 *    -1.1071 *  0.0000     2          
    13  Na    c      2.2142 *     1.1071 *    -3.3213 *  0.0000     2          
    14  Na    c      2.2142 *    -3.3213 *     1.1071 *  0.0000     2          
    15  O     c      4.4285 *     1.1071 *     1.1071 *  0.0000     2          
    16  Na    c      4.4285 *     1.1071 *    -1.1071 *  0.0000     2          
    17  Na    c      4.4285 *    -1.1071 *     1.1071 *  0.0000     2          
    18  O     c      0.0000      -3.3213 *    -3.3213 *  0.0000     1          
    19  Na    c      0.0000      -3.3213 *     3.3213 *  0.0000     1          
    20  Na    c      0.0000       3.3213 *    -3.3213 *  0.0000     1          
    21  Cl    c      2.2142 *     3.3213 *     3.3213 *  0.0000     2          
    22  Na    c      2.2142 *    -3.3213 *    -3.3213 *  0.0000     2          
    23  O     c      4.4285 *     1.1071 *    -3.3213 *  0.0000     2          
    24  Na    c      4.4285 *     1.1071 *     3.3213 *  0.0000     2          
    25  Na    c      4.4285 *    -1.1071 *    -3.3213 *  0.0000     2          
    26  O     c      4.4285 *    -3.3213 *     1.1071 *  0.0000     2          
    27  Na    c      4.4285 *    -3.3213 *    -1.1071 *  0.0000     2          
    28  Na    c      4.4285 *     3.3213 *     1.1071 *  0.0000     2          
    29  O     c      0.0000       1.1071 *     5.5356 *  0.0000     1          
    30  O     c      0.0000       5.5356 *     1.1071 *  0.0000     1          
    31  Na    c      0.0000       1.1071 *    -5.5356 *  0.0000     1          
    32  Na    c      0.0000       5.5356 *    -1.1071 *  0.0000     1          
    33  Na    c      0.0000      -1.1071 *     5.5356 *  0.0000     1          
    34  Na    c      0.0000      -5.5356 *     1.1071 *  0.0000     1          
    35  Cl    c      2.2142 *    -1.1071 *    -5.5356 *  0.0000     2          
    36  Cl    c      2.2142 *    -5.5356 *    -1.1071 *  0.0000     2          
    37  Na    c      2.2142 *     1.1071 *     5.5356 *  0.0000     2          
    38  Na    c      2.2142 *     5.5356 *     1.1071 *  0.0000     2          
    39  O     c      0.0000       5.5356 *    -3.3213 *  0.0000     1          
    40  O     c      0.0000      -3.3213 *     5.5356 *  0.0000     1          
    41  O     c      4.4285 *    -3.3213 *    -3.3213 *  0.0000     2          
    42  Na    c      0.0000       5.5356 *     3.3213 *  0.0000     1          
    43  Na    c      0.0000      -3.3213 *    -5.5356 *  0.0000     1          
    44  Na    c      4.4285 *    -3.3213 *     3.3213 *  0.0000     2          
    45  Na    c      0.0000       3.3213 *     5.5356 *  0.0000     1          
    46  Na    c      0.0000      -5.5356 *    -3.3213 *  0.0000     1          
    47  Na    c      4.4285 *     3.3213 *    -3.3213 *  0.0000     2          
    48  Cl    c      2.2142 *     3.3213 *    -5.5356 *  0.0000     2          
    49  Cl    c      6.6427 *    -1.1071 *    -1.1071 *  0.0000     2          
    50  Na    c      2.2142 *    -3.3213 *     5.5356 *  0.0000     2          
    51  Na    c      6.6427 *     1.1071 *     1.1071 *  0.0000     2          
    52  Cl    c      2.2142 *    -5.5356 *     3.3213 *  0.0000     2          
    53  Na    c      2.2142 *     5.5356 *    -3.3213 *  0.0000     2          
    54  O     c      4.4285 *     1.1071 *     5.5356 *  0.0000     2          
    55  O     c      4.4285 *     5.5356 *     1.1071 *  0.0000     2          
    56  Na    c      4.4285 *     1.1071 *    -5.5356 *  0.0000     2          
    57  Na    c      4.4285 *     5.5356 *    -1.1071 *  0.0000     2          
    58  Na    c      4.4285 *    -1.1071 *     5.5356 *  0.0000     2          
    59  Na    c      4.4285 *    -5.5356 *     1.1071 *  0.0000     2          
    60  Cl    c      6.6427 *     3.3213 *    -1.1071 *  0.0000     2          
    61  Na    c      6.6427 *    -3.3213 *     1.1071 *  0.0000     2          
    62  Cl    c      6.6427 *    -1.1071 *     3.3213 *  0.0000     2          
    63  Na    c      6.6427 *     1.1071 *    -3.3213 *  0.0000     2          
    64  O     c      0.0000       1.1071 *    -7.7498 *  0.0000     1          
    65  O     c      0.0000      -7.7498 *     1.1071 *  0.0000     1          
    66  Na    c      0.0000       1.1071 *     7.7498 *  0.0000     1          
    67  Na    c      0.0000      -7.7498 *    -1.1071 *  0.0000     1          
    68  Na    c      0.0000      -1.1071 *    -7.7498 *  0.0000     1          
    69  Na    c      0.0000       7.7498 *     1.1071 *  0.0000     1          
    70  O     c      4.4285 *    -3.3213 *     5.5356 *  0.0000     2          
    71  Na    c      4.4285 *    -3.3213 *    -5.5356 *  0.0000     2          
    72  Na    c      4.4285 *     3.3213 *     5.5356 *  0.0000     2          
    73  O     c      0.0000       5.5356 *     5.5356 *  0.0000     1          
    74  O     c      4.4285 *     5.5356 *    -3.3213 *  0.0000     2          
    75  Na    c      0.0000       5.5356 *    -5.5356 *  0.0000     1          
    76  Na    c      4.4285 *     5.5356 *     3.3213 *  0.0000     2          
    77  Na    c      0.0000      -5.5356 *     5.5356 *  0.0000     1          
    78  Na    c      4.4285 *    -5.5356 *    -3.3213 *  0.0000     2          
    79  Cl    c      2.2142 *    -1.1071 *     7.7498 *  0.0000     2          
    80  Cl    c      2.2142 *     7.7498 *    -1.1071 *  0.0000     2          
    81  Na    c      2.2142 *     1.1071 *    -7.7498 *  0.0000     2          
    82  Na    c      2.2142 *    -7.7498 *     1.1071 *  0.0000     2          
    83  Cl    c      6.6427 *     3.3213 *     3.3213 *  0.0000     2          
    84  Na    c      6.6427 *    -3.3213 *    -3.3213 *  0.0000     2          
    85  Cl    c      2.2142 *    -5.5356 *    -5.5356 *  0.0000     2          
    86  Na    c      2.2142 *     5.5356 *     5.5356 *  0.0000     2          
    87  O     c      0.0000      -3.3213 *    -7.7498 *  0.0000     1          
    88  O     c      0.0000      -7.7498 *    -3.3213 *  0.0000     1          
    89  Na    c      0.0000      -3.3213 *     7.7498 *  0.0000     1          
    90  Na    c      0.0000      -7.7498 *     3.3213 *  0.0000     1          
    91  Na    c      0.0000       3.3213 *    -7.7498 *  0.0000     1          
    92  Na    c      0.0000       7.7498 *    -3.3213 *  0.0000     1          
    93  Cl    c      2.2142 *     3.3213 *     7.7498 *  0.0000     2          
    94  Cl    c      2.2142 *     7.7498 *     3.3213 *  0.0000     2          
    95  Na    c      2.2142 *    -3.3213 *    -7.7498 *  0.0000     2          
    96  Na    c      2.2142 *    -7.7498 *    -3.3213 *  0.0000     2          
    97  Cl    c      6.6427 *    -5.5356 *    -1.1071 *  0.0000     2          
    98  Na    c      6.6427 *     5.5356 *     1.1071 *  0.0000     2          
    99  Cl    c      6.6427 *    -1.1071 *    -5.5356 *  0.0000     2          
   100  Na    c      6.6427 *     1.1071 *     5.5356 *  0.0000     2          
   101  O     c      4.4285 *     1.1071 *    -7.7498 *  0.0000     2          
   102  O     c      4.4285 *    -7.7498 *     1.1071 *  0.0000     2          
   103  O     c      8.8569 *     1.1071 *     1.1071 *  0.0000     2          
   104  Na    c      4.4285 *     1.1071 *     7.7498 *  0.0000     2          
   105  Na    c      4.4285 *    -7.7498 *    -1.1071 *  0.0000     2          
   106  Na    c      8.8569 *     1.1071 *    -1.1071 *  0.0000     2          
   107  Na    c      4.4285 *    -1.1071 *    -7.7498 *  0.0000     2          
   108  Na    c      4.4285 *     7.7498 *     1.1071 *  0.0000     2          
   109  Na    c      8.8569 *    -1.1071 *     1.1071 *  0.0000     2          
   110  O     c      4.4285 *     5.5356 *     5.5356 *  0.0000     2          
   111  Na    c      4.4285 *     5.5356 *    -5.5356 *  0.0000     2          
   112  Na    c      4.4285 *    -5.5356 *     5.5356 *  0.0000     2          
   113  Cl    c      6.6427 *    -5.5356 *     3.3213 *  0.0000     2          
   114  Na    c      6.6427 *     5.5356 *    -3.3213 *  0.0000     2          
   115  Cl    c      6.6427 *     3.3213 *    -5.5356 *  0.0000     2          
   116  Na    c      6.6427 *    -3.3213 *     5.5356 *  0.0000     2          
   117  O     c      4.4285 *    -3.3213 *    -7.7498 *  0.0000     2          
   118  O     c      4.4285 *    -7.7498 *    -3.3213 *  0.0000     2          
   119  O     c      8.8569 *     1.1071 *    -3.3213 *  0.0000     2          
   120  O     c      8.8569 *    -3.3213 *     1.1071 *  0.0000     2          
   121  Na    c      4.4285 *    -3.3213 *     7.7498 *  0.0000     2          
   122  Na    c      4.4285 *    -7.7498 *     3.3213 *  0.0000     2          
   123  Na    c      8.8569 *     1.1071 *     3.3213 *  0.0000     2          
   124  Na    c      8.8569 *    -3.3213 *    -1.1071 *  0.0000     2          
   125  Na    c      4.4285 *     3.3213 *    -7.7498 *  0.0000     2          
   126  Na    c      4.4285 *     7.7498 *    -3.3213 *  0.0000     2          
   127  Na    c      8.8569 *    -1.1071 *    -3.3213 *  0.0000     2          
   128  Na    c      8.8569 *     3.3213 *     1.1071 *  0.0000     2          
   129  O     c      0.0000       5.5356 *    -7.7498 *  0.0000     1          
   130  O     c      0.0000      -7.7498 *     5.5356 *  0.0000     1          
   131  Na    c      0.0000       5.5356 *     7.7498 *  0.0000     1          
   132  Na    c      0.0000      -7.7498 *    -5.5356 *  0.0000     1          
   133  Na    c      0.0000       7.7498 *     5.5356 *  0.0000     1          
   134  Na    c      0.0000      -5.5356 *    -7.7498 *  0.0000     1          
   135  Cl    c      2.2142 *     7.7498 *    -5.5356 *  0.0000     2          
   136  Cl    c      2.2142 *    -5.5356 *     7.7498 *  0.0000     2          
   137  Na    c      2.2142 *     5.5356 *    -7.7498 *  0.0000     2          
   138  Na    c      2.2142 *    -7.7498 *     5.5356 *  0.0000     2          
   139  O     c      8.8569 *    -3.3213 *    -3.3213 *  0.0000     2          
   140  Na    c      8.8569 *    -3.3213 *     3.3213 *  0.0000     2          
   141  Na    c      8.8569 *     3.3213 *    -3.3213 *  0.0000     2          
   142  O     c      0.0000       1.1071 *     9.9640 *  0.0000     1          
   143  O     c      0.0000       9.9640 *     1.1071 *  0.0000     1          
   144  Na    c      0.0000       1.1071 *    -9.9640 *  0.0000     1          
   145  Na    c      0.0000       9.9640 *    -1.1071 *  0.0000     1          
   146  Na    c      0.0000      -1.1071 *     9.9640 *  0.0000     1          
   147  Na    c      0.0000      -9.9640 *     1.1071 *  0.0000     1          
   148  Cl    c      2.2142 *    -1.1071 *    -9.9640 *  0.0000     2          
   149  Cl    c      2.2142 *    -9.9640 *    -1.1071 *  0.0000     2          
   150  Cl    c      6.6427 *    -1.1071 *     7.7498 *  0.0000     2          
   151  Cl    c      6.6427 *     7.7498 *    -1.1071 *  0.0000     2          
   152  Na    c      2.2142 *     1.1071 *     9.9640 *  0.0000     2          
   153  Na    c      2.2142 *     9.9640 *     1.1071 *  0.0000     2          
   154  Na    c      6.6427 *     1.1071 *    -7.7498 *  0.0000     2          
   155  Na    c      6.6427 *    -7.7498 *     1.1071 *  0.0000     2          
   156  Cl    c      6.6427 *    -5.5356 *    -5.5356 *  0.0000     2          
   157  Na    c      6.6427 *     5.5356 *     5.5356 *  0.0000     2          
   158  O     c      0.0000       9.9640 *    -3.3213 *  0.0000     1          
   159  O     c      0.0000      -3.3213 *     9.9640 *  0.0000     1          
   160  O     c      4.4285 *     5.5356 *    -7.7498 *  0.0000     2          
   161  O     c      4.4285 *    -7.7498 *     5.5356 *  0.0000     2          
   162  O     c      8.8569 *     1.1071 *     5.5356 *  0.0000     2          
   163  O     c      8.8569 *     5.5356 *     1.1071 *  0.0000     2          
   164  Na    c      0.0000       9.9640 *     3.3213 *  0.0000     1          
   165  Na    c      0.0000      -3.3213 *    -9.9640 *  0.0000     1          
   166  Na    c      4.4285 *     5.5356 *     7.7498 *  0.0000     2          
   167  Na    c      4.4285 *    -7.7498 *    -5.5356 *  0.0000     2          
   168  Na    c      8.8569 *     1.1071 *    -5.5356 *  0.0000     2          
   169  Na    c      8.8569 *     5.5356 *    -1.1071 *  0.0000     2          
   170  Na    c      0.0000       3.3213 *     9.9640 *  0.0000     1          
   171  Na    c      0.0000      -9.9640 *    -3.3213 *  0.0000     1          
   172  Na    c      4.4285 *     7.7498 *     5.5356 *  0.0000     2          
   173  Na    c      4.4285 *    -5.5356 *    -7.7498 *  0.0000     2          
   174  Na    c      8.8569 *    -1.1071 *     5.5356 *  0.0000     2          
   175  Na    c      8.8569 *    -5.5356 *     1.1071 *  0.0000     2          
   176  Cl    c      2.2142 *     3.3213 *    -9.9640 *  0.0000     2          
   177  Cl    c      2.2142 *    -9.9640 *     3.3213 *  0.0000     2          
   178  Cl    c      6.6427 *     3.3213 *     7.7498 *  0.0000     2          
   179  Cl    c      6.6427 *     7.7498 *     3.3213 *  0.0000     2          
   180  Na    c      2.2142 *     9.9640 *    -3.3213 *  0.0000     2          
   181  Na    c      2.2142 *    -3.3213 *     9.9640 *  0.0000     2          
   182  Na    c      6.6427 *    -3.3213 *    -7.7498 *  0.0000     2          
   183  Na    c      6.6427 *    -7.7498 *    -3.3213 *  0.0000     2          
   184  O     c      0.0000      -7.7498 *    -7.7498 *  0.0000     1          
   185  Na    c      0.0000      -7.7498 *     7.7498 *  0.0000     1          
   186  Na    c      0.0000       7.7498 *    -7.7498 *  0.0000     1          
   187  O     c      4.4285 *     1.1071 *     9.9640 *  0.0000     2          
   188  O     c      4.4285 *     9.9640 *     1.1071 *  0.0000     2          
   189  O     c      8.8569 *     5.5356 *    -3.3213 *  0.0000     2          
   190  O     c      8.8569 *    -3.3213 *     5.5356 *  0.0000     2          
   191  Na    c      4.4285 *     1.1071 *    -9.9640 *  0.0000     2          
   192  Na    c      4.4285 *     9.9640 *    -1.1071 *  0.0000     2          
   193  Na    c      8.8569 *     5.5356 *     3.3213 *  0.0000     2          
   194  Na    c      8.8569 *    -3.3213 *    -5.5356 *  0.0000     2          
   195  Na    c      4.4285 *    -1.1071 *     9.9640 *  0.0000     2          
   196  Na    c      4.4285 *    -9.9640 *     1.1071 *  0.0000     2          
   197  Na    c      8.8569 *     3.3213 *     5.5356 *  0.0000     2          
   198  Na    c      8.8569 *    -5.5356 *    -3.3213 *  0.0000     2          
   199  Cl    c      2.2142 *     7.7498 *     7.7498 *  0.0000     2          
   200  Na    c      2.2142 *    -7.7498 *    -7.7498 *  0.0000     2          
   201  Cl    c     11.0712 *    -1.1071 *    -1.1071 *  0.0000     2          
   202  Na    c     11.0712 *     1.1071 *     1.1071 *  0.0000     2          
   203  O     c      0.0000       5.5356 *     9.9640 *  0.0000     1          
   204  O     c      0.0000       9.9640 *     5.5356 *  0.0000     1          
   205  O     c      4.4285 *     9.9640 *    -3.3213 *  0.0000     2          
   206  O     c      4.4285 *    -3.3213 *     9.9640 *  0.0000     2          
   207  Na    c      0.0000       5.5356 *    -9.9640 *  0.0000     1          
   208  Na    c      0.0000       9.9640 *    -5.5356 *  0.0000     1          
   209  Na    c      4.4285 *     9.9640 *     3.3213 *  0.0000     2          
   210  Na    c      4.4285 *    -3.3213 *    -9.9640 *  0.0000     2          
   211  Na    c      0.0000      -5.5356 *     9.9640 *  0.0000     1          
   212  Na    c      0.0000      -9.9640 *     5.5356 *  0.0000     1          
   213  Na    c      4.4285 *     3.3213 *     9.9640 *  0.0000     2          
   214  Na    c      4.4285 *    -9.9640 *    -3.3213 *  0.0000     2          
   215  Cl    c      2.2142 *    -5.5356 *    -9.9640 *  0.0000     2          
   216  Cl    c      2.2142 *    -9.9640 *    -5.5356 *  0.0000     2          
   217  Cl    c      6.6427 *     7.7498 *    -5.5356 *  0.0000     2          
   218  Cl    c      6.6427 *    -5.5356 *     7.7498 *  0.0000     2          
   219  Na    c      2.2142 *     5.5356 *     9.9640 *  0.0000     2          
   220  Na    c      2.2142 *     9.9640 *     5.5356 *  0.0000     2          
   221  Na    c      6.6427 *     5.5356 *    -7.7498 *  0.0000     2          
   222  Na    c      6.6427 *    -7.7498 *     5.5356 *  0.0000     2          
   223  Cl    c     11.0712 *    -1.1071 *     3.3213 *  0.0000     2          
   224  Cl    c     11.0712 *     3.3213 *    -1.1071 *  0.0000     2          
   225  Na    c     11.0712 *     1.1071 *    -3.3213 *  0.0000     2          
   226  Na    c     11.0712 *    -3.3213 *     1.1071 *  0.0000     2          
   227  O     c      4.4285 *    -7.7498 *    -7.7498 *  0.0000     2          
   228  O     c      8.8569 *     1.1071 *    -7.7498 *  0.0000     2          
   229  O     c      8.8569 *    -7.7498 *     1.1071 *  0.0000     2          
   230  Na    c      4.4285 *    -7.7498 *     7.7498 *  0.0000     2          
   231  Na    c      8.8569 *     1.1071 *     7.7498 *  0.0000     2          
   232  Na    c      8.8569 *    -7.7498 *    -1.1071 *  0.0000     2          
   233  Na    c      4.4285 *     7.7498 *    -7.7498 *  0.0000     2          
   234  Na    c      8.8569 *    -1.1071 *    -7.7498 *  0.0000     2          
   235  Na    c      8.8569 *     7.7498 *     1.1071 *  0.0000     2          
   236  O     c      8.8569 *     5.5356 *     5.5356 *  0.0000     2          
   237  Na    c      8.8569 *     5.5356 *    -5.5356 *  0.0000     2          
   238  Na    c      8.8569 *    -5.5356 *     5.5356 *  0.0000     2          
   239  O     s      0.0000       1.1071 *     1.1071 *  0.0000     1          
   240  Cl    s      2.2142 *    -1.1071 *    -1.1071 *  0.0000     2          
   241  O     s      0.0000       1.1071 *    -3.3213 *  0.0000     1          
   242  O     s      0.0000      -3.3213 *     1.1071 *  0.0000     1          
   243  Cl    s      2.2142 *    -1.1071 *     3.3213 *  0.0000     2          
   244  Cl    s      2.2142 *     3.3213 *    -1.1071 *  0.0000     2          
   245  O     s      4.4285 *     1.1071 *     1.1071 *  0.0000     2          
   246  O     s      0.0000      -3.3213 *    -3.3213 *  0.0000     1          
   247  Cl    s      2.2142 *     3.3213 *     3.3213 *  0.0000     2          
   248  O     s      4.4285 *     1.1071 *    -3.3213 *  0.0000     2          
   249  O     s      4.4285 *    -3.3213 *     1.1071 *  0.0000     2          
   250  O     s      0.0000       1.1071 *     5.5356 *  0.0000     1          
   251  O     s      0.0000       5.5356 *     1.1071 *  0.0000     1          
   252  Cl    s      2.2142 *    -1.1071 *    -5.5356 *  0.0000     2          
   253  Cl    s      2.2142 *    -5.5356 *    -1.1071 *  0.0000     2          
   254  O     s      0.0000       5.5356 *    -3.3213 *  0.0000     1          
   255  O     s      0.0000      -3.3213 *     5.5356 *  0.0000     1          
   256  O     s      4.4285 *    -3.3213 *    -3.3213 *  0.0000     2          
   257  Cl    s      2.2142 *     3.3213 *    -5.5356 *  0.0000     2          
   258  Cl    s      6.6427 *    -1.1071 *    -1.1071 *  0.0000     2          
   259  Cl    s      2.2142 *    -5.5356 *     3.3213 *  0.0000     2          
   260  O     s      4.4285 *     1.1071 *     5.5356 *  0.0000     2          
   261  O     s      4.4285 *     5.5356 *     1.1071 *  0.0000     2          
   262  Cl    s      6.6427 *     3.3213 *    -1.1071 *  0.0000     2          
   263  Cl    s      6.6427 *    -1.1071 *     3.3213 *  0.0000     2          
   264  O     s      0.0000       1.1071 *    -7.7498 *  0.0000     1          
   265  O     s      0.0000      -7.7498 *     1.1071 *  0.0000     1          
   266  O     s      4.4285 *    -3.3213 *     5.5356 *  0.0000     2          
   267  O     s      0.0000       5.5356 *     5.5356 *  0.0000     1          
   268  O     s      4.4285 *     5.5356 *    -3.3213 *  0.0000     2          
   269  Cl    s      2.2142 *    -1.1071 *     7.7498 *  0.0000     2          
   270  Cl    s      2.2142 *     7.7498 *    -1.1071 *  0.0000     2          
   271  Cl    s      6.6427 *     3.3213 *     3.3213 *  0.0000     2          
   272  Cl    s      2.2142 *    -5.5356 *    -5.5356 *  0.0000     2          
   273  O     s      0.0000      -3.3213 *    -7.7498 *  0.0000     1          
   274  O     s      0.0000      -7.7498 *    -3.3213 *  0.0000     1          
   275  Cl    s      2.2142 *     3.3213 *     7.7498 *  0.0000     2          
   276  Cl    s      2.2142 *     7.7498 *     3.3213 *  0.0000     2          
   277  Cl    s      6.6427 *    -5.5356 *    -1.1071 *  0.0000     2          
   278  Cl    s      6.6427 *    -1.1071 *    -5.5356 *  0.0000     2          
   279  O     s      4.4285 *     1.1071 *    -7.7498 *  0.0000     2          
   280  O     s      4.4285 *    -7.7498 *     1.1071 *  0.0000     2          
   281  O     s      8.8569 *     1.1071 *     1.1071 *  0.0000     2          
   282  O     s      4.4285 *     5.5356 *     5.5356 *  0.0000     2          
   283  Cl    s      6.6427 *    -5.5356 *     3.3213 *  0.0000     2          
   284  Cl    s      6.6427 *     3.3213 *    -5.5356 *  0.0000     2          
   285  O     s      4.4285 *    -3.3213 *    -7.7498 *  0.0000     2          
   286  O     s      4.4285 *    -7.7498 *    -3.3213 *  0.0000     2          
   287  O     s      8.8569 *     1.1071 *    -3.3213 *  0.0000     2          
   288  O     s      8.8569 *    -3.3213 *     1.1071 *  0.0000     2          
   289  O     s      0.0000       5.5356 *    -7.7498 *  0.0000     1          
   290  O     s      0.0000      -7.7498 *     5.5356 *  0.0000     1          
   291  Cl    s      2.2142 *     7.7498 *    -5.5356 *  0.0000     2          
   292  Cl    s      2.2142 *    -5.5356 *     7.7498 *  0.0000     2          
   293  O     s      8.8569 *    -3.3213 *    -3.3213 *  0.0000     2          
   294  O     s      0.0000       1.1071 *     9.9640 *  0.0000     1          
   295  O     s      0.0000       9.9640 *     1.1071 *  0.0000     1          
   296  Cl    s      2.2142 *    -1.1071 *    -9.9640 *  0.0000     2          
   297  Cl    s      2.2142 *    -9.9640 *    -1.1071 *  0.0000     2          
   298  Cl    s      6.6427 *    -1.1071 *     7.7498 *  0.0000     2          
   299  Cl    s      6.6427 *     7.7498 *    -1.1071 *  0.0000     2          
   300  Cl    s      6.6427 *    -5.5356 *    -5.5356 *  0.0000     2          
   301  O     s      0.0000       9.9640 *    -3.3213 *  0.0000     1          
   302  O     s      0.0000      -3.3213 *     9.9640 *  0.0000     1          
   303  O     s      4.4285 *     5.5356 *    -7.7498 *  0.0000     2          
   304  O     s      4.4285 *    -7.7498 *     5.5356 *  0.0000     2          
   305  O     s      8.8569 *     1.1071 *     5.5356 *  0.0000     2          
   306  O     s      8.8569 *     5.5356 *     1.1071 *  0.0000     2          
   307  Cl    s      2.2142 *     3.3213 *    -9.9640 *  0.0000     2          
   308  Cl    s      2.2142 *    -9.9640 *     3.3213 *  0.0000     2          
   309  Cl    s      6.6427 *     3.3213 *     7.7498 *  0.0000     2          
   310  Cl    s      6.6427 *     7.7498 *     3.3213 *  0.0000     2          
   311  O     s      0.0000      -7.7498 *    -7.7498 *  0.0000     1          
   312  O     s      4.4285 *     1.1071 *     9.9640 *  0.0000     2          
   313  O     s      4.4285 *     9.9640 *     1.1071 *  0.0000     2          
   314  O     s      8.8569 *     5.5356 *    -3.3213 *  0.0000     2          
   315  O     s      8.8569 *    -3.3213 *     5.5356 *  0.0000     2          
   316  Cl    s      2.2142 *     7.7498 *     7.7498 *  0.0000     2          
   317  Cl    s     11.0712 *    -1.1071 *    -1.1071 *  0.0000     2          
   318  O     s      0.0000       5.5356 *     9.9640 *  0.0000     1          
   319  O     s      0.0000       9.9640 *     5.5356 *  0.0000     1          
   320  O     s      4.4285 *     9.9640 *    -3.3213 *  0.0000     2          
   321  O     s      4.4285 *    -3.3213 *     9.9640 *  0.0000     2          
   322  Cl    s      2.2142 *    -5.5356 *    -9.9640 *  0.0000     2          
   323  Cl    s      2.2142 *    -9.9640 *    -5.5356 *  0.0000     2          
   324  Cl    s      6.6427 *     7.7498 *    -5.5356 *  0.0000     2          
   325  Cl    s      6.6427 *    -5.5356 *     7.7498 *  0.0000     2          
   326  Cl    s     11.0712 *    -1.1071 *     3.3213 *  0.0000     2          
   327  Cl    s     11.0712 *     3.3213 *    -1.1071 *  0.0000     2          
   328  O     s      4.4285 *    -7.7498 *    -7.7498 *  0.0000     2          
   329  O     s      8.8569 *     1.1071 *    -7.7498 *  0.0000     2          
   330  O     s      8.8569 *    -7.7498 *     1.1071 *  0.0000     2          
   331  O     s      8.8569 *     5.5356 *     5.5356 *  0.0000     2          
--------------------------------------------------------------------------------

  Components of defect energy : 

--------------------------------------------------------------------------------
  Region 1 - region 1                   =      7.37094070 eV
  Region 1 - region 2a (unrelaxed)      =     -0.01118956 eV
  Region 1 - 2a (relaxed - correction)  =     -0.11650402 eV
  Region 1 (Total)                      =      7.24324712 eV
  Region 2a                             =      0.05823179 eV
  Region 2b                             =     -0.16621768 eV
--------------------------------------------------------------------------------
  Total defect energy                   =      7.13526123 eV
--------------------------------------------------------------------------------

  Largest displacement in region 2 =   0.0178 Angstroms


  Number of variables =      904

  Maximum number of calculations  =        1000
  Maximum Hessian update interval =          10
  Maximum step size               =   1.0000000
  Maximum parameter tolerance     =   0.0000100
  Maximum function  tolerance     =   0.0000100
  Maximum gradient  tolerance     =   0.0010000

  Symmetry adapted optimisation

  Symmetry to be used for second derivatives

  Newton-Raphson optimiser to be used

  BFGS hessian update to be used

  Lower half triangular hessian to be used

  Start of defect optimisation :

  Cycle:      0 Defect Energy:   7.135261  Gnorm:     0.024526  CPU:    3.015
  ** Hessian calculated **
  Cycle:      1 Defect Energy:   5.852205  Gnorm:     0.019144  CPU:    8.706
  Cycle:      2 Defect Energy:   4.094961  Gnorm:     0.010514  CPU:   13.649
  Cycle:      3 Defect Energy:   3.353670  Gnorm:     0.005205  CPU:   18.417
  ** Hessian calculated **
  Cycle:      4 Defect Energy:   3.012537  Gnorm:     0.001345  CPU:   23.600
  ** Hessian calculated **
  Cycle:      5 Defect Energy:   2.937398  Gnorm:     0.000926  CPU:   30.439
  Cycle:      6 Defect Energy:   2.903060  Gnorm:     0.000649  CPU:   31.526
  Cycle:      7 Defect Energy:   2.884838  Gnorm:     0.000459  CPU:   32.653
  Cycle:      8 Defect Energy:   2.873077  Gnorm:     0.000320  CPU:   33.722
  Cycle:      9 Defect Energy:   2.864322  Gnorm:     0.000214  CPU:   34.876
  Cycle:     10 Defect Energy:   2.856813  Gnorm:     0.000138  CPU:   35.934
  Cycle:     11 Defect Energy:   2.849117  Gnorm:     0.000098  CPU:   36.948
  Cycle:     12 Defect Energy:   2.841141  Gnorm:     0.000123  CPU:   37.956
  Cycle:     13 Defect Energy:   2.836265  Gnorm:     0.000140  CPU:   38.965
  Cycle:     14 Defect Energy:   2.833212  Gnorm:     0.000136  CPU:   40.106
  ** Hessian calculated **
  Cycle:     15 Defect Energy:   2.827025  Gnorm:     0.000106  CPU:   42.543
  Cycle:     16 Defect Energy:   2.822504  Gnorm:     0.000086  CPU:   43.554
  Cycle:     17 Defect Energy:   2.819961  Gnorm:     0.000060  CPU:   44.546
  Cycle:     18 Defect Energy:   2.818678  Gnorm:     0.000045  CPU:   45.600
  Cycle:     19 Defect Energy:   2.817905  Gnorm:     0.000033  CPU:   46.523
  Cycle:     20 Defect Energy:   2.817453  Gnorm:     0.000024  CPU:   47.472
  Cycle:     21 Defect Energy:   2.817192  Gnorm:     0.000017  CPU:   48.388
  Cycle:     22 Defect Energy:   2.817045  Gnorm:     0.000014  CPU:   49.411
  Cycle:     23 Defect Energy:   2.816962  Gnorm:     0.000007  CPU:   50.315
  Cycle:     24 Defect Energy:   2.816910  Gnorm:     0.000007  CPU:   51.212
  ** Hessian calculated **
  Cycle:     25 Defect Energy:   2.816893  Gnorm:     0.000005  CPU:   53.613


  **** Optimisation achieved ****


  Final defect energy  =        2.81688370
  Final defect Gnorm   =        0.00000358

  Components of defect energy : 

--------------------------------------------------------------------------------
  Region 1 - region 1                   =      3.50796608 eV
  Region 1 - region 2a (unrelaxed)      =     -0.47618191 eV
  Region 1 - 2a (relaxed - correction)  =     -0.09739075 eV
  Region 1 (Total)                      =      2.93439342 eV
  Region 2a                             =      0.04870741 eV
  Region 2b                             =     -0.16621713 eV
--------------------------------------------------------------------------------
  Total defect energy                   =      2.81688370 eV
--------------------------------------------------------------------------------

  Largest displacement in region 2 =   0.0178 Angstroms

  Final coordinates of region 1 :

--------------------------------------------------------------------------------
   No.  Atomic        x           y           z          Radius      Charge
        Label       (Angs)      (Angs)      (Angs)       (Angs)       (e) 
--------------------------------------------------------------------------------
     1  Na    c     2.214230    0.974261    1.239969    0.000000    0.670000
     2  O     c     2.214230    2.602448    2.529737    0.000000    0.489000
     3  Cl    c     4.513381   -0.051619   -0.036835    0.000000    0.615000
     4  Cl    c    -0.084920   -0.051619   -0.036835    0.000000    0.615000
     5  Na    c     4.419023    2.588000    2.461835    0.000000    0.670000
     6  Na    c     0.009438    2.588000    2.461835    0.000000    0.670000
     7  O     c     2.214230    2.246270   -2.270467    0.000000    0.489000
     8  O     c     2.214230   -2.236479    2.229231    0.000000    0.489000
     9  Na    c     2.214230    1.945467    4.548459    0.000000    0.670000
    10  Na    c     2.214230   -2.238150    0.038921    0.000000    0.670000
    11  Na    c     2.214230    0.058158   -2.182416    0.000000    0.670000
    12  Na    c     2.214230    4.563629    1.725230    0.000000    0.670000
    13  Cl    c     4.537987    0.036294    4.559475    0.000000    0.615000
    14  Cl    c    -0.109526    0.036294    4.559475    0.000000    0.615000
    15  Cl    c     4.565207    4.563182    0.012852    0.000000    0.615000
    16  Cl    c    -0.136746    4.563182    0.012852    0.000000    0.615000
    17  Na    c     4.371368    2.229729   -1.998377    0.000000    0.670000
    18  Na    c     0.057093    2.229729   -1.998377    0.000000    0.670000
    19  Na    c     4.382471   -2.070198    2.221882    0.000000    0.670000
    20  Na    c     0.045990   -2.070198    2.221882    0.000000    0.670000
    21  O     c     6.631370    2.268319    2.258460    0.000000    0.489000
    22  O     c    -2.202909    2.268319    2.258460    0.000000    0.489000
    23  Na    c     6.589437    2.270872    0.044857    0.000000    0.670000
    24  Na    c    -2.160976    2.270872    0.044857    0.000000    0.670000
    25  Na    c     6.503258    0.057000    2.208064    0.000000    0.670000
    26  Na    c    -2.074797    0.057000    2.208064    0.000000    0.670000
    27  O     c     2.214230   -2.184511   -2.193426    0.000000    0.489000
    28  Na    c     2.214230   -1.774803    4.378798    0.000000    0.670000
    29  Na    c     2.214230    4.394932   -1.819239    0.000000    0.670000
    30  Cl    c     4.612068    4.556480    4.565060    0.000000    0.615000
    31  Cl    c    -0.183607    4.556480    4.565060    0.000000    0.615000
    32  Na    c     4.424746   -2.180372   -2.191809    0.000000    0.670000
    33  Na    c     0.003715   -2.180372   -2.191809    0.000000    0.670000
    34  O     c     6.610510    2.226463   -2.178024    0.000000    0.489000
    35  O     c    -2.182049    2.226463   -2.178024    0.000000    0.489000
    36  Na    c     6.691856    2.205128    4.469181    0.000000    0.670000
    37  Na    c    -2.263395    2.205128    4.469181    0.000000    0.670000
    38  Na    c     6.608443    0.013170   -2.172646    0.000000    0.670000
    39  Na    c    -2.179982    0.013170   -2.172646    0.000000    0.670000
    40  O     c     6.616509   -2.169703    2.224566    0.000000    0.489000
    41  O     c    -2.188048   -2.169703    2.224566    0.000000    0.489000
    42  Na    c     6.611375   -2.215889    0.010110    0.000000    0.670000
    43  Na    c    -2.182914   -2.215889    0.010110    0.000000    0.670000
    44  Na    c     6.782469    4.475942    2.246781    0.000000    0.670000
    45  Na    c    -2.354008    4.475942    2.246781    0.000000    0.670000
    46  O     c     2.214230    2.196748    6.728879    0.000000    0.489000
    47  O     c     2.214230    6.719090    2.176640    0.000000    0.489000
    48  Na    c     2.214230    2.395121   -4.432750    0.000000    0.670000
    49  Na    c     2.214230    7.043032   -0.016393    0.000000    0.670000
    50  Na    c     2.214230   -0.004405    6.945964    0.000000    0.670000
    51  Na    c     2.214230   -4.412467    2.423039    0.000000    0.670000
    52  Cl    c     4.476280   -0.061223   -4.489196    0.000000    0.615000
    53  Cl    c    -0.047819   -0.061223   -4.489196    0.000000    0.615000
    54  Cl    c     4.470687   -4.468412   -0.048258    0.000000    0.615000
    55  Cl    c    -0.042226   -4.468412   -0.048258    0.000000    0.615000
    56  Na    c     4.439192    2.227642    6.658365    0.000000    0.670000
    57  Na    c    -0.010731    2.227642    6.658365    0.000000    0.670000
    58  Na    c     4.441590    6.634028    2.222146    0.000000    0.670000
    59  Na    c    -0.013129    6.634028    2.222146    0.000000    0.670000
    60  O     c     2.214230    6.632987   -2.194155    0.000000    0.489000
    61  O     c     2.214230   -2.192231    6.613134    0.000000    0.489000
    62  O     c     6.644718   -2.207546   -2.210157    0.000000    0.489000
    63  O     c    -2.216258   -2.207546   -2.210157    0.000000    0.489000
    64  Na    c     2.214230    6.400405    4.378133    0.000000    0.670000
    65  Na    c     2.214230   -2.174640   -4.409409    0.000000    0.670000
    66  Na    c     6.648265   -2.155431    4.433176    0.000000    0.670000
    67  Na    c    -2.219804   -2.155431    4.433176    0.000000    0.670000
    68  Na    c     2.214230    4.402915    6.583900    0.000000    0.670000
    69  Na    c     2.214230   -4.403253   -2.238897    0.000000    0.670000
    70  Na    c     6.631451    4.435885   -2.214548    0.000000    0.670000
    71  Na    c    -2.202990    4.435885   -2.214548    0.000000    0.670000
    72  Cl    c     4.498235    4.488850   -4.502860    0.000000    0.615000
    73  Cl    c    -0.069774    4.488850   -4.502860    0.000000    0.615000
    74  Cl    c     8.884764    0.016642    0.012160    0.000000    0.615000
    75  Cl    c    -4.456303    0.016642    0.012160    0.000000    0.615000
    76  Na    c     4.426812   -2.216367    6.584926    0.000000    0.670000
    77  Na    c     0.001649   -2.216367    6.584926    0.000000    0.670000
    78  Na    c     8.847000    2.139602    2.212600    0.000000    0.670000
    79  Na    c    -4.418539    2.139602    2.212600    0.000000    0.670000
    80  Cl    c     4.494587   -4.492111    4.467956    0.000000    0.615000
    81  Cl    c    -0.066126   -4.492111    4.467956    0.000000    0.615000
    82  Na    c     4.428065    6.599190   -2.211725    0.000000    0.670000
    83  Na    c     0.000395    6.599190   -2.211725    0.000000    0.670000
    84  O     c     6.660497    2.224275    6.679993    0.000000    0.489000
    85  O     c    -2.232036    2.224275    6.679993    0.000000    0.489000
    86  O     c     6.664953    6.682164    2.223418    0.000000    0.489000
    87  O     c    -2.236492    6.682164    2.223418    0.000000    0.489000
    88  Na    c     6.519183    2.208066   -4.396178    0.000000    0.670000
    89  Na    c    -2.090722    2.208066   -4.396178    0.000000    0.670000
    90  Na    c     6.631815    6.645576    0.002458    0.000000    0.670000
    91  Na    c    -2.203354    6.645576    0.002458    0.000000    0.670000
    92  Na    c     6.623440    0.005675    6.683403    0.000000    0.670000
    93  Na    c    -2.194979    0.005675    6.683403    0.000000    0.670000
    94  Na    c     6.587558   -4.392300    2.250241    0.000000    0.670000
    95  Na    c    -2.159097   -4.392300    2.250241    0.000000    0.670000
    96  Cl    c     8.886662    4.451299    0.014163    0.000000    0.615000
    97  Cl    c    -4.458201    4.451299    0.014163    0.000000    0.615000
    98  Na    c     8.834074   -2.138979    2.200428    0.000000    0.670000
    99  Na    c    -4.405613   -2.138979    2.200428    0.000000    0.670000
   100  Cl    c     8.887583    0.015955    4.450152    0.000000    0.615000
   101  Cl    c    -4.459122    0.015955    4.450152    0.000000    0.615000
   102  Na    c     8.829820    2.206157   -2.214584    0.000000    0.670000
   103  Na    c    -4.401359    2.206157   -2.214584    0.000000    0.670000
   104  O     c     2.214230    2.224606   -6.655533    0.000000    0.489000
   105  O     c     2.214230   -6.638289    2.223052    0.000000    0.489000
   106  Na    c     2.214230    2.355024    8.904402    0.000000    0.670000
   107  Na    c     2.214230   -6.510113    0.011635    0.000000    0.670000
   108  Na    c     2.214230    0.013044   -6.549274    0.000000    0.670000
   109  Na    c     2.214230    8.889331    2.443781    0.000000    0.670000
   110  O     c     6.646948   -2.213619    6.651136    0.000000    0.489000
   111  O     c    -2.218487   -2.213619    6.651136    0.000000    0.489000
   112  Na    c     6.629522   -2.185230   -4.422520    0.000000    0.670000
   113  Na    c    -2.201061   -2.185230   -4.422520    0.000000    0.670000
   114  Na    c     6.651641    4.442672    6.636276    0.000000    0.670000
   115  Na    c    -2.223180    4.442672    6.636276    0.000000    0.670000
   116  O     c     2.214230    6.622772    6.609352    0.000000    0.489000
   117  O     c     6.648758    6.655069   -2.218296    0.000000    0.489000
   118  O     c    -2.220297    6.655069   -2.218296    0.000000    0.489000
   119  Na    c     2.214230    6.374431   -4.406089    0.000000    0.670000
   120  Na    c     6.649461    6.665559    4.440801    0.000000    0.670000
   121  Na    c    -2.221000    6.665559    4.440801    0.000000    0.670000
   122  Na    c     2.214230   -4.402616    6.371815    0.000000    0.670000
   123  Na    c     6.627555   -4.419320   -2.225289    0.000000    0.670000
   124  Na    c    -2.199094   -4.419320   -2.225289    0.000000    0.670000
   125  Cl    c     4.451261   -0.006576    8.909401    0.000000    0.615000
   126  Cl    c    -0.022800   -0.006576    8.909401    0.000000    0.615000
   127  Cl    c     4.467512    8.919068   -0.013038    0.000000    0.615000
   128  Cl    c    -0.039051    8.919068   -0.013038    0.000000    0.615000
   129  Na    c     4.423578    2.204957   -6.645588    0.000000    0.670000
   130  Na    c     0.004883    2.204957   -6.645588    0.000000    0.670000
   131  Na    c     4.425612   -6.612902    2.199703    0.000000    0.670000
   132  Na    c     0.002849   -6.612902    2.199703    0.000000    0.670000
   133  Cl    c     8.901148    4.448042    4.448335    0.000000    0.615000
   134  Cl    c    -4.472687    4.448042    4.448335    0.000000    0.615000
   135  Na    c     8.851631   -2.198176   -2.203429    0.000000    0.670000
   136  Na    c    -4.423170   -2.198176   -2.203429    0.000000    0.670000
   137  Cl    c     4.428151   -4.445240   -4.440196    0.000000    0.615000
   138  Cl    c     0.000310   -4.445240   -4.440196    0.000000    0.615000
   139  Na    c     4.434846    6.638761    6.618461    0.000000    0.670000
   140  Na    c    -0.006385    6.638761    6.618461    0.000000    0.670000
   141  O     c     2.214230   -2.207114   -6.632906    0.000000    0.489000
   142  O     c     2.214230   -6.628447   -2.207098    0.000000    0.489000
   143  Na    c     2.214230   -2.406789    8.835678    0.000000    0.670000
   144  Na    c     2.214230   -6.797010    4.424948    0.000000    0.670000
   145  Na    c     2.214230    4.427644   -6.789482    0.000000    0.670000
   146  Na    c     2.214230    8.846285   -2.453755    0.000000    0.670000
   147  Cl    c     4.431047    4.437674    8.903669    0.000000    0.615000
   148  Cl    c    -0.002586    4.437674    8.903669    0.000000    0.615000
   149  Cl    c     4.450334    8.912571    4.437757    0.000000    0.615000
   150  Cl    c    -0.021873    8.912571    4.437757    0.000000    0.615000
   151  Na    c     4.428641   -2.199820   -6.625739    0.000000    0.670000
   152  Na    c    -0.000180   -2.199820   -6.625739    0.000000    0.670000
   153  Na    c     4.427820   -6.624261   -2.196833    0.000000    0.670000
   154  Na    c     0.000641   -6.624261   -2.196833    0.000000    0.670000
   155  Cl    c     8.877085   -4.430531   -0.002017    0.000000    0.615000
   156  Cl    c    -4.448624   -4.430531   -0.002017    0.000000    0.615000
   157  Na    c     8.869594    6.735708    2.206807    0.000000    0.670000
   158  Na    c    -4.441133    6.735708    2.206807    0.000000    0.670000
   159  Cl    c     8.881115   -0.003356   -4.431187    0.000000    0.615000
   160  Cl    c    -4.452654   -0.003356   -4.431187    0.000000    0.615000
   161  Na    c     8.865892    2.208855    6.680443    0.000000    0.670000
   162  Na    c    -4.437431    2.208855    6.680443    0.000000    0.670000
   163  O     c     6.636620    2.214611   -6.627111    0.000000    0.489000
   164  O     c    -2.208159    2.214611   -6.627111    0.000000    0.489000
   165  O     c     6.639408   -6.625738    2.214080    0.000000    0.489000
   166  O     c    -2.210947   -6.625738    2.214080    0.000000    0.489000
   167  O     c    11.066103    2.217467    2.216852    0.000000    0.489000
   168  O     c    -6.637642    2.217467    2.216852    0.000000    0.489000
   169  Na    c     6.634727    2.238787    8.876815    0.000000    0.670000
   170  Na    c    -2.206266    2.238787    8.876815    0.000000    0.670000
   171  Na    c     6.652313   -6.592528    0.000906    0.000000    0.670000
   172  Na    c    -2.223852   -6.592528    0.000906    0.000000    0.670000
   173  Na    c    11.041891    2.231031    0.002405    0.000000    0.670000
   174  Na    c    -6.613430    2.231031    0.002405    0.000000    0.670000
   175  Na    c     6.651515    0.001133   -6.625283    0.000000    0.670000
   176  Na    c    -2.223054    0.001133   -6.625283    0.000000    0.670000
   177  Na    c     6.611864    8.878972    2.210851    0.000000    0.670000
   178  Na    c    -2.183403    8.878972    2.210851    0.000000    0.670000
   179  Na    c    11.105884    0.004420    2.209000    0.000000    0.670000
   180  Na    c    -6.677424    0.004420    2.209000    0.000000    0.670000
   181  O     c     6.660109    6.662170    6.659547    0.000000    0.489000
   182  O     c    -2.231648    6.662170    6.659547    0.000000    0.489000
   183  Na    c     6.646155    6.639483   -4.429257    0.000000    0.670000
   184  Na    c    -2.217694    6.639483   -4.429257    0.000000    0.670000
   185  Na    c     6.649514   -4.425815    6.605749    0.000000    0.670000
   186  Na    c    -2.221053   -4.425815    6.605749    0.000000    0.670000
   187  Cl    c     8.877266   -4.430510    4.444341    0.000000    0.615000
   188  Cl    c    -4.448805   -4.430510    4.444341    0.000000    0.615000
   189  Na    c     8.856860    6.650531   -2.202112    0.000000    0.670000
   190  Na    c    -4.428399    6.650531   -2.202112    0.000000    0.670000
   191  Cl    c     8.882270    4.446489   -4.428147    0.000000    0.615000
   192  Cl    c    -4.453809    4.446489   -4.428147    0.000000    0.615000
   193  Na    c     8.856107   -2.199421    6.656183    0.000000    0.670000
   194  Na    c    -4.427646   -2.199421    6.656183    0.000000    0.670000
   195  O     c     6.645741   -2.216998   -6.642468    0.000000    0.489000
   196  O     c    -2.217280   -2.216998   -6.642468    0.000000    0.489000
   197  O     c     6.644085   -6.639828   -2.216333    0.000000    0.489000
   198  O     c    -2.215625   -6.639828   -2.216333    0.000000    0.489000
   199  O     c    11.059436    2.217310   -2.210650    0.000000    0.489000
   200  O     c    -6.630975    2.217310   -2.210650    0.000000    0.489000
   201  O     c    11.062056   -2.207436    2.216092    0.000000    0.489000
   202  O     c    -6.633595   -2.207436    2.216092    0.000000    0.489000
   203  Na    c     6.619470   -2.238172    8.858767    0.000000    0.670000
   204  Na    c    -2.191009   -2.238172    8.858767    0.000000    0.670000
   205  Na    c     6.621529   -6.645034    4.427800    0.000000    0.670000
   206  Na    c    -2.193068   -6.645034    4.427800    0.000000    0.670000
   207  Na    c    11.053535    2.220918    4.431619    0.000000    0.670000
   208  Na    c    -6.625074    2.220918    4.431619    0.000000    0.670000
   209  Na    c    11.059786   -2.221534    0.002514    0.000000    0.670000
   210  Na    c    -6.631325   -2.221534    0.002514    0.000000    0.670000
   211  Na    c     6.625646    4.429869   -6.621478    0.000000    0.670000
   212  Na    c    -2.197186    4.429869   -6.621478    0.000000    0.670000
   213  Na    c     6.625038    8.861704   -2.216457    0.000000    0.670000
   214  Na    c    -2.196577    8.861704   -2.216457    0.000000    0.670000
   215  Na    c    11.059320    0.003466   -2.199925    0.000000    0.670000
   216  Na    c    -6.630859    0.003466   -2.199925    0.000000    0.670000
   217  Na    c    11.014356    4.433591    2.225270    0.000000    0.670000
   218  Na    c    -6.585895    4.433591    2.225270    0.000000    0.670000
   219  O     c     2.214230    6.632863   -6.629253    0.000000    0.489000
   220  O     c     2.214230   -6.627028    6.629988    0.000000    0.489000
   221  Na    c     2.214230    6.632711    8.834202    0.000000    0.670000
   222  Na    c     2.214230   -6.648540   -4.422224    0.000000    0.670000
   223  Na    c     2.214230    8.838617    6.542624    0.000000    0.670000
   224  Na    c     2.214230   -4.421562   -6.622090    0.000000    0.670000
   225  Cl    c     4.441722    8.896041   -4.437682    0.000000    0.615000
   226  Cl    c    -0.013261    8.896041   -4.437682    0.000000    0.615000
   227  Cl    c     4.441316   -4.434288    8.891244    0.000000    0.615000
   228  Cl    c    -0.012855   -4.434288    8.891244    0.000000    0.615000
   229  Na    c     4.429134    6.645655   -6.617011    0.000000    0.670000
   230  Na    c    -0.000673    6.645655   -6.617011    0.000000    0.670000
   231  Na    c     4.428516   -6.612775    6.647464    0.000000    0.670000
   232  Na    c    -0.000055   -6.612775    6.647464    0.000000    0.670000
   233  O     c    11.071127   -2.211811   -2.211650    0.000000    0.489000
   234  O     c    -6.642666   -2.211811   -2.211650    0.000000    0.489000
   235  Na    c    11.045057   -2.211406    4.428820    0.000000    0.670000
   236  Na    c    -6.616596   -2.211406    4.428820    0.000000    0.670000
   237  Na    c    11.047905    4.429412   -2.223943    0.000000    0.670000
   238  Na    c    -6.619445    4.429412   -2.223943    0.000000    0.670000
   239  O     c     2.214230    2.218060   11.092046    0.000000    0.489000
   240  O     c     2.214230   11.083305    2.222986    0.000000    0.489000
   241  Na    c     2.214230    2.149962   -8.863184    0.000000    0.670000
   242  Na    c     2.214230   10.970518   -0.003987    0.000000    0.670000
   243  Na    c     2.214230   -0.007531   10.997046    0.000000    0.670000
   244  Na    c     2.214230   -8.853400    2.137812    0.000000    0.670000
   245  Cl    c     4.430916    0.000774   -8.887693    0.000000    0.615000
   246  Cl    c    -0.002455    0.000774   -8.887693    0.000000    0.615000
   247  Cl    c     4.430965   -8.888970    0.000776    0.000000    0.615000
   248  Cl    c    -0.002505   -8.888970    0.000776    0.000000    0.615000
   249  Cl    c     8.877384   -0.000233    8.878715    0.000000    0.615000
   250  Cl    c    -4.448923   -0.000233    8.878715    0.000000    0.615000
   251  Cl    c     8.880189    8.880778    0.001710    0.000000    0.615000
   252  Cl    c    -4.451728    8.880778    0.001710    0.000000    0.615000
   253  Na    c     4.429115    2.192805   11.087752    0.000000    0.670000
   254  Na    c    -0.000654    2.192805   11.087752    0.000000    0.670000
   255  Na    c     4.427648   11.084577    2.187262    0.000000    0.670000
   256  Na    c     0.000813   11.084577    2.187262    0.000000    0.670000
   257  Na    c     8.847738    2.228624   -6.589424    0.000000    0.670000
   258  Na    c    -4.419277    2.228624   -6.589424    0.000000    0.670000
   259  Na    c     8.849332   -6.620686    2.224576    0.000000    0.670000
   260  Na    c    -4.420871   -6.620686    2.224576    0.000000    0.670000
   261  Cl    c     8.874334   -4.441674   -4.439130    0.000000    0.615000
   262  Cl    c    -4.445873   -4.441674   -4.439130    0.000000    0.615000
   263  Na    c     8.865761    6.646659    6.647847    0.000000    0.670000
   264  Na    c    -4.437300    6.646659    6.647847    0.000000    0.670000
   265  O     c     2.214230   11.063073   -2.228788    0.000000    0.489000
   266  O     c     2.214230   -2.227939   11.061797    0.000000    0.489000
   267  O     c     6.647650    6.649230   -6.646168    0.000000    0.489000
   268  O     c    -2.219189    6.649230   -6.646168    0.000000    0.489000
   269  O     c     6.646272   -6.644352    6.645590    0.000000    0.489000
   270  O     c    -2.217811   -6.644352    6.645590    0.000000    0.489000
   271  O     c    11.077812    2.215501    6.648317    0.000000    0.489000
   272  O     c    -6.649351    2.215501    6.648317    0.000000    0.489000
   273  O     c    11.077899    6.651476    2.215034    0.000000    0.489000
   274  O     c    -6.649438    6.651476    2.215034    0.000000    0.489000
   275  Na    c     2.214230   11.157034    4.436783    0.000000    0.670000
   276  Na    c     2.214230   -2.188584   -8.846941    0.000000    0.670000
   277  Na    c     6.642420    6.642836    8.860643    0.000000    0.670000
   278  Na    c    -2.213959    6.642836    8.860643    0.000000    0.670000
   279  Na    c     6.634818   -6.646493   -4.427935    0.000000    0.670000
   280  Na    c    -2.206357   -6.646493   -4.427935    0.000000    0.670000
   281  Na    c    11.068435    2.208599   -4.423499    0.000000    0.670000
   282  Na    c    -6.639974    2.208599   -4.423499    0.000000    0.670000
   283  Na    c    11.075771    6.627593    0.000189    0.000000    0.670000
   284  Na    c    -6.647310    6.627593    0.000189    0.000000    0.670000
   285  Na    c     2.214230    4.437664   11.113262    0.000000    0.670000
   286  Na    c     2.214230   -8.844920   -2.172872    0.000000    0.670000
   287  Na    c     6.649864    8.862630    6.654226    0.000000    0.670000
   288  Na    c    -2.221403    8.862630    6.654226    0.000000    0.670000
   289  Na    c     6.636932   -4.428238   -6.628892    0.000000    0.670000
   290  Na    c    -2.208471   -4.428238   -6.628892    0.000000    0.670000
   291  Na    c    11.073608    0.001243    6.634521    0.000000    0.670000
   292  Na    c    -6.645147    0.001243    6.634521    0.000000    0.670000
   293  Na    c    11.034100   -4.421714    2.220850    0.000000    0.670000
   294  Na    c    -6.605639   -4.421714    2.220850    0.000000    0.670000
   295  Cl    c     4.432128    4.434066   -8.880577    0.000000    0.615000
   296  Cl    c    -0.003667    4.434066   -8.880577    0.000000    0.615000
   297  Cl    c     4.433503   -8.876624    4.434039    0.000000    0.615000
   298  Cl    c    -0.005042   -8.876624    4.434039    0.000000    0.615000
   299  Cl    c     8.881337    4.434935    8.880839    0.000000    0.615000
   300  Cl    c    -4.452876    4.434935    8.880839    0.000000    0.615000
   301  Cl    c     8.885228    8.878529    4.435221    0.000000    0.615000
   302  Cl    c    -4.456767    8.878529    4.435221    0.000000    0.615000
   303  Na    c     4.428558   11.060546   -2.193217    0.000000    0.670000
   304  Na    c    -0.000098   11.060546   -2.193217    0.000000    0.670000
   305  Na    c     4.427793   -2.196183   11.059404    0.000000    0.670000
   306  Na    c     0.000668   -2.196183   11.059404    0.000000    0.670000
   307  Na    c     8.855094   -2.223298   -6.635677    0.000000    0.670000
   308  Na    c    -4.426633   -2.223298   -6.635677    0.000000    0.670000
   309  Na    c     8.854549   -6.635973   -2.219733    0.000000    0.670000
   310  Na    c    -4.426088   -6.635973   -2.219733    0.000000    0.670000
   311  O     c     2.214230   -6.642733   -6.642047    0.000000    0.489000
   312  Na    c     2.214230   -6.536817    8.844684    0.000000    0.670000
   313  Na    c     2.214230    8.845922   -6.538630    0.000000    0.670000
   314  O     c     6.645110    2.214946   11.083294    0.000000    0.489000
   315  O     c    -2.216649    2.214946   11.083294    0.000000    0.489000
   316  O     c     6.644503   11.084815    2.212339    0.000000    0.489000
   317  O     c    -2.216042   11.084815    2.212339    0.000000    0.489000
   318  O     c    11.073898    6.645171   -2.213788    0.000000    0.489000
   319  O     c    -6.645437    6.645171   -2.213788    0.000000    0.489000
[...]
    251 y          6.642691      6.719619     0.076928    Cartesian    1.16
    251 z          2.214230      2.175628    -0.038602    Cartesian   -1.74
    252 x          4.428461      4.478466     0.050005    Cartesian    1.13
    252 y          0.000000     -0.064000    -0.064000    Cartesian    0.00
    252 z         -4.428461     -4.492279    -0.063818    Cartesian    1.44
    253 x          4.428461      4.472271     0.043810    Cartesian    0.99
    253 y         -4.428461     -4.471038    -0.042577    Cartesian    0.96
    253 z          0.000000     -0.050408    -0.050408    Cartesian    0.00
    254 x          2.214230      2.214230     0.000000    Cartesian    0.00
    254 y          6.642691      6.635567    -0.007124    Cartesian   -0.11
    254 z         -2.214230     -2.193576     0.020654    Cartesian   -0.93
    255 x          2.214230      2.214230     0.000000    Cartesian    0.00
    255 y         -2.214230     -2.191270     0.022960    Cartesian   -1.04
    255 z          6.642691      6.615412    -0.027279    Cartesian   -0.41
    256 x          6.642691      6.644867     0.002176    Cartesian    0.03
    256 y         -2.214230     -2.207761     0.006470    Cartesian   -0.29
    256 z         -2.214230     -2.210314     0.003917    Cartesian   -0.18
    257 x          4.428461      4.500016     0.071555    Cartesian    1.62
    257 y          4.428461      4.491668     0.063208    Cartesian    1.43
    257 z         -4.428461     -4.505830    -0.077369    Cartesian    1.75
    258 x          8.856922      8.886562     0.029640    Cartesian    0.33
    258 y          0.000000      0.016843     0.016843    Cartesian    0.00
    258 z          0.000000      0.012517     0.012517    Cartesian    0.00
    259 x          4.428461      4.495846     0.067385    Cartesian    1.52
    259 y         -4.428461     -4.494855    -0.066394    Cartesian    1.50
    259 z          4.428461      4.470092     0.041631    Cartesian    0.94
    260 x          6.642691      6.661119     0.018427    Cartesian    0.28
    260 y          2.214230      2.224153     0.009923    Cartesian    0.45
    260 z          6.642691      6.680452     0.037760    Cartesian    0.57
    261 x          6.642691      6.666041     0.023350    Cartesian    0.35
    261 y          6.642691      6.682619     0.039927    Cartesian    0.60
    261 z          2.214230      2.223565     0.009335    Cartesian    0.42
    262 x          8.856922      8.887796     0.030875    Cartesian    0.35
    262 y          4.428461      4.451797     0.023336    Cartesian    0.53
    262 z          0.000000      0.014755     0.014755    Cartesian    0.00
    263 x          8.856922      8.888738     0.031817    Cartesian    0.36
    263 y          0.000000      0.016323     0.016323    Cartesian    0.00
    263 z          4.428461      4.450511     0.022050    Cartesian    0.50
    264 x          2.214230      2.214230     0.000000    Cartesian    0.00
    264 y          2.214230      2.225262     0.011032    Cartesian    0.50
    264 z         -6.642691     -6.656864    -0.014172    Cartesian    0.21
    265 x          2.214230      2.214230     0.000000    Cartesian    0.00
    265 y         -6.642691     -6.639270     0.003421    Cartesian   -0.05
    265 z          2.214230      2.223782     0.009551    Cartesian    0.43
    266 x          6.642691      6.647320     0.004629    Cartesian    0.07
    266 y         -2.214230     -2.213738     0.000493    Cartesian   -0.02
    266 z          6.642691      6.651303     0.008612    Cartesian    0.13
    267 x          2.214230      2.214230     0.000000    Cartesian    0.00
    267 y          6.642691      6.621996    -0.020695    Cartesian   -0.31
    267 z          6.642691      6.609843    -0.032848    Cartesian   -0.49
    268 x          6.642691      6.649113     0.006422    Cartesian    0.10
    268 y          6.642691      6.655259     0.012567    Cartesian    0.19
    268 z         -2.214230     -2.218649    -0.004419    Cartesian    0.20
    269 x          4.428461      4.451101     0.022640    Cartesian    0.51
    269 y          0.000000     -0.006613    -0.006613    Cartesian    0.00
    269 z          8.856922      8.910197     0.053275    Cartesian    0.60
    270 x          4.428461      4.467203     0.038742    Cartesian    0.87
    270 y          8.856922      8.919938     0.063016    Cartesian    0.71
    270 z          0.000000     -0.013308    -0.013308    Cartesian    0.00
    271 x          8.856922      8.902257     0.045335    Cartesian    0.51
    271 y          4.428461      4.448400     0.019939    Cartesian    0.45
    271 z          4.428461      4.448335     0.019874    Cartesian    0.45
    272 x          4.428461      4.428256    -0.000204    Cartesian   -0.00
    272 y         -4.428461     -4.446196    -0.017735    Cartesian    0.40
    272 z         -4.428461     -4.440794    -0.012333    Cartesian    0.28
    273 x          2.214230      2.214230     0.000000    Cartesian    0.00
    273 y         -2.214230     -2.207139     0.007092    Cartesian   -0.32
    273 z         -6.642691     -6.632801     0.009890    Cartesian   -0.15
    274 x          2.214230      2.214230     0.000000    Cartesian    0.00
    274 y         -6.642691     -6.628304     0.014387    Cartesian   -0.22
    274 z         -2.214230     -2.207336     0.006894    Cartesian   -0.31
    275 x          4.428461      4.430882     0.002421    Cartesian    0.05
    275 y          4.428461      4.437340     0.008879    Cartesian    0.20
    275 z          8.856922      8.905207     0.048285    Cartesian    0.55
    276 x          4.428461      4.450370     0.021909    Cartesian    0.49
    276 y          8.856922      8.914480     0.057558    Cartesian    0.65
    276 z          4.428461      4.437574     0.009113    Cartesian    0.21
    277 x          8.856922      8.878351     0.021430    Cartesian    0.24
    277 y         -4.428461     -4.431272    -0.002812    Cartesian    0.06
    277 z          0.000000     -0.002378    -0.002378    Cartesian    0.00
    278 x          8.856922      8.882559     0.025637    Cartesian    0.29
    278 y          0.000000     -0.003780    -0.003780    Cartesian    0.00
    278 z         -4.428461     -4.431829    -0.003368    Cartesian    0.08
    279 x          6.642691      6.636181    -0.006510    Cartesian   -0.10
    279 y          2.214230      2.214512     0.000282    Cartesian    0.01
    279 z         -6.642691     -6.627733     0.014958    Cartesian   -0.23
    280 x          6.642691      6.639287    -0.003404    Cartesian   -0.05
    280 y         -6.642691     -6.626292     0.016400    Cartesian   -0.25
    280 z          2.214230      2.214155    -0.000075    Cartesian   -0.00
    281 x         11.071152     11.066183    -0.004969    Cartesian   -0.04
    281 y          2.214230      2.217070     0.002839    Cartesian    0.13
    281 z          2.214230      2.216789     0.002559    Cartesian    0.12
    282 x          6.642691      6.660869     0.018177    Cartesian    0.27
    282 y          6.642691      6.662872     0.020180    Cartesian    0.30
    282 z          6.642691      6.660011     0.017320    Cartesian    0.26
    283 x          8.856922      8.878444     0.021522    Cartesian    0.24
    283 y         -4.428461     -4.431128    -0.002667    Cartesian    0.06
    283 z          4.428461      4.445144     0.016683    Cartesian    0.38
    284 x          8.856922      8.883664     0.026742    Cartesian    0.30
    284 y          4.428461      4.447294     0.018833    Cartesian    0.43
    284 z         -4.428461     -4.428469    -0.000008    Cartesian    0.00
    285 x          6.642691      6.646000     0.003309    Cartesian    0.05
    285 y         -2.214230     -2.217095    -0.002864    Cartesian    0.13
    285 z         -6.642691     -6.642677     0.000015    Cartesian   -0.00
    286 x          6.642691      6.644258     0.001566    Cartesian    0.02
    286 y         -6.642691     -6.639960     0.002731    Cartesian   -0.04
    286 z         -2.214230     -2.216521    -0.002291    Cartesian    0.10
    287 x         11.071152     11.059947    -0.011205    Cartesian   -0.10
    287 y          2.214230      2.217375     0.003145    Cartesian    0.14
    287 z         -2.214230     -2.210655     0.003575    Cartesian   -0.16
    288 x         11.071152     11.062691    -0.008461    Cartesian   -0.08
    288 y         -2.214230     -2.207160     0.007071    Cartesian   -0.32
    288 z          2.214230      2.216051     0.001821    Cartesian    0.08
    289 x          2.214230      2.214230     0.000000    Cartesian    0.00
    289 y          6.642691      6.631849    -0.010843    Cartesian   -0.16
    289 z         -6.642691     -6.630456     0.012235    Cartesian   -0.18
    290 x          2.214230      2.214230     0.000000    Cartesian    0.00
    290 y         -6.642691     -6.628252     0.014439    Cartesian   -0.22
    290 z          6.642691      6.629005    -0.013687    Cartesian   -0.21
    291 x          4.428461      4.441254     0.012793    Cartesian    0.29
    291 y          8.856922      8.897614     0.040692    Cartesian    0.46
    291 z         -4.428461     -4.437525    -0.009064    Cartesian    0.20
    292 x          4.428461      4.441181     0.012720    Cartesian    0.29
    292 y         -4.428461     -4.434262    -0.005801    Cartesian    0.13
    292 z          8.856922      8.892883     0.035961    Cartesian    0.41
    293 x         11.071152     11.071162     0.000010    Cartesian    0.00
    293 y         -2.214230     -2.211862     0.002369    Cartesian   -0.11
    293 z         -2.214230     -2.211608     0.002622    Cartesian   -0.12
    294 x          2.214230      2.214230     0.000000    Cartesian    0.00
    294 y          2.214230      2.219086     0.004855    Cartesian    0.22
    294 z         11.071152     11.091555     0.020403    Cartesian    0.18
    295 x          2.214230      2.214230     0.000000    Cartesian    0.00
    295 y         11.071152     11.083410     0.012258    Cartesian    0.11
    295 z          2.214230      2.224700     0.010469    Cartesian    0.47
    296 x          4.428461      4.430802     0.002341    Cartesian    0.05
    296 y          0.000000      0.000935     0.000935    Cartesian    0.00
    296 z         -8.856922     -8.889014    -0.032092    Cartesian    0.36
    297 x          4.428461      4.430910     0.002450    Cartesian    0.06
    297 y         -8.856922     -8.890609    -0.033687    Cartesian    0.38
    297 z          0.000000      0.000888     0.000888    Cartesian    0.00
    298 x          8.856922      8.878070     0.021148    Cartesian    0.24
    298 y          0.000000     -0.000106    -0.000106    Cartesian    0.00
    298 z          8.856922      8.879195     0.022273    Cartesian    0.25
    299 x          8.856922      8.880920     0.023998    Cartesian    0.27
    299 y          8.856922      8.881195     0.024273    Cartesian    0.27
    299 z          0.000000      0.002080     0.002080    Cartesian    0.00
    300 x          8.856922      8.875114     0.018192    Cartesian    0.21
    300 y         -4.428461     -4.442264    -0.013804    Cartesian    0.31
    300 z         -4.428461     -4.439561    -0.011100    Cartesian    0.25
    301 x          2.214230      2.214230     0.000000    Cartesian    0.00
    301 y         11.071152     11.063371    -0.007781    Cartesian   -0.07
    301 z         -2.214230     -2.230567    -0.016337    Cartesian    0.74
    302 x          2.214230      2.214230     0.000000    Cartesian    0.00
    302 y         -2.214230     -2.229294    -0.015064    Cartesian    0.68
    302 z         11.071152     11.062330    -0.008822    Cartesian   -0.08
    303 x          6.642691      6.647997     0.005306    Cartesian    0.08
    303 y          6.642691      6.649655     0.006963    Cartesian    0.10
    303 z         -6.642691     -6.646108    -0.003417    Cartesian    0.05
    304 x          6.642691      6.646565     0.003874    Cartesian    0.06
    304 y         -6.642691     -6.644393    -0.001702    Cartesian    0.03
    304 z          6.642691      6.645756     0.003064    Cartesian    0.05
    305 x         11.071152     11.077830     0.006678    Cartesian    0.06
    305 y          2.214230      2.215472     0.001242    Cartesian    0.06
    305 z          6.642691      6.648688     0.005996    Cartesian    0.09
    306 x         11.071152     11.077688     0.006536    Cartesian    0.06
    306 y          6.642691      6.652192     0.009501    Cartesian    0.14
    306 z          2.214230      2.215020     0.000789    Cartesian    0.04
    307 x          4.428461      4.431917     0.003456    Cartesian    0.08
    307 y          4.428461      4.434171     0.005710    Cartesian    0.13
    307 z         -8.856922     -8.880871    -0.023949    Cartesian    0.27
    308 x          4.428461      4.433445     0.004984    Cartesian    0.11
    308 y         -8.856922     -8.876792    -0.019871    Cartesian    0.22
    308 z          4.428461      4.434287     0.005826    Cartesian    0.13
    309 x          8.856922      8.882065     0.025144    Cartesian    0.28
    309 y          4.428461      4.434952     0.006491    Cartesian    0.15
    309 z          8.856922      8.881392     0.024471    Cartesian    0.28
    310 x          8.856922      8.886065     0.029143    Cartesian    0.33
    310 y          8.856922      8.878748     0.021827    Cartesian    0.25
    310 z          4.428461      4.435224     0.006763    Cartesian    0.15
    311 x          2.214230      2.214230     0.000000    Cartesian    0.00
    311 y         -6.642691     -6.643069    -0.000378    Cartesian    0.01
    311 z         -6.642691     -6.642182     0.000509    Cartesian   -0.01
    312 x          6.642691      6.645212     0.002520    Cartesian    0.04
    312 y          2.214230      2.215085     0.000855    Cartesian    0.04
    312 z         11.071152     11.083323     0.012171    Cartesian    0.11
    313 x          6.642691      6.644489     0.001798    Cartesian    0.03
    313 y         11.071152     11.084870     0.013717    Cartesian    0.12
    313 z          2.214230      2.212188    -0.002042    Cartesian   -0.09
    314 x         11.071152     11.073978     0.002826    Cartesian    0.03
    314 y          6.642691      6.645289     0.002598    Cartesian    0.04
    314 z         -2.214230     -2.213814     0.000417    Cartesian   -0.02
    315 x         11.071152     11.072972     0.001820    Cartesian    0.02
    315 y         -2.214230     -2.213029     0.001201    Cartesian   -0.05
    315 z          6.642691      6.645371     0.002679    Cartesian    0.04
    316 x          4.428461      4.441990     0.013529    Cartesian    0.31
    316 y          8.856922      8.872731     0.015809    Cartesian    0.18
    316 z          8.856922      8.875883     0.018961    Cartesian    0.21
    317 x         13.285383     13.306156     0.020773    Cartesian    0.16
    317 y          0.000000      0.000382     0.000382    Cartesian    0.00
    317 z          0.000000      0.000835     0.000835    Cartesian    0.00
    318 x          2.214230      2.214230     0.000000    Cartesian    0.00
    318 y          6.642691      6.647524     0.004833    Cartesian    0.07
    318 z         11.071152     11.068356    -0.002797    Cartesian   -0.03
    319 x          2.214230      2.214230     0.000000    Cartesian    0.00
    319 y         11.071152     11.071262     0.000110    Cartesian    0.00
    319 z          6.642691      6.642019    -0.000672    Cartesian   -0.01
    320 x          6.642691      6.646548     0.003857    Cartesian    0.06
    320 y         11.071152     11.078819     0.007666    Cartesian    0.07
    320 z         -2.214230     -2.216647    -0.002416    Cartesian    0.11
    321 x          6.642691      6.645332     0.002640    Cartesian    0.04
    321 y         -2.214230     -2.217054    -0.002823    Cartesian    0.13
    321 z         11.071152     11.076212     0.005060    Cartesian    0.05
    322 x          4.428461      4.436096     0.007635    Cartesian    0.17
    322 y         -4.428461     -4.442382    -0.013922    Cartesian    0.31
    322 z         -8.856922     -8.877485    -0.020563    Cartesian    0.23
    323 x          4.428461      4.434386     0.005925    Cartesian    0.13
    323 y         -8.856922     -8.874946    -0.018024    Cartesian    0.20
    323 z         -4.428461     -4.440957    -0.012496    Cartesian    0.28
    324 x          8.856922      8.877315     0.020393    Cartesian    0.23
    324 y          8.856922      8.878383     0.021461    Cartesian    0.24
    324 z         -4.428461     -4.439607    -0.011146    Cartesian    0.25
    325 x          8.856922      8.874632     0.017710    Cartesian    0.20
    325 y         -4.428461     -4.438011    -0.009550    Cartesian    0.22
    325 z          8.856922      8.877107     0.020185    Cartesian    0.23
    326 x         13.285383     13.307694     0.022311    Cartesian    0.17
    326 y          0.000000     -0.002770    -0.002770    Cartesian    0.00
    326 z          4.428461      4.435436     0.006976    Cartesian    0.16
    327 x         13.285383     13.313549     0.028166    Cartesian    0.21
    327 y          4.428461      4.434255     0.005794    Cartesian    0.13
    327 z          0.000000     -0.003833    -0.003833    Cartesian    0.00
    328 x          6.642691      6.644149     0.001458    Cartesian    0.02
    328 y         -6.642691     -6.646139    -0.003447    Cartesian    0.05
    328 z         -6.642691     -6.645070    -0.002379    Cartesian    0.04
    329 x         11.071152     11.071901     0.000749    Cartesian    0.01
    329 y          2.214230      2.216251     0.002021    Cartesian    0.09
    329 z         -6.642691     -6.642034     0.000658    Cartesian   -0.01
    330 x         11.071152     11.070777    -0.000375    Cartesian   -0.00
    330 y         -6.642691     -6.642537     0.000154    Cartesian   -0.00
    330 z          2.214230      2.216765     0.002534    Cartesian    0.11
    331 x         11.071152     11.079430     0.008278    Cartesian    0.07
    331 y          6.642691      6.646436     0.003744    Cartesian    0.06
    331 z          6.642691      6.646764     0.004073    Cartesian    0.06
--------------------------------------------------------------------------------


  Time to end of optimisation  =       54.6465 seconds


  Peak dynamic memory used =     101.61 MB 


  Timing analysis for GULP :

--------------------------------------------------------------------------------
  Task / Subroutine                                          Time (Seconds)
--------------------------------------------------------------------------------
  Calculation of reciprocal space energy and derivatives          0.0008
  Calculation of reciprocal space energy using symmetry           0.0014
  Calculation of real space energy and derivatives                0.0042
  Calculation of real space energy using symmetry                 0.0133
  Calculation for region 1 energy and derivatives (2-b)          31.8325
  Calculation for region 2a energy                               19.8513
  Calculation for region 2b energy                                0.0079
  Calculation and manipulation of Hessian matrix                  0.1555
  Calculation of matrix inversion                                 2.5299
  Symmetry generation of equivalent positions                     0.0051
--------------------------------------------------------------------------------
  Total CPU time                                                 54.6466
--------------------------------------------------------------------------------


  Dump file written as Na3OCl.grs


  Job Finished at 16:32.53  5th July       2021                               

