********************************************************************************
*                       GENERAL UTILITY LATTICE PROGRAM                        *
*                                 Julian Gale                                  *
*                       Curtin Institute for Computation                       *
*                    School of Molecular and Life Sciences                     *
*                    Curtin University, Western Australia                      *
********************************************************************************
* Version = 5.2.0 * Last modified =  10th September 2020                       *
********************************************************************************
*  optimise     - perform optimisation run                                     *
*  conp         - constant pressure calculation                                *
*  property     - calculate properties for final geometry                      *
*  defect       - perform defect calculation after bulk run                    *
*  compare      - compare initial and final structures                         *
********************************************************************************

  Job Started  at 16:32.58  5th July       2021                               

  Number of CPUs =     1


  Total number of configurations input =      1

********************************************************************************
*  Input for Configuration =   1                                               *
********************************************************************************

  Formula = ClONa3                                                      

  Number of irreducible atoms/shells =       5


  Total number atoms/shells =       7

  Dimensionality = 3               :  Bulk   


  Symmetry :

  Crystal family                   :  Cubic       
  Crystal class  (Groth - 1921)    :  Cubic Hexakisoctahedral              

  Space group (centrosymmetric)    :  P M 3 M         

  Patterson group                  :  P m -3 m 

  Cartesian lattice vectors (Angstroms) :

        4.504000    0.000000    0.000000
        0.000000    4.504000    0.000000
        0.000000    0.000000    4.504000

  Cell parameters (Angstroms/Degrees):

  a =       4.5040    alpha =  90.0000
  b =       4.5040    beta  =  90.0000
  c =       4.5040    gamma =  90.0000

  Initial cell volume =          91.368216 Angs**3

  Temperature of configuration =   0.00     K 

  Pressure of configuration =         0.000 GPa 

  Fractional coordinates of asymmetric unit :

--------------------------------------------------------------------------------
   No.  Atomic       x           y          z         Charge      Occupancy
        Label      (Frac)      (Frac)     (Frac)        (e)         (Frac)  
--------------------------------------------------------------------------------
      1 Cl    c    0.000000    0.000000    0.000000     0.61500    1.000000    
      2 O     c    0.500000    0.500000    0.500000     0.48900    1.000000    
      3 Na    c    0.500000    0.500000    0.000000     0.67000    1.000000    
      4 Cl    s    0.000000    0.000000    0.000000    -1.28500    1.000000    
      5 O     s    0.500000    0.500000    0.500000    -1.82900    1.000000    
--------------------------------------------------------------------------------


  Constraints : 

--------------------------------------------------------------------------------
  Constraint no.      Unconstrained     Constrained    Coefficient    Offset
                         Variable         Variable
--------------------------------------------------------------------------------
           1              Strain 1        Strain 2       1.00000      0.0000
           2              Strain 1        Strain 3       1.00000      0.0000
--------------------------------------------------------------------------------


********************************************************************************
*  General input information                                                   *
********************************************************************************

  Species output for all configurations : 

--------------------------------------------------------------------------------
  Species    Type    Atomic    Atomic    Charge       Radii (Angs)     Library
                     Number     Mass       (e)     Cova   Ionic  VDW   Symbol
--------------------------------------------------------------------------------
    Na       Core       11      22.99   0.670000   0.970  0.000  2.300          
    O        Core        8      16.00   0.489000   0.730  0.000  1.360          
    O        Shell       8       0.00  -1.829000   0.730  0.000  1.360          
    Cl       Core       17      35.45   0.615000   0.990  0.000  1.650          
    Cl       Shell      17       0.00  -1.285000   0.990  0.000  1.650          
--------------------------------------------------------------------------------


  Lattice summation method               =    Ewald          (3-D)
                                         =    Parry          (2-D)
                                         =    Saunders et al (1-D)
  Accuracy factor for lattice sums       =   12.000


  Analytic derivatives to be used

  Time limit = Infinity

  Maximum range for interatomic potentials =    100000.000000 Angstroms

  General interatomic potentials :

--------------------------------------------------------------------------------
Atom  Types   Potential      Parameter       Value         Units   Cutoffs(Ang)
  1     2                                                            Min /  Max 
--------------------------------------------------------------------------------
O    c O    s Spring (c-s)  Spring k 2       34.450000    eV*Ang^-2 0.000  0.800
                            Spring k 4       0.0000000    eV*Ang^-4 
--------------------------------------------------------------------------------
Cl   c Cl   s Spring (c-s)  Spring k 2       28.250000    eV*Ang^-2 0.000  0.800
                            Spring k 4       0.0000000    eV*Ang^-4 
--------------------------------------------------------------------------------
Na   c Na   c Buckingham    Buckingham A     996.28210    eV        0.000 12.000
                            Buckingham rho  0.28830000    Ang       
                            Buckingham C     0.0000000    eV*Ang^6  
--------------------------------------------------------------------------------
Na   c O    s Buckingham    Buckingham A     12439.222    eV        0.000 12.000
                            Buckingham rho  0.20150000    Ang       
                            Buckingham C     0.0000000    eV*Ang^6  
--------------------------------------------------------------------------------
Na   c Cl   s Buckingham    Buckingham A     20907.738    eV        0.000 12.000
                            Buckingham rho  0.21660000    Ang       
                            Buckingham C     0.0000000    eV*Ang^6  
--------------------------------------------------------------------------------
O    s O    s Buckingham    Buckingham A     35546.853    eV        0.000 12.000
                            Buckingham rho  0.12056000    Ang       
                            Buckingham C     13.190000    eV*Ang^6  
--------------------------------------------------------------------------------
O    s Cl   s Buckingham    Buckingham A     47777.071    eV        0.000 12.000
                            Buckingham rho  0.24370000    Ang       
                            Buckingham C     62.200000    eV*Ang^6  
--------------------------------------------------------------------------------
Cl   s Cl   s Buckingham    Buckingham A     35155.254    eV        0.000 12.000
                            Buckingham rho  0.21360000    Ang       
                            Buckingham C     14.530000    eV*Ang^6  
--------------------------------------------------------------------------------

********************************************************************************
*  Output for configuration   1                                                *
********************************************************************************


  Components of energy : 

--------------------------------------------------------------------------------
  Interatomic potentials     =           1.21745275 eV    
  Monopole - monopole (real) =          -4.50527050 eV    
  Monopole - monopole (recip)=         -13.25862634 eV    
  Monopole - monopole (total)=         -17.76389683 eV    
--------------------------------------------------------------------------------
  Total lattice energy       =         -16.54644409 eV    
--------------------------------------------------------------------------------
  Total lattice energy       =           -1596.4789 kJ/(mole unit cells)
--------------------------------------------------------------------------------


  Number of variables =        1

  Maximum number of calculations  =          1000
  Maximum Hessian update interval =            10
  Maximum step size               =   1.000000000
  Maximum parameter tolerance     =   0.000010000
  Maximum function  tolerance     =   0.000010000
  Maximum gradient  tolerance     =   0.001000000
  Maximum gradient  component     =   0.010000000

  Symmetry constrained optimisation

  Symmetry used for second derivatives

  Cell parameters to be optimised using strains

  Newton-Raphson optimiser to be used

  BFGS hessian update to be used

  Lower half triangular hessian to be used

  Start of bulk optimisation :

  Cycle:      0 Energy:       -16.546444  Gnorm:      2.744113  CPU:    0.015
  ** Hessian calculated **
  Cycle:      1 Energy:       -16.570356  Gnorm:      0.030142  CPU:    0.019
  Cycle:      2 Energy:       -16.570358  Gnorm:      0.003103  CPU:    0.022


  **** Optimisation achieved ****


  Final energy =     -16.57035847 eV
  Final Gnorm  =       0.00000012

  Components of energy : 

--------------------------------------------------------------------------------
  Interatomic potentials     =           1.49654868 eV    
  Monopole - monopole (real) =          -4.58211982 eV    
  Monopole - monopole (recip)=         -13.48478733 eV    
  Monopole - monopole (total)=         -18.06690714 eV    
--------------------------------------------------------------------------------
  Total lattice energy       =         -16.57035847 eV    
--------------------------------------------------------------------------------
  Total lattice energy       =           -1598.7863 kJ/(mole unit cells)
--------------------------------------------------------------------------------

  Final asymmetric unit coordinates :

--------------------------------------------------------------------------------
   No.  Atomic        x           y           z         Radius
        Label       (Frac)      (Frac)      (Frac)       (Angs) 
--------------------------------------------------------------------------------
     1  Cl    c     0.000000    0.000000    0.000000    0.000000
     2  O     c     0.500000    0.500000    0.500000    0.000000
     3  Na    c     0.500000    0.500000    0.000000    0.000000
     4  Cl    s     0.000000    0.000000    0.000000    0.000000
     5  O     s     0.500000    0.500000    0.500000    0.000000
--------------------------------------------------------------------------------

  Final Cartesian lattice vectors (Angstroms) :

        4.428461    0.000000    0.000000
        0.000000    4.428461    0.000000
        0.000000    0.000000    4.428461


  Final cell parameters and derivatives :

--------------------------------------------------------------------------------
       a            4.428461 Angstrom     dE/de1(xx)     0.000000 eV/strain
       b            4.428461 Angstrom     dE/de2(yy)     0.000000 eV/strain
       c            4.428461 Angstrom     dE/de3(zz)     0.000000 eV/strain
       alpha       90.000000 Degrees      dE/de4(yz)     0.000000 eV/strain
       beta        90.000000 Degrees      dE/de5(xz)     0.000000 eV/strain
       gamma       90.000000 Degrees      dE/de6(xy)     0.000000 eV/strain
--------------------------------------------------------------------------------

  Primitive cell volume =            86.847723 Angs**3

  Density of cell =      2.302482 g/cm**3

  Non-primitive cell volume =            86.847723 Angs**3


  Final internal derivatives :

--------------------------------------------------------------------------------
   No.  Atomic          a             b             c           Radius
        Label          (eV)          (eV)          (eV)        (eV/Angs)
--------------------------------------------------------------------------------
      1 Cl    c       0.000000      0.000000      0.000000      0.000000
      2 O     c       0.000000      0.000000      0.000000      0.000000
      3 Na    c       0.000000      0.000000      0.000000      0.000000
      4 Cl    s       0.000000      0.000000      0.000000      0.000000
      5 O     s       0.000000      0.000000      0.000000      0.000000
--------------------------------------------------------------------------------
  Maximum abs         0.000000      0.000000      0.000000      0.000000
--------------------------------------------------------------------------------

  Comparison of initial and final structures : 

--------------------------------------------------------------------------------
  Parameter   Initial value   Final value   Difference    Units      Percent
--------------------------------------------------------------------------------
    Volume        91.368216     86.847723    -4.520493    Angs**3     -4.95
    a              4.504000      4.428461    -0.075539    Angstroms   -1.68
    b              4.504000      4.428461    -0.075539    Angstroms   -1.68
    c              4.504000      4.428461    -0.075539    Angstroms   -1.68
    alpha         90.000000     90.000000     0.000000    Degrees      0.00
    beta          90.000000     90.000000     0.000000    Degrees      0.00
    gamma         90.000000     90.000000     0.000000    Degrees      0.00
      1 x          0.000000      0.000000     0.000000    Fractional   0.00
      1 y          0.000000      0.000000     0.000000    Fractional   0.00
      1 z          0.000000      0.000000     0.000000    Fractional   0.00
      2 x          0.500000      0.500000     0.000000    Fractional   0.00
      2 y          0.500000      0.500000     0.000000    Fractional   0.00
      2 z          0.500000      0.500000     0.000000    Fractional   0.00
      3 x          0.500000      0.500000     0.000000    Fractional   0.00
      3 y          0.500000      0.500000     0.000000    Fractional   0.00
      3 z          0.000000      0.000000     0.000000    Fractional   0.00
      4 x          0.000000      0.000000     0.000000    Fractional   0.00
      4 y          0.000000      0.000000     0.000000    Fractional   0.00
      4 z          0.000000      0.000000     0.000000    Fractional   0.00
      5 x          0.500000      0.500000     0.000000    Fractional   0.00
      5 y          0.500000      0.500000     0.000000    Fractional   0.00
      5 z          0.500000      0.500000     0.000000    Fractional   0.00
--------------------------------------------------------------------------------


  Born effective charge tensors : 

-------------------------------------------------------------------------------
  Atom             x           y             z
-------------------------------------------------------------------------------
    1 Cl    x      -0.6995     -0.0000     -0.0000
            y      -0.0000     -0.6995     -0.0000
            z      -0.0000     -0.0000     -0.6995
-------------------------------------------------------------------------------
    2 O     x      -1.0805      0.0000      0.0000
            y       0.0000     -1.0805      0.0000
            z       0.0000      0.0000     -1.0805
-------------------------------------------------------------------------------
    3 Na    x       0.6486      0.0000     -0.0000
            y       0.0000      0.6486      0.0000
            z      -0.0000      0.0000      0.4827
-------------------------------------------------------------------------------




  Elastic Constant Matrix: (Units=GPa)

-------------------------------------------------------------------------------
  Indices      1         2         3         4         5         6    
-------------------------------------------------------------------------------
       1     77.0757   16.0262   16.0262   -0.0000   -0.0000   -0.0000
       2     16.0262   77.0757   16.0262   -0.0000   -0.0000    0.0000
       3     16.0262   16.0262   77.0757    0.0000    0.0000    0.0000
       4     -0.0000   -0.0000    0.0000   16.0262    0.0000   -0.0000
       5     -0.0000   -0.0000    0.0000    0.0000   16.0262   -0.0000
       6     -0.0000    0.0000    0.0000   -0.0000   -0.0000   16.0262
-------------------------------------------------------------------------------


  Elastic Compliance Matrix: (Units=1/GPa)

-------------------------------------------------------------------------------
  Indices      1         2         3         4         5         6    
-------------------------------------------------------------------------------
       1    0.013975 -0.002406 -0.002406  0.000000  0.000000  0.000000
       2   -0.002406  0.013975 -0.002406  0.000000  0.000000 -0.000000
       3   -0.002406 -0.002406  0.013975 -0.000000 -0.000000 -0.000000
       4    0.000000  0.000000 -0.000000  0.062398 -0.000000  0.000000
       5    0.000000  0.000000 -0.000000 -0.000000  0.062398  0.000000
       6    0.000000 -0.000000 -0.000000  0.000000  0.000000  0.062398
-------------------------------------------------------------------------------

  Mechanical properties :

-------------------------------------------------------------------------------
  Convention :                    Reuss         Voigt         Hill
-------------------------------------------------------------------------------
  Bulk  Modulus (GPa)     =      36.37603      36.37603      36.37603
  Shear Modulus (GPa)     =      19.78520      21.82562      20.80541
-------------------------------------------------------------------------------
  Velocity S-wave (km/s)  =       2.93138       3.07883       3.00601
  Velocity P-wave (km/s)  =       5.22072       5.33268       5.27700
-------------------------------------------------------------------------------
  Compressibility (1/GPa) =    0.02749063
-------------------------------------------------------------------------------
  Stress axis :                     x             y             z
-------------------------------------------------------------------------------
  Youngs Moduli (GPa)     =      71.55833      71.55833      71.55833
-------------------------------------------------------------------------------
  Poissons Ratio (x)      =                     0.17214       0.17214
  Poissons Ratio (y)      =       0.17214                     0.17214
  Poissons Ratio (z)      =       0.17214       0.17214
-------------------------------------------------------------------------------


  Piezoelectric Strain Matrix: (Units=C/m**2)

-------------------------------------------------------------------------------
  Indices      1         2         3         4         5         6    
-------------------------------------------------------------------------------
       x    -0.00000  -0.00000  -0.00000  -0.00000  -0.00000   0.00000
       y     0.00000   0.00000   0.00000  -0.00000  -0.00000  -0.00000
       z     0.00000   0.00000  -0.00000   0.00000  -0.00000  -0.00000
-------------------------------------------------------------------------------


  Piezoelectric Stress Matrix: (Units=10**-11 C/N)

-------------------------------------------------------------------------------
  Indices      1         2         3         4         5         6    
-------------------------------------------------------------------------------
       x    -0.00000  -0.00000  -0.00000  -0.00000  -0.00000   0.00000
       y     0.00000   0.00000   0.00000  -0.00000  -0.00000  -0.00000
       z     0.00000   0.00000  -0.00000   0.00000  -0.00000  -0.00000
-------------------------------------------------------------------------------


  Static dielectric constant tensor : 

-------------------------------------------------------------------------------
              x         y         z
-------------------------------------------------------------------------------
       x     5.77918   0.00000   0.00000
       y     0.00000   5.77918   0.00000
       z     0.00000   0.00000   5.77918
--------------------------------------------------------------------------------

  High frequency dielectric constant tensor : 

-------------------------------------------------------------------------------
              x         y         z
-------------------------------------------------------------------------------
       x     1.30980  -0.00000  -0.00000
       y    -0.00000   1.30980  -0.00000
       z    -0.00000  -0.00000   1.30980
-------------------------------------------------------------------------------

  Static refractive indices : 

-------------------------------------------------------------------------------
    1 =    2.40399      2 =    2.40399      3 =    2.40399
-------------------------------------------------------------------------------

  High frequency refractive indices : 

-------------------------------------------------------------------------------
    1 =    1.14447      2 =    1.14447      3 =    1.14447
-------------------------------------------------------------------------------


  Time to end of optimisation =       0.0311 seconds

********************************************************************************
*  Defect calculation for configuration   1 :                                  *
********************************************************************************

  Total number of defects =      3

  Total charge on defect  =  -0.67

  Defect centre is at   0.5000   0.2500   0.2500  Frac

  Region 1 radius =  12.0000      Number of ions =    575

  Number of symmetry inequivalent region 1 ions  =    331

  Region 2 radius =  16.0000      Number of ions =    818

  Number of symmetry inequivalent region 2a ions =    447

  Region 2a mode = 4 : screened electrostatics due to region 1 
                       neglect correction to region 1 forces from 2a
                       region 2a displacements based on defects only

  Region 2a ions will only interact with defects in region 1

  Vacancies:

--------------------------------------------------------------------------------
    Specification type     Symbol/Number         x          y          z
--------------------------------------------------------------------------------
    Fractional                               0.500000   0.500000   0.000000
    Fractional                               0.500000   0.000000   0.500000
--------------------------------------------------------------------------------

  Interstitials:

--------------------------------------------------------------------------------
    Specification type     Symbol/Number         x          y          z
--------------------------------------------------------------------------------
    Atom/Fractional         Na               0.500000   0.030000   0.470000
--------------------------------------------------------------------------------


  Symmetry reduced region 1 (Relative to defect centre) :

--------------------------------------------------------------------------------
   No.   Atomic       x            y             z       Radius  Multiplicity   
         Label      (Angs)       (Angs)        (Angs)    (Angs)     
--------------------------------------------------------------------------------
     1  Na    c      0.0000      -0.9743       0.9743    0.0000     1    Defect
     2  O     c      0.0000       1.1071 *     1.1071 *  0.0000     1          
     3  Cl    c      2.2142 *    -1.1071 *    -1.1071 *  0.0000     2          
     4  Na    c      2.2142 *     1.1071 *     1.1071 *  0.0000     2          
     5  O     c      0.0000       1.1071 *    -3.3213 *  0.0000     1          
     6  O     c      0.0000      -3.3213 *     1.1071 *  0.0000     1          
     7  Na    c      0.0000       1.1071 *     3.3213 *  0.0000     1          
     8  Na    c      0.0000      -3.3213 *    -1.1071 *  0.0000     1          
     9  Na    c      0.0000      -1.1071 *    -3.3213 *  0.0000     1          
    10  Na    c      0.0000       3.3213 *     1.1071 *  0.0000     1          
    11  Cl    c      2.2142 *    -1.1071 *     3.3213 *  0.0000     2          
    12  Cl    c      2.2142 *     3.3213 *    -1.1071 *  0.0000     2          
    13  Na    c      2.2142 *     1.1071 *    -3.3213 *  0.0000     2          
    14  Na    c      2.2142 *    -3.3213 *     1.1071 *  0.0000     2          
    15  O     c      4.4285 *     1.1071 *     1.1071 *  0.0000     2          
    16  Na    c      4.4285 *     1.1071 *    -1.1071 *  0.0000     2          
    17  Na    c      4.4285 *    -1.1071 *     1.1071 *  0.0000     2          
    18  O     c      0.0000      -3.3213 *    -3.3213 *  0.0000     1          
    19  Na    c      0.0000      -3.3213 *     3.3213 *  0.0000     1          
    20  Na    c      0.0000       3.3213 *    -3.3213 *  0.0000     1          
    21  Cl    c      2.2142 *     3.3213 *     3.3213 *  0.0000     2          
    22  Na    c      2.2142 *    -3.3213 *    -3.3213 *  0.0000     2          
    23  O     c      4.4285 *     1.1071 *    -3.3213 *  0.0000     2          
    24  Na    c      4.4285 *     1.1071 *     3.3213 *  0.0000     2          
    25  Na    c      4.4285 *    -1.1071 *    -3.3213 *  0.0000     2          
    26  O     c      4.4285 *    -3.3213 *     1.1071 *  0.0000     2          
    27  Na    c      4.4285 *    -3.3213 *    -1.1071 *  0.0000     2          
    28  Na    c      4.4285 *     3.3213 *     1.1071 *  0.0000     2          
    29  O     c      0.0000       1.1071 *     5.5356 *  0.0000     1          
    30  O     c      0.0000       5.5356 *     1.1071 *  0.0000     1          
    31  Na    c      0.0000       1.1071 *    -5.5356 *  0.0000     1          
    32  Na    c      0.0000       5.5356 *    -1.1071 *  0.0000     1          
    33  Na    c      0.0000      -1.1071 *     5.5356 *  0.0000     1          
    34  Na    c      0.0000      -5.5356 *     1.1071 *  0.0000     1          
    35  Cl    c      2.2142 *    -1.1071 *    -5.5356 *  0.0000     2          
    36  Cl    c      2.2142 *    -5.5356 *    -1.1071 *  0.0000     2          
    37  Na    c      2.2142 *     1.1071 *     5.5356 *  0.0000     2          
    38  Na    c      2.2142 *     5.5356 *     1.1071 *  0.0000     2          
    39  O     c      0.0000       5.5356 *    -3.3213 *  0.0000     1          
    40  O     c      0.0000      -3.3213 *     5.5356 *  0.0000     1          
    41  O     c      4.4285 *    -3.3213 *    -3.3213 *  0.0000     2          
    42  Na    c      0.0000       5.5356 *     3.3213 *  0.0000     1          
    43  Na    c      0.0000      -3.3213 *    -5.5356 *  0.0000     1          
    44  Na    c      4.4285 *    -3.3213 *     3.3213 *  0.0000     2          
    45  Na    c      0.0000       3.3213 *     5.5356 *  0.0000     1          
    46  Na    c      0.0000      -5.5356 *    -3.3213 *  0.0000     1          
    47  Na    c      4.4285 *     3.3213 *    -3.3213 *  0.0000     2          
    48  Cl    c      2.2142 *     3.3213 *    -5.5356 *  0.0000     2          
    49  Cl    c      6.6427 *    -1.1071 *    -1.1071 *  0.0000     2          
    50  Na    c      2.2142 *    -3.3213 *     5.5356 *  0.0000     2          
    51  Na    c      6.6427 *     1.1071 *     1.1071 *  0.0000     2          
    52  Cl    c      2.2142 *    -5.5356 *     3.3213 *  0.0000     2          
    53  Na    c      2.2142 *     5.5356 *    -3.3213 *  0.0000     2          
    54  O     c      4.4285 *     1.1071 *     5.5356 *  0.0000     2          
    55  O     c      4.4285 *     5.5356 *     1.1071 *  0.0000     2          
    56  Na    c      4.4285 *     1.1071 *    -5.5356 *  0.0000     2          
    57  Na    c      4.4285 *     5.5356 *    -1.1071 *  0.0000     2          
    58  Na    c      4.4285 *    -1.1071 *     5.5356 *  0.0000     2          
    59  Na    c      4.4285 *    -5.5356 *     1.1071 *  0.0000     2          
    60  Cl    c      6.6427 *     3.3213 *    -1.1071 *  0.0000     2          
    61  Na    c      6.6427 *    -3.3213 *     1.1071 *  0.0000     2          
    62  Cl    c      6.6427 *    -1.1071 *     3.3213 *  0.0000     2          
    63  Na    c      6.6427 *     1.1071 *    -3.3213 *  0.0000     2          
    64  O     c      0.0000       1.1071 *    -7.7498 *  0.0000     1          
    65  O     c      0.0000      -7.7498 *     1.1071 *  0.0000     1          
    66  Na    c      0.0000       1.1071 *     7.7498 *  0.0000     1          
    67  Na    c      0.0000      -7.7498 *    -1.1071 *  0.0000     1          
    68  Na    c      0.0000      -1.1071 *    -7.7498 *  0.0000     1          
    69  Na    c      0.0000       7.7498 *     1.1071 *  0.0000     1          
    70  O     c      4.4285 *    -3.3213 *     5.5356 *  0.0000     2          
    71  Na    c      4.4285 *    -3.3213 *    -5.5356 *  0.0000     2          
    72  Na    c      4.4285 *     3.3213 *     5.5356 *  0.0000     2          
    73  O     c      0.0000       5.5356 *     5.5356 *  0.0000     1          
    74  O     c      4.4285 *     5.5356 *    -3.3213 *  0.0000     2          
    75  Na    c      0.0000       5.5356 *    -5.5356 *  0.0000     1          
    76  Na    c      4.4285 *     5.5356 *     3.3213 *  0.0000     2          
    77  Na    c      0.0000      -5.5356 *     5.5356 *  0.0000     1          
    78  Na    c      4.4285 *    -5.5356 *    -3.3213 *  0.0000     2          
    79  Cl    c      2.2142 *    -1.1071 *     7.7498 *  0.0000     2          
    80  Cl    c      2.2142 *     7.7498 *    -1.1071 *  0.0000     2          
    81  Na    c      2.2142 *     1.1071 *    -7.7498 *  0.0000     2          
    82  Na    c      2.2142 *    -7.7498 *     1.1071 *  0.0000     2          
    83  Cl    c      6.6427 *     3.3213 *     3.3213 *  0.0000     2          
    84  Na    c      6.6427 *    -3.3213 *    -3.3213 *  0.0000     2          
    85  Cl    c      2.2142 *    -5.5356 *    -5.5356 *  0.0000     2          
    86  Na    c      2.2142 *     5.5356 *     5.5356 *  0.0000     2          
    87  O     c      0.0000      -3.3213 *    -7.7498 *  0.0000     1          
    88  O     c      0.0000      -7.7498 *    -3.3213 *  0.0000     1          
    89  Na    c      0.0000      -3.3213 *     7.7498 *  0.0000     1          
    90  Na    c      0.0000      -7.7498 *     3.3213 *  0.0000     1          
    91  Na    c      0.0000       3.3213 *    -7.7498 *  0.0000     1          
    92  Na    c      0.0000       7.7498 *    -3.3213 *  0.0000     1          
    93  Cl    c      2.2142 *     3.3213 *     7.7498 *  0.0000     2          
    94  Cl    c      2.2142 *     7.7498 *     3.3213 *  0.0000     2          
    95  Na    c      2.2142 *    -3.3213 *    -7.7498 *  0.0000     2          
    96  Na    c      2.2142 *    -7.7498 *    -3.3213 *  0.0000     2          
    97  Cl    c      6.6427 *    -5.5356 *    -1.1071 *  0.0000     2          
    98  Na    c      6.6427 *     5.5356 *     1.1071 *  0.0000     2          
    99  Cl    c      6.6427 *    -1.1071 *    -5.5356 *  0.0000     2          
   100  Na    c      6.6427 *     1.1071 *     5.5356 *  0.0000     2          
   101  O     c      4.4285 *     1.1071 *    -7.7498 *  0.0000     2          
   102  O     c      4.4285 *    -7.7498 *     1.1071 *  0.0000     2          
   103  O     c      8.8569 *     1.1071 *     1.1071 *  0.0000     2          
   104  Na    c      4.4285 *     1.1071 *     7.7498 *  0.0000     2          
   105  Na    c      4.4285 *    -7.7498 *    -1.1071 *  0.0000     2          
   106  Na    c      8.8569 *     1.1071 *    -1.1071 *  0.0000     2          
   107  Na    c      4.4285 *    -1.1071 *    -7.7498 *  0.0000     2          
   108  Na    c      4.4285 *     7.7498 *     1.1071 *  0.0000     2          
   109  Na    c      8.8569 *    -1.1071 *     1.1071 *  0.0000     2          
   110  O     c      4.4285 *     5.5356 *     5.5356 *  0.0000     2          
   111  Na    c      4.4285 *     5.5356 *    -5.5356 *  0.0000     2          
   112  Na    c      4.4285 *    -5.5356 *     5.5356 *  0.0000     2          
   113  Cl    c      6.6427 *    -5.5356 *     3.3213 *  0.0000     2          
   114  Na    c      6.6427 *     5.5356 *    -3.3213 *  0.0000     2          
   115  Cl    c      6.6427 *     3.3213 *    -5.5356 *  0.0000     2          
   116  Na    c      6.6427 *    -3.3213 *     5.5356 *  0.0000     2          
   117  O     c      4.4285 *    -3.3213 *    -7.7498 *  0.0000     2          
   118  O     c      4.4285 *    -7.7498 *    -3.3213 *  0.0000     2          
   119  O     c      8.8569 *     1.1071 *    -3.3213 *  0.0000     2          
   120  O     c      8.8569 *    -3.3213 *     1.1071 *  0.0000     2          
   121  Na    c      4.4285 *    -3.3213 *     7.7498 *  0.0000     2          
   122  Na    c      4.4285 *    -7.7498 *     3.3213 *  0.0000     2          
   123  Na    c      8.8569 *     1.1071 *     3.3213 *  0.0000     2          
   124  Na    c      8.8569 *    -3.3213 *    -1.1071 *  0.0000     2          
   125  Na    c      4.4285 *     3.3213 *    -7.7498 *  0.0000     2          
   126  Na    c      4.4285 *     7.7498 *    -3.3213 *  0.0000     2          
   127  Na    c      8.8569 *    -1.1071 *    -3.3213 *  0.0000     2          
   128  Na    c      8.8569 *     3.3213 *     1.1071 *  0.0000     2          
   129  O     c      0.0000       5.5356 *    -7.7498 *  0.0000     1          
   130  O     c      0.0000      -7.7498 *     5.5356 *  0.0000     1          
   131  Na    c      0.0000       5.5356 *     7.7498 *  0.0000     1          
   132  Na    c      0.0000      -7.7498 *    -5.5356 *  0.0000     1          
   133  Na    c      0.0000       7.7498 *     5.5356 *  0.0000     1          
   134  Na    c      0.0000      -5.5356 *    -7.7498 *  0.0000     1          
   135  Cl    c      2.2142 *     7.7498 *    -5.5356 *  0.0000     2          
   136  Cl    c      2.2142 *    -5.5356 *     7.7498 *  0.0000     2          
   137  Na    c      2.2142 *     5.5356 *    -7.7498 *  0.0000     2          
   138  Na    c      2.2142 *    -7.7498 *     5.5356 *  0.0000     2          
   139  O     c      8.8569 *    -3.3213 *    -3.3213 *  0.0000     2          
   140  Na    c      8.8569 *    -3.3213 *     3.3213 *  0.0000     2          
   141  Na    c      8.8569 *     3.3213 *    -3.3213 *  0.0000     2          
   142  O     c      0.0000       1.1071 *     9.9640 *  0.0000     1          
   143  O     c      0.0000       9.9640 *     1.1071 *  0.0000     1          
   144  Na    c      0.0000       1.1071 *    -9.9640 *  0.0000     1          
   145  Na    c      0.0000       9.9640 *    -1.1071 *  0.0000     1          
   146  Na    c      0.0000      -1.1071 *     9.9640 *  0.0000     1          
   147  Na    c      0.0000      -9.9640 *     1.1071 *  0.0000     1          
   148  Cl    c      2.2142 *    -1.1071 *    -9.9640 *  0.0000     2          
   149  Cl    c      2.2142 *    -9.9640 *    -1.1071 *  0.0000     2          
   150  Cl    c      6.6427 *    -1.1071 *     7.7498 *  0.0000     2          
   151  Cl    c      6.6427 *     7.7498 *    -1.1071 *  0.0000     2          
   152  Na    c      2.2142 *     1.1071 *     9.9640 *  0.0000     2          
   153  Na    c      2.2142 *     9.9640 *     1.1071 *  0.0000     2          
   154  Na    c      6.6427 *     1.1071 *    -7.7498 *  0.0000     2          
   155  Na    c      6.6427 *    -7.7498 *     1.1071 *  0.0000     2          
   156  Cl    c      6.6427 *    -5.5356 *    -5.5356 *  0.0000     2          
   157  Na    c      6.6427 *     5.5356 *     5.5356 *  0.0000     2          
   158  O     c      0.0000       9.9640 *    -3.3213 *  0.0000     1          
   159  O     c      0.0000      -3.3213 *     9.9640 *  0.0000     1          
   160  O     c      4.4285 *     5.5356 *    -7.7498 *  0.0000     2          
   161  O     c      4.4285 *    -7.7498 *     5.5356 *  0.0000     2          
   162  O     c      8.8569 *     1.1071 *     5.5356 *  0.0000     2          
   163  O     c      8.8569 *     5.5356 *     1.1071 *  0.0000     2          
   164  Na    c      0.0000       9.9640 *     3.3213 *  0.0000     1          
   165  Na    c      0.0000      -3.3213 *    -9.9640 *  0.0000     1          
   166  Na    c      4.4285 *     5.5356 *     7.7498 *  0.0000     2          
   167  Na    c      4.4285 *    -7.7498 *    -5.5356 *  0.0000     2          
   168  Na    c      8.8569 *     1.1071 *    -5.5356 *  0.0000     2          
   169  Na    c      8.8569 *     5.5356 *    -1.1071 *  0.0000     2          
   170  Na    c      0.0000       3.3213 *     9.9640 *  0.0000     1          
   171  Na    c      0.0000      -9.9640 *    -3.3213 *  0.0000     1          
   172  Na    c      4.4285 *     7.7498 *     5.5356 *  0.0000     2          
   173  Na    c      4.4285 *    -5.5356 *    -7.7498 *  0.0000     2          
   174  Na    c      8.8569 *    -1.1071 *     5.5356 *  0.0000     2          
   175  Na    c      8.8569 *    -5.5356 *     1.1071 *  0.0000     2          
   176  Cl    c      2.2142 *     3.3213 *    -9.9640 *  0.0000     2          
   177  Cl    c      2.2142 *    -9.9640 *     3.3213 *  0.0000     2          
   178  Cl    c      6.6427 *     3.3213 *     7.7498 *  0.0000     2          
   179  Cl    c      6.6427 *     7.7498 *     3.3213 *  0.0000     2          
   180  Na    c      2.2142 *     9.9640 *    -3.3213 *  0.0000     2          
   181  Na    c      2.2142 *    -3.3213 *     9.9640 *  0.0000     2          
   182  Na    c      6.6427 *    -3.3213 *    -7.7498 *  0.0000     2          
   183  Na    c      6.6427 *    -7.7498 *    -3.3213 *  0.0000     2          
   184  O     c      0.0000      -7.7498 *    -7.7498 *  0.0000     1          
   185  Na    c      0.0000      -7.7498 *     7.7498 *  0.0000     1          
   186  Na    c      0.0000       7.7498 *    -7.7498 *  0.0000     1          
   187  O     c      4.4285 *     1.1071 *     9.9640 *  0.0000     2          
   188  O     c      4.4285 *     9.9640 *     1.1071 *  0.0000     2          
   189  O     c      8.8569 *     5.5356 *    -3.3213 *  0.0000     2          
   190  O     c      8.8569 *    -3.3213 *     5.5356 *  0.0000     2          
   191  Na    c      4.4285 *     1.1071 *    -9.9640 *  0.0000     2          
   192  Na    c      4.4285 *     9.9640 *    -1.1071 *  0.0000     2          
   193  Na    c      8.8569 *     5.5356 *     3.3213 *  0.0000     2          
   194  Na    c      8.8569 *    -3.3213 *    -5.5356 *  0.0000     2          
   195  Na    c      4.4285 *    -1.1071 *     9.9640 *  0.0000     2          
   196  Na    c      4.4285 *    -9.9640 *     1.1071 *  0.0000     2          
   197  Na    c      8.8569 *     3.3213 *     5.5356 *  0.0000     2          
   198  Na    c      8.8569 *    -5.5356 *    -3.3213 *  0.0000     2          
   199  Cl    c      2.2142 *     7.7498 *     7.7498 *  0.0000     2          
   200  Na    c      2.2142 *    -7.7498 *    -7.7498 *  0.0000     2          
   201  Cl    c     11.0712 *    -1.1071 *    -1.1071 *  0.0000     2          
   202  Na    c     11.0712 *     1.1071 *     1.1071 *  0.0000     2          
   203  O     c      0.0000       5.5356 *     9.9640 *  0.0000     1          
   204  O     c      0.0000       9.9640 *     5.5356 *  0.0000     1          
   205  O     c      4.4285 *     9.9640 *    -3.3213 *  0.0000     2          
   206  O     c      4.4285 *    -3.3213 *     9.9640 *  0.0000     2          
   207  Na    c      0.0000       5.5356 *    -9.9640 *  0.0000     1          
   208  Na    c      0.0000       9.9640 *    -5.5356 *  0.0000     1          
   209  Na    c      4.4285 *     9.9640 *     3.3213 *  0.0000     2          
   210  Na    c      4.4285 *    -3.3213 *    -9.9640 *  0.0000     2          
   211  Na    c      0.0000      -5.5356 *     9.9640 *  0.0000     1          
   212  Na    c      0.0000      -9.9640 *     5.5356 *  0.0000     1          
   213  Na    c      4.4285 *     3.3213 *     9.9640 *  0.0000     2          
   214  Na    c      4.4285 *    -9.9640 *    -3.3213 *  0.0000     2          
   215  Cl    c      2.2142 *    -5.5356 *    -9.9640 *  0.0000     2          
   216  Cl    c      2.2142 *    -9.9640 *    -5.5356 *  0.0000     2          
   217  Cl    c      6.6427 *     7.7498 *    -5.5356 *  0.0000     2          
   218  Cl    c      6.6427 *    -5.5356 *     7.7498 *  0.0000     2          
   219  Na    c      2.2142 *     5.5356 *     9.9640 *  0.0000     2          
   220  Na    c      2.2142 *     9.9640 *     5.5356 *  0.0000     2          
   221  Na    c      6.6427 *     5.5356 *    -7.7498 *  0.0000     2          
   222  Na    c      6.6427 *    -7.7498 *     5.5356 *  0.0000     2          
   223  Cl    c     11.0712 *    -1.1071 *     3.3213 *  0.0000     2          
   224  Cl    c     11.0712 *     3.3213 *    -1.1071 *  0.0000     2          
   225  Na    c     11.0712 *     1.1071 *    -3.3213 *  0.0000     2          
   226  Na    c     11.0712 *    -3.3213 *     1.1071 *  0.0000     2          
   227  O     c      4.4285 *    -7.7498 *    -7.7498 *  0.0000     2          
   228  O     c      8.8569 *     1.1071 *    -7.7498 *  0.0000     2          
   229  O     c      8.8569 *    -7.7498 *     1.1071 *  0.0000     2          
   230  Na    c      4.4285 *    -7.7498 *     7.7498 *  0.0000     2          
   231  Na    c      8.8569 *     1.1071 *     7.7498 *  0.0000     2          
   232  Na    c      8.8569 *    -7.7498 *    -1.1071 *  0.0000     2          
   233  Na    c      4.4285 *     7.7498 *    -7.7498 *  0.0000     2          
   234  Na    c      8.8569 *    -1.1071 *    -7.7498 *  0.0000     2          
   235  Na    c      8.8569 *     7.7498 *     1.1071 *  0.0000     2          
   236  O     c      8.8569 *     5.5356 *     5.5356 *  0.0000     2          
   237  Na    c      8.8569 *     5.5356 *    -5.5356 *  0.0000     2          
   238  Na    c      8.8569 *    -5.5356 *     5.5356 *  0.0000     2          
   239  O     s      0.0000       1.1071 *     1.1071 *  0.0000     1          
   240  Cl    s      2.2142 *    -1.1071 *    -1.1071 *  0.0000     2          
   241  O     s      0.0000       1.1071 *    -3.3213 *  0.0000     1          
   242  O     s      0.0000      -3.3213 *     1.1071 *  0.0000     1          
   243  Cl    s      2.2142 *    -1.1071 *     3.3213 *  0.0000     2          
   244  Cl    s      2.2142 *     3.3213 *    -1.1071 *  0.0000     2          
   245  O     s      4.4285 *     1.1071 *     1.1071 *  0.0000     2          
   246  O     s      0.0000      -3.3213 *    -3.3213 *  0.0000     1          
   247  Cl    s      2.2142 *     3.3213 *     3.3213 *  0.0000     2          
   248  O     s      4.4285 *     1.1071 *    -3.3213 *  0.0000     2          
   249  O     s      4.4285 *    -3.3213 *     1.1071 *  0.0000     2          
   250  O     s      0.0000       1.1071 *     5.5356 *  0.0000     1          
   251  O     s      0.0000       5.5356 *     1.1071 *  0.0000     1          
   252  Cl    s      2.2142 *    -1.1071 *    -5.5356 *  0.0000     2          
   253  Cl    s      2.2142 *    -5.5356 *    -1.1071 *  0.0000     2          
   254  O     s      0.0000       5.5356 *    -3.3213 *  0.0000     1          
   255  O     s      0.0000      -3.3213 *     5.5356 *  0.0000     1          
   256  O     s      4.4285 *    -3.3213 *    -3.3213 *  0.0000     2          
   257  Cl    s      2.2142 *     3.3213 *    -5.5356 *  0.0000     2          
   258  Cl    s      6.6427 *    -1.1071 *    -1.1071 *  0.0000     2          
   259  Cl    s      2.2142 *    -5.5356 *     3.3213 *  0.0000     2          
   260  O     s      4.4285 *     1.1071 *     5.5356 *  0.0000     2          
   261  O     s      4.4285 *     5.5356 *     1.1071 *  0.0000     2          
   262  Cl    s      6.6427 *     3.3213 *    -1.1071 *  0.0000     2          
   263  Cl    s      6.6427 *    -1.1071 *     3.3213 *  0.0000     2          
   264  O     s      0.0000       1.1071 *    -7.7498 *  0.0000     1          
   265  O     s      0.0000      -7.7498 *     1.1071 *  0.0000     1          
   266  O     s      4.4285 *    -3.3213 *     5.5356 *  0.0000     2          
   267  O     s      0.0000       5.5356 *     5.5356 *  0.0000     1          
   268  O     s      4.4285 *     5.5356 *    -3.3213 *  0.0000     2          
   269  Cl    s      2.2142 *    -1.1071 *     7.7498 *  0.0000     2          
   270  Cl    s      2.2142 *     7.7498 *    -1.1071 *  0.0000     2          
   271  Cl    s      6.6427 *     3.3213 *     3.3213 *  0.0000     2          
   272  Cl    s      2.2142 *    -5.5356 *    -5.5356 *  0.0000     2          
   273  O     s      0.0000      -3.3213 *    -7.7498 *  0.0000     1          
   274  O     s      0.0000      -7.7498 *    -3.3213 *  0.0000     1          
   275  Cl    s      2.2142 *     3.3213 *     7.7498 *  0.0000     2          
   276  Cl    s      2.2142 *     7.7498 *     3.3213 *  0.0000     2          
   277  Cl    s      6.6427 *    -5.5356 *    -1.1071 *  0.0000     2          
   278  Cl    s      6.6427 *    -1.1071 *    -5.5356 *  0.0000     2          
   279  O     s      4.4285 *     1.1071 *    -7.7498 *  0.0000     2          
   280  O     s      4.4285 *    -7.7498 *     1.1071 *  0.0000     2          
   281  O     s      8.8569 *     1.1071 *     1.1071 *  0.0000     2          
   282  O     s      4.4285 *     5.5356 *     5.5356 *  0.0000     2          
   283  Cl    s      6.6427 *    -5.5356 *     3.3213 *  0.0000     2          
   284  Cl    s      6.6427 *     3.3213 *    -5.5356 *  0.0000     2          
   285  O     s      4.4285 *    -3.3213 *    -7.7498 *  0.0000     2          
   286  O     s      4.4285 *    -7.7498 *    -3.3213 *  0.0000     2          
   287  O     s      8.8569 *     1.1071 *    -3.3213 *  0.0000     2          
   288  O     s      8.8569 *    -3.3213 *     1.1071 *  0.0000     2          
   289  O     s      0.0000       5.5356 *    -7.7498 *  0.0000     1          
   290  O     s      0.0000      -7.7498 *     5.5356 *  0.0000     1          
   291  Cl    s      2.2142 *     7.7498 *    -5.5356 *  0.0000     2          
   292  Cl    s      2.2142 *    -5.5356 *     7.7498 *  0.0000     2          
   293  O     s      8.8569 *    -3.3213 *    -3.3213 *  0.0000     2          
   294  O     s      0.0000       1.1071 *     9.9640 *  0.0000     1          
   295  O     s      0.0000       9.9640 *     1.1071 *  0.0000     1          
   296  Cl    s      2.2142 *    -1.1071 *    -9.9640 *  0.0000     2          
   297  Cl    s      2.2142 *    -9.9640 *    -1.1071 *  0.0000     2          
   298  Cl    s      6.6427 *    -1.1071 *     7.7498 *  0.0000     2          
   299  Cl    s      6.6427 *     7.7498 *    -1.1071 *  0.0000     2          
   300  Cl    s      6.6427 *    -5.5356 *    -5.5356 *  0.0000     2          
   301  O     s      0.0000       9.9640 *    -3.3213 *  0.0000     1          
   302  O     s      0.0000      -3.3213 *     9.9640 *  0.0000     1          
   303  O     s      4.4285 *     5.5356 *    -7.7498 *  0.0000     2          
   304  O     s      4.4285 *    -7.7498 *     5.5356 *  0.0000     2          
   305  O     s      8.8569 *     1.1071 *     5.5356 *  0.0000     2          
   306  O     s      8.8569 *     5.5356 *     1.1071 *  0.0000     2          
   307  Cl    s      2.2142 *     3.3213 *    -9.9640 *  0.0000     2          
   308  Cl    s      2.2142 *    -9.9640 *     3.3213 *  0.0000     2          
   309  Cl    s      6.6427 *     3.3213 *     7.7498 *  0.0000     2          
   310  Cl    s      6.6427 *     7.7498 *     3.3213 *  0.0000     2          
   311  O     s      0.0000      -7.7498 *    -7.7498 *  0.0000     1          
   312  O     s      4.4285 *     1.1071 *     9.9640 *  0.0000     2          
   313  O     s      4.4285 *     9.9640 *     1.1071 *  0.0000     2          
   314  O     s      8.8569 *     5.5356 *    -3.3213 *  0.0000     2          
   315  O     s      8.8569 *    -3.3213 *     5.5356 *  0.0000     2          
   316  Cl    s      2.2142 *     7.7498 *     7.7498 *  0.0000     2          
   317  Cl    s     11.0712 *    -1.1071 *    -1.1071 *  0.0000     2          
   318  O     s      0.0000       5.5356 *     9.9640 *  0.0000     1          
   319  O     s      0.0000       9.9640 *     5.5356 *  0.0000     1          
   320  O     s      4.4285 *     9.9640 *    -3.3213 *  0.0000     2          
   321  O     s      4.4285 *    -3.3213 *     9.9640 *  0.0000     2          
   322  Cl    s      2.2142 *    -5.5356 *    -9.9640 *  0.0000     2          
   323  Cl    s      2.2142 *    -9.9640 *    -5.5356 *  0.0000     2          
   324  Cl    s      6.6427 *     7.7498 *    -5.5356 *  0.0000     2          
   325  Cl    s      6.6427 *    -5.5356 *     7.7498 *  0.0000     2          
   326  Cl    s     11.0712 *    -1.1071 *     3.3213 *  0.0000     2          
   327  Cl    s     11.0712 *     3.3213 *    -1.1071 *  0.0000     2          
   328  O     s      4.4285 *    -7.7498 *    -7.7498 *  0.0000     2          
   329  O     s      8.8569 *     1.1071 *    -7.7498 *  0.0000     2          
   330  O     s      8.8569 *    -7.7498 *     1.1071 *  0.0000     2          
   331  O     s      8.8569 *     5.5356 *     5.5356 *  0.0000     2          
--------------------------------------------------------------------------------

  Components of defect energy : 

--------------------------------------------------------------------------------
  Region 1 - region 1                   =      4.03511516 eV
  Region 1 - region 2a (unrelaxed)      =     -0.00682800 eV
  Region 1 - 2a (relaxed - correction)  =     -0.11863869 eV
  Region 1 (Total)                      =      3.90964847 eV
  Region 2a                             =      0.05929770 eV
  Region 2b                             =     -0.16704340 eV
--------------------------------------------------------------------------------
  Total defect energy                   =      3.80190277 eV
--------------------------------------------------------------------------------

  Largest displacement in region 2 =   0.0197 Angstroms


  Number of variables =      904

  Maximum number of calculations  =        1000
  Maximum Hessian update interval =          10
  Maximum step size               =   1.0000000
  Maximum parameter tolerance     =   0.0000100
  Maximum function  tolerance     =   0.0000100
  Maximum gradient  tolerance     =   0.0010000

  Symmetry adapted optimisation

  Symmetry to be used for second derivatives

  Newton-Raphson optimiser to be used

  BFGS hessian update to be used

  Lower half triangular hessian to be used

  Start of defect optimisation :

  Cycle:      0 Defect Energy:   3.801903  Gnorm:     0.008454  CPU:    6.549
  ** Hessian calculated **
  Cycle:      1 Defect Energy:   3.507236  Gnorm:     0.007586  CPU:   13.606
  Cycle:      2 Defect Energy:   3.205339  Gnorm:     0.006332  CPU:   18.897
  Cycle:      3 Defect Energy:   2.779322  Gnorm:     0.003955  CPU:   23.988
  ** Hessian calculated **
  Cycle:      4 Defect Energy:   2.620959  Gnorm:     0.002769  CPU:   26.575
  Cycle:      5 Defect Energy:   2.542831  Gnorm:     0.001938  CPU:   27.498
  Cycle:      6 Defect Energy:   2.503572  Gnorm:     0.001353  CPU:   28.361
  Cycle:      7 Defect Energy:   2.483410  Gnorm:     0.000939  CPU:   28.891
  Cycle:      8 Defect Energy:   2.472587  Gnorm:     0.000643  CPU:   29.781
  Cycle:      9 Defect Energy:   2.466203  Gnorm:     0.000425  CPU:   30.686
  Cycle:     10 Defect Energy:   2.461615  Gnorm:     0.000251  CPU:   31.585
  Cycle:     11 Defect Energy:   2.456831  Gnorm:     0.000095  CPU:   32.566
  Cycle:     12 Defect Energy:   2.450834  Gnorm:     0.000157  CPU:   33.418
  Cycle:     13 Defect Energy:   2.444799  Gnorm:     0.000394  CPU:   34.274
  ** Hessian calculated **
  Cycle:     14 Defect Energy:   2.439268  Gnorm:     0.000276  CPU:   36.635
  Cycle:     15 Defect Energy:   2.436630  Gnorm:     0.000193  CPU:   37.281
  Cycle:     16 Defect Energy:   2.435441  Gnorm:     0.000133  CPU:   40.257
  Cycle:     17 Defect Energy:   2.435358  Gnorm:     0.000106  CPU:   43.063
  ** Hessian calculated **
  Cycle:     18 Defect Energy:   2.434782  Gnorm:     0.000074  CPU:   45.958
  Cycle:     19 Defect Energy:   2.434472  Gnorm:     0.000052  CPU:   47.048
  Cycle:     20 Defect Energy:   2.434292  Gnorm:     0.000036  CPU:   48.173
  Cycle:     21 Defect Energy:   2.434182  Gnorm:     0.000025  CPU:   49.194
  Cycle:     22 Defect Energy:   2.434108  Gnorm:     0.000016  CPU:   50.240
  Cycle:     23 Defect Energy:   2.434054  Gnorm:     0.000010  CPU:   51.241
  Cycle:     24 Defect Energy:   2.434006  Gnorm:     0.000006  CPU:   52.237
  Cycle:     25 Defect Energy:   2.433943  Gnorm:     0.000005  CPU:   53.475
  Cycle:     26 Defect Energy:   2.433834  Gnorm:     0.000011  CPU:   54.440
  ** Hessian calculated **


  **** Optimisation achieved ****


  Final defect energy  =        2.43383396
  Final defect Gnorm   =        0.00000775

  Components of defect energy : 

--------------------------------------------------------------------------------
  Region 1 - region 1                   =      2.99085773 eV
  Region 1 - region 2a (unrelaxed)      =     -0.34325641 eV
  Region 1 - 2a (relaxed - correction)  =     -0.09491118 eV
  Region 1 (Total)                      =      2.55269015 eV
  Region 2a                             =      0.04746990 eV
  Region 2b                             =     -0.16632608 eV
--------------------------------------------------------------------------------
  Total defect energy                   =      2.43383396 eV
--------------------------------------------------------------------------------

  Largest displacement in region 2 =   0.0197 Angstroms

  Final coordinates of region 1 :

--------------------------------------------------------------------------------
   No.  Atomic        x           y           z          Radius      Charge
        Label       (Angs)      (Angs)      (Angs)       (Angs)       (e) 
--------------------------------------------------------------------------------
     1  Na    c     2.214230    0.132854    2.081377    0.000000    0.670000
     2  O     c     2.214230    2.284425    2.319788    0.000000    0.489000
     3  Cl    c     4.551914   -0.116043    0.005216    0.000000    0.615000
     4  Cl    c    -0.123453   -0.116043    0.005216    0.000000    0.615000
     5  Na    c     4.357623    2.244125    1.872790    0.000000    0.670000
     6  Na    c     0.070838    2.244125    1.872790    0.000000    0.670000
     7  O     c     2.214230    2.233110   -2.295164    0.000000    0.489000
     8  O     c     2.214230   -2.155584    2.215238    0.000000    0.489000
     9  Na    c     2.214230    2.390411    4.464888    0.000000    0.670000
    10  Na    c     2.214230   -2.289795    0.013100    0.000000    0.670000
    11  Na    c     2.214230    0.082901   -1.918692    0.000000    0.670000
    12  Na    c     2.214230    4.404889    1.847626    0.000000    0.670000
    13  Cl    c     4.492304   -0.080619    4.524730    0.000000    0.615000
    14  Cl    c    -0.063843   -0.080619    4.524730    0.000000    0.615000
    15  Cl    c     4.555302    4.564080   -0.002037    0.000000    0.615000
    16  Cl    c    -0.126841    4.564080   -0.002037    0.000000    0.615000
    17  Na    c     4.362656    2.227715   -1.890731    0.000000    0.670000
    18  Na    c     0.065805    2.227715   -1.890731    0.000000    0.670000
    19  Na    c     4.423709   -2.144153    2.213258    0.000000    0.670000
    20  Na    c     0.004752   -2.144153    2.213258    0.000000    0.670000
    21  O     c     6.608035    2.222998    2.198735    0.000000    0.489000
    22  O     c    -2.179574    2.222998    2.198735    0.000000    0.489000
    23  Na    c     6.854321    2.244023   -0.000502    0.000000    0.670000
    24  Na    c    -2.425861    2.244023   -0.000502    0.000000    0.670000
    25  Na    c     6.605439    0.010662    2.178450    0.000000    0.670000
    26  Na    c    -2.176978    0.010662    2.178450    0.000000    0.670000
    27  O     c     2.214230   -2.169284   -2.195912    0.000000    0.489000
    28  Na    c     2.214230   -2.069741    4.417393    0.000000    0.670000
    29  Na    c     2.214230    4.380663   -1.900434    0.000000    0.670000
    30  Cl    c     4.508915    4.513332    4.535038    0.000000    0.615000
    31  Cl    c    -0.080454    4.513332    4.535038    0.000000    0.615000
    32  Na    c     4.424749   -2.168233   -2.211449    0.000000    0.670000
    33  Na    c     0.003711   -2.168233   -2.211449    0.000000    0.670000
    34  O     c     6.612211    2.219624   -2.199180    0.000000    0.489000
    35  O     c    -2.183750    2.219624   -2.199180    0.000000    0.489000
    36  Na    c     6.374724    2.196575    4.402218    0.000000    0.670000
    37  Na    c    -1.946263    2.196575    4.402218    0.000000    0.670000
    38  Na    c     6.593057    0.007394   -2.187212    0.000000    0.670000
    39  Na    c    -2.164596    0.007394   -2.187212    0.000000    0.670000
    40  O     c     6.644601   -2.212115    2.221567    0.000000    0.489000
    41  O     c    -2.216140   -2.212115    2.221567    0.000000    0.489000
    42  Na    c     6.628747   -2.228289    0.001058    0.000000    0.670000
    43  Na    c    -2.200286   -2.228289    0.001058    0.000000    0.670000
    44  Na    c     6.591748    4.434132    2.230318    0.000000    0.670000
    45  Na    c    -2.163287    4.434132    2.230318    0.000000    0.670000
    46  O     c     2.214230    2.231918    6.686794    0.000000    0.489000
    47  O     c     2.214230    6.633129    2.201023    0.000000    0.489000
    48  Na    c     2.214230    2.233821   -4.444591    0.000000    0.670000
    49  Na    c     2.214230    6.877952   -0.000380    0.000000    0.670000
    50  Na    c     2.214230    0.022452    6.583611    0.000000    0.670000
    51  Na    c     2.214230   -4.387705    2.314624    0.000000    0.670000
    52  Cl    c     4.503146   -0.077157   -4.525384    0.000000    0.615000
    53  Cl    c    -0.074685   -0.077157   -4.525384    0.000000    0.615000
    54  Cl    c     4.434698   -4.449327    0.005797    0.000000    0.615000
    55  Cl    c    -0.006237   -4.449327    0.005797    0.000000    0.615000
    56  Na    c     4.421461    2.222518    6.716884    0.000000    0.670000
    57  Na    c     0.007000    2.222518    6.716884    0.000000    0.670000
    58  Na    c     4.426525    6.623427    2.217127    0.000000    0.670000
    59  Na    c     0.001936    6.623427    2.217127    0.000000    0.670000
    60  O     c     2.214230    6.626297   -2.197401    0.000000    0.489000
    61  O     c     2.214230   -2.199009    6.637693    0.000000    0.489000
    62  O     c     6.645782   -2.214644   -2.218890    0.000000    0.489000
    63  O     c    -2.217321   -2.214644   -2.218890    0.000000    0.489000
    64  Na    c     2.214230    6.386343    4.409652    0.000000    0.670000
    65  Na    c     2.214230   -2.001554   -4.404365    0.000000    0.670000
    66  Na    c     6.632375   -2.181010    4.432196    0.000000    0.670000
    67  Na    c    -2.203915   -2.181010    4.432196    0.000000    0.670000
    68  Na    c     2.214230    4.437633    6.796517    0.000000    0.670000
    69  Na    c     2.214230   -4.391436   -2.326759    0.000000    0.670000
    70  Na    c     6.601026    4.431522   -2.227274    0.000000    0.670000
    71  Na    c    -2.172565    4.431522   -2.227274    0.000000    0.670000
    72  Cl    c     4.506245    4.510790   -4.522024    0.000000    0.615000
    73  Cl    c    -0.077784    4.510790   -4.522024    0.000000    0.615000
    74  Cl    c     8.880955   -0.011100    0.001584    0.000000    0.615000
    75  Cl    c    -4.452495   -0.011100    0.001584    0.000000    0.615000
    76  Na    c     4.430244   -2.200168    6.634103    0.000000    0.670000
    77  Na    c    -0.001783   -2.200168    6.634103    0.000000    0.670000
    78  Na    c     8.825886    2.226180    2.406959    0.000000    0.670000
    79  Na    c    -4.397425    2.226180    2.406959    0.000000    0.670000
    80  Cl    c     4.435408   -4.454845    4.438236    0.000000    0.615000
    81  Cl    c    -0.006947   -4.454845    4.438236    0.000000    0.615000
    82  Na    c     4.426312    6.609196   -2.213078    0.000000    0.670000
    83  Na    c     0.002148    6.609196   -2.213078    0.000000    0.670000
    84  O     c     6.634395    2.215701    6.624826    0.000000    0.489000
    85  O     c    -2.205934    2.215701    6.624826    0.000000    0.489000
    86  O     c     6.647384    6.653219    2.220973    0.000000    0.489000
    87  O     c    -2.218924    6.653219    2.220973    0.000000    0.489000
    88  Na    c     6.400296    2.205417   -4.405967    0.000000    0.670000
    89  Na    c    -1.971836    2.205417   -4.405967    0.000000    0.670000
    90  Na    c     6.633225    6.630302   -0.000564    0.000000    0.670000
    91  Na    c    -2.204764    6.630302   -0.000564    0.000000    0.670000
    92  Na    c     6.642696    0.001062    6.635906    0.000000    0.670000
    93  Na    c    -2.214235    0.001062    6.635906    0.000000    0.670000
    94  Na    c     6.617130   -4.420042    2.237929    0.000000    0.670000
    95  Na    c    -2.188669   -4.420042    2.237929    0.000000    0.670000
    96  Cl    c     8.886043    4.452053    0.003364    0.000000    0.615000
    97  Cl    c    -4.457582    4.452053    0.003364    0.000000    0.615000
    98  Na    c     8.851460   -2.205720    2.215737    0.000000    0.670000
    99  Na    c    -4.422999   -2.205720    2.215737    0.000000    0.670000
   100  Cl    c     8.892074   -0.014721    4.435827    0.000000    0.615000
   101  Cl    c    -4.463613   -0.014721    4.435827    0.000000    0.615000
   102  Na    c     8.828209    2.210255   -2.402853    0.000000    0.670000
   103  Na    c    -4.399749    2.210255   -2.402853    0.000000    0.670000
   104  O     c     2.214230    2.215335   -6.673479    0.000000    0.489000
   105  O     c     2.214230   -6.620660    2.214578    0.000000    0.489000
   106  Na    c     2.214230    2.136343    8.884678    0.000000    0.670000
   107  Na    c     2.214230   -6.519521   -0.000629    0.000000    0.670000
   108  Na    c     2.214230    0.007721   -6.677745    0.000000    0.670000
   109  Na    c     2.214230    8.845314    2.389007    0.000000    0.670000
   110  O     c     6.650686   -2.219049    6.650945    0.000000    0.489000
   111  O     c    -2.222225   -2.219049    6.650945    0.000000    0.489000
   112  Na    c     6.637584   -2.189884   -4.430320    0.000000    0.670000
   113  Na    c    -2.209123   -2.189884   -4.430320    0.000000    0.670000
   114  Na    c     6.641758    4.432225    6.601454    0.000000    0.670000
   115  Na    c    -2.213297    4.432225    6.601454    0.000000    0.670000
   116  O     c     2.214230    6.642851    6.634975    0.000000    0.489000
   117  O     c     6.647713    6.652230   -2.221056    0.000000    0.489000
   118  O     c    -2.219252    6.652230   -2.221056    0.000000    0.489000
   119  Na    c     2.214230    6.427804   -4.406388    0.000000    0.670000
   120  Na    c     6.647823    6.657546    4.431435    0.000000    0.670000
   121  Na    c    -2.219362    6.657546    4.431435    0.000000    0.670000
   122  Na    c     2.214230   -4.412118    6.576863    0.000000    0.670000
   123  Na    c     6.634094   -4.421932   -2.236192    0.000000    0.670000
   124  Na    c    -2.205633   -4.421932   -2.236192    0.000000    0.670000
   125  Cl    c     4.432521    0.002984    8.888862    0.000000    0.615000
   126  Cl    c    -0.004061    0.002984    8.888862    0.000000    0.615000
   127  Cl    c     4.445706    8.894323    0.000879    0.000000    0.615000
   128  Cl    c    -0.017246    8.894323    0.000879    0.000000    0.615000
   129  Na    c     4.420884    2.210510   -6.698887    0.000000    0.670000
   130  Na    c     0.007576    2.210510   -6.698887    0.000000    0.670000
   131  Na    c     4.425475   -6.621589    2.200592    0.000000    0.670000
   132  Na    c     0.002985   -6.621589    2.200592    0.000000    0.670000
   133  Cl    c     8.892928    4.451370    4.435522    0.000000    0.615000
   134  Cl    c    -4.464467    4.451370    4.435522    0.000000    0.615000
   135  Na    c     8.853089   -2.188620   -2.211642    0.000000    0.670000
   136  Na    c    -4.424628   -2.188620   -2.211642    0.000000    0.670000
   137  Cl    c     4.443302   -4.464977   -4.432630    0.000000    0.615000
   138  Cl    c    -0.014841   -4.464977   -4.432630    0.000000    0.615000
   139  Na    c     4.431577    6.644856    6.610739    0.000000    0.670000
   140  Na    c    -0.003116    6.644856    6.610739    0.000000    0.670000
   141  O     c     2.214230   -2.207409   -6.630209    0.000000    0.489000
   142  O     c     2.214230   -6.622973   -2.215062    0.000000    0.489000
   143  Na    c     2.214230   -2.191967    8.848605    0.000000    0.670000
   144  Na    c     2.214230   -6.675263    4.425727    0.000000    0.670000
   145  Na    c     2.214230    4.422456   -6.692178    0.000000    0.670000
   146  Na    c     2.214230    8.842515   -2.373256    0.000000    0.670000
   147  Cl    c     4.432585    4.430716    8.889693    0.000000    0.615000
   148  Cl    c    -0.004124    4.430716    8.889693    0.000000    0.615000
   149  Cl    c     4.444902    8.896688    4.440115    0.000000    0.615000
   150  Cl    c    -0.016441    8.896688    4.440115    0.000000    0.615000
   151  Na    c     4.429721   -2.206424   -6.617627    0.000000    0.670000
   152  Na    c    -0.001261   -2.206424   -6.617627    0.000000    0.670000
   153  Na    c     4.426263   -6.616319   -2.202639    0.000000    0.670000
   154  Na    c     0.002198   -6.616319   -2.202639    0.000000    0.670000
   155  Cl    c     8.874965   -4.444576    0.002856    0.000000    0.615000
   156  Cl    c    -4.446504   -4.444576    0.002856    0.000000    0.615000
   157  Na    c     8.855031    6.623973    2.206948    0.000000    0.670000
   158  Na    c    -4.426570    6.623973    2.206948    0.000000    0.670000
   159  Cl    c     8.894736   -0.014770   -4.434336    0.000000    0.615000
   160  Cl    c    -4.466275   -0.014770   -4.434336    0.000000    0.615000
   161  Na    c     8.844323    2.217592    6.495459    0.000000    0.670000
   162  Na    c    -4.415862    2.217592    6.495459    0.000000    0.670000
   163  O     c     6.633875    2.215546   -6.628116    0.000000    0.489000
   164  O     c    -2.205415    2.215546   -6.628116    0.000000    0.489000
   165  O     c     6.640849   -6.639343    2.214503    0.000000    0.489000
   166  O     c    -2.212388   -6.639343    2.214503    0.000000    0.489000
   167  O     c    11.050570    2.215010    2.213637    0.000000    0.489000
   168  O     c    -6.622109    2.215010    2.213637    0.000000    0.489000
   169  Na    c     6.702508    2.226460    8.842230    0.000000    0.670000
   170  Na    c    -2.274047    2.226460    8.842230    0.000000    0.670000
   171  Na    c     6.651478   -6.610408    0.000079    0.000000    0.670000
   172  Na    c    -2.223017   -6.610408    0.000079    0.000000    0.670000
   173  Na    c    10.898110    2.232886   -0.001132    0.000000    0.670000
   174  Na    c    -6.469649    2.232886   -0.001132    0.000000    0.670000
   175  Na    c     6.650041    0.000268   -6.628180    0.000000    0.670000
   176  Na    c    -2.221580    0.000268   -6.628180    0.000000    0.670000
   177  Na    c     6.639782    8.859268    2.201817    0.000000    0.670000
   178  Na    c    -2.211321    8.859268    2.201817    0.000000    0.670000
   179  Na    c    11.039362    0.002936    2.175427    0.000000    0.670000
   180  Na    c    -6.610901    0.002936    2.175427    0.000000    0.670000
   181  O     c     6.651889    6.651516    6.648808    0.000000    0.489000
   182  O     c    -2.223428    6.651516    6.648808    0.000000    0.489000
   183  Na    c     6.638104    6.644489   -4.431924    0.000000    0.670000
   184  Na    c    -2.209643    6.644489   -4.431924    0.000000    0.670000
   185  Na    c     6.634864   -4.427902    6.621021    0.000000    0.670000
   186  Na    c    -2.206403   -4.427902    6.621021    0.000000    0.670000
   187  Cl    c     8.874863   -4.445433    4.441313    0.000000    0.615000
   188  Cl    c    -4.446402   -4.445433    4.441313    0.000000    0.615000
   189  Na    c     8.854923    6.638226   -2.208559    0.000000    0.670000
   190  Na    c    -4.426462    6.638226   -2.208559    0.000000    0.670000
   191  Cl    c     8.895144    4.446962   -4.430797    0.000000    0.615000
   192  Cl    c    -4.466683    4.446962   -4.430797    0.000000    0.615000
   193  Na    c     8.858969   -2.217727    6.637531    0.000000    0.670000
   194  Na    c    -4.430508   -2.217727    6.637531    0.000000    0.670000
   195  O     c     6.648692   -2.221383   -6.647370    0.000000    0.489000
   196  O     c    -2.220231   -2.221383   -6.647370    0.000000    0.489000
   197  O     c     6.641226   -6.640466   -2.214450    0.000000    0.489000
   198  O     c    -2.212765   -6.640466   -2.214450    0.000000    0.489000
   199  O     c    11.051279    2.215684   -2.215447    0.000000    0.489000
   200  O     c    -6.622818    2.215684   -2.215447    0.000000    0.489000
   201  O     c    11.070428   -2.212381    2.213809    0.000000    0.489000
   202  O     c    -6.641967   -2.212381    2.213809    0.000000    0.489000
   203  Na    c     6.645218   -2.220003    8.858134    0.000000    0.670000
   204  Na    c    -2.216757   -2.220003    8.858134    0.000000    0.670000
   205  Na    c     6.632150   -6.651321    4.427048    0.000000    0.670000
   206  Na    c    -2.203689   -6.651321    4.427048    0.000000    0.670000
   207  Na    c    11.166137    2.198618    4.420879    0.000000    0.670000
   208  Na    c    -6.737676    2.198618    4.420879    0.000000    0.670000
   209  Na    c    11.060585   -2.243238    0.000207    0.000000    0.670000
   210  Na    c    -6.632125   -2.243238    0.000207    0.000000    0.670000
   211  Na    c     6.633323    4.431237   -6.618723    0.000000    0.670000
   212  Na    c    -2.204862    4.431237   -6.618723    0.000000    0.670000
   213  Na    c     6.630000    8.859261   -2.213993    0.000000    0.670000
   214  Na    c    -2.201539    8.859261   -2.213993    0.000000    0.670000
   215  Na    c    11.059807    0.002542   -2.185335    0.000000    0.670000
   216  Na    c    -6.631346    0.002542   -2.185335    0.000000    0.670000
   217  Na    c    11.059926    4.428078    2.212936    0.000000    0.670000
   218  Na    c    -6.631465    4.428078    2.212936    0.000000    0.670000
   219  O     c     2.214230    6.634440   -6.630595    0.000000    0.489000
   220  O     c     2.214230   -6.636728    6.639608    0.000000    0.489000
   221  Na    c     2.214230    6.734388    8.848792    0.000000    0.670000
   222  Na    c     2.214230   -6.688865   -4.425603    0.000000    0.670000
   223  Na    c     2.214230    8.850581    6.520809    0.000000    0.670000
   224  Na    c     2.214230   -4.417677   -6.550816    0.000000    0.670000
   225  Cl    c     4.441462    8.896792   -4.431981    0.000000    0.615000
   226  Cl    c    -0.013001    8.896792   -4.431981    0.000000    0.615000
   227  Cl    c     4.437775   -4.438727    8.875442    0.000000    0.615000
   228  Cl    c    -0.009314   -4.438727    8.875442    0.000000    0.615000
   229  Na    c     4.429466    6.641301   -6.623518    0.000000    0.670000
   230  Na    c    -0.001005    6.641301   -6.623518    0.000000    0.670000
   231  Na    c     4.426938   -6.630524    6.641654    0.000000    0.670000
   232  Na    c     0.001523   -6.630524    6.641654    0.000000    0.670000
   233  O     c    11.072238   -2.213476   -2.212189    0.000000    0.489000
   234  O     c    -6.643777   -2.213476   -2.212189    0.000000    0.489000
   235  Na    c    11.066676   -2.183514    4.427634    0.000000    0.670000
   236  Na    c    -6.638215   -2.183514    4.427634    0.000000    0.670000
   237  Na    c    11.050028    4.429120   -2.212903    0.000000    0.670000
   238  Na    c    -6.621567    4.429120   -2.212903    0.000000    0.670000
   239  O     c     2.214230    2.210612   11.083054    0.000000    0.489000
   240  O     c     2.214230   11.065355    2.222983    0.000000    0.489000
   241  Na    c     2.214230    2.211981   -8.875084    0.000000    0.670000
   242  Na    c     2.214230   10.978808    0.000063    0.000000    0.670000
   243  Na    c     2.214230   -0.003878   11.100759    0.000000    0.670000
   244  Na    c     2.214230   -8.843788    2.171935    0.000000    0.670000
   245  Cl    c     4.429614   -0.002840   -8.885101    0.000000    0.615000
   246  Cl    c    -0.001153   -0.002840   -8.885101    0.000000    0.615000
   247  Cl    c     4.429790   -8.881633    0.000813    0.000000    0.615000
   248  Cl    c    -0.001330   -8.881633    0.000813    0.000000    0.615000
   249  Cl    c     8.867392   -0.007158    8.874287    0.000000    0.615000
   250  Cl    c    -4.438931   -0.007158    8.874287    0.000000    0.615000
   251  Cl    c     8.875265    8.876824    0.003316    0.000000    0.615000
   252  Cl    c    -4.446804    8.876824    0.003316    0.000000    0.615000
   253  Na    c     4.433429    2.221061   11.055824    0.000000    0.670000
   254  Na    c    -0.004968    2.221061   11.055824    0.000000    0.670000
   255  Na    c     4.427834   11.059517    2.192459    0.000000    0.670000
   256  Na    c     0.000627   11.059517    2.192459    0.000000    0.670000
   257  Na    c     8.846893    2.230225   -6.541058    0.000000    0.670000
   258  Na    c    -4.418432    2.230225   -6.541058    0.000000    0.670000
   259  Na    c     8.854691   -6.630038    2.218740    0.000000    0.670000
   260  Na    c    -4.426230   -6.630038    2.218740    0.000000    0.670000
   261  Cl    c     8.874080   -4.448949   -4.436393    0.000000    0.615000
   262  Cl    c    -4.445619   -4.448949   -4.436393    0.000000    0.615000
   263  Na    c     8.860591    6.644479    6.647554    0.000000    0.670000
   264  Na    c    -4.432130    6.644479    6.647554    0.000000    0.670000
   265  O     c     2.214230   11.064312   -2.222242    0.000000    0.489000
   266  O     c     2.214230   -2.215191   11.071489    0.000000    0.489000
   267  O     c     6.649423    6.650953   -6.648605    0.000000    0.489000
   268  O     c    -2.220963    6.650953   -6.648605    0.000000    0.489000
   269  O     c     6.642358   -6.644223    6.642482    0.000000    0.489000
   270  O     c    -2.213897   -6.644223    6.642482    0.000000    0.489000
   271  O     c    11.068316    2.214622    6.630934    0.000000    0.489000
   272  O     c    -6.639855    2.214622    6.630934    0.000000    0.489000
   273  O     c    11.073564    6.643024    2.214118    0.000000    0.489000
   274  O     c    -6.645104    6.643024    2.214118    0.000000    0.489000
   275  Na    c     2.214230   11.139107    4.430493    0.000000    0.670000
   276  Na    c     2.214230   -2.239644   -8.847439    0.000000    0.670000
   277  Na    c     6.634440    6.632033    8.855388    0.000000    0.670000
   278  Na    c    -2.205979    6.632033    8.855388    0.000000    0.670000
   279  Na    c     6.632101   -6.644008   -4.429163    0.000000    0.670000
   280  Na    c    -2.203640   -6.644008   -4.429163    0.000000    0.670000
   281  Na    c    11.148224    2.205537   -4.426314    0.000000    0.670000
   282  Na    c    -6.719763    2.205537   -4.426314    0.000000    0.670000
   283  Na    c    11.065517    6.643879    0.000390    0.000000    0.670000
   284  Na    c    -6.637056    6.643879    0.000390    0.000000    0.670000
   285  Na    c     2.214230    4.429849   11.032837    0.000000    0.670000
   286  Na    c     2.214230   -8.844633   -2.167498    0.000000    0.670000
   287  Na    c     6.649940    8.858519    6.648730    0.000000    0.670000
   288  Na    c    -2.221479    8.858519    6.648730    0.000000    0.670000
   289  Na    c     6.641708   -4.430335   -6.635552    0.000000    0.670000
   290  Na    c    -2.213247   -4.430335   -6.635552    0.000000    0.670000
   291  Na    c    11.052680    0.002200    6.657839    0.000000    0.670000
   292  Na    c    -6.624219    0.002200    6.657839    0.000000    0.670000
   293  Na    c    11.066209   -4.425737    2.234142    0.000000    0.670000
   294  Na    c    -6.637749   -4.425737    2.234142    0.000000    0.670000
   295  Cl    c     4.428776    4.428024   -8.887183    0.000000    0.615000
   296  Cl    c    -0.000315    4.428024   -8.887183    0.000000    0.615000
   297  Cl    c     4.430592   -8.871602    4.434495    0.000000    0.615000
   298  Cl    c    -0.002131   -8.871602    4.434495    0.000000    0.615000
   299  Cl    c     8.869832    4.434474    8.878053    0.000000    0.615000
   300  Cl    c    -4.441371    4.434474    8.878053    0.000000    0.615000
   301  Cl    c     8.876343    8.873807    4.441176    0.000000    0.615000
   302  Cl    c    -4.447882    8.873807    4.441176    0.000000    0.615000
   303  Na    c     4.427812   11.060538   -2.200015    0.000000    0.670000
   304  Na    c     0.000649   11.060538   -2.200015    0.000000    0.670000
   305  Na    c     4.428628   -2.214042   11.057862    0.000000    0.670000
   306  Na    c    -0.000168   -2.214042   11.057862    0.000000    0.670000
   307  Na    c     8.856216   -2.223537   -6.641923    0.000000    0.670000
   308  Na    c    -4.427755   -2.223537   -6.641923    0.000000    0.670000
   309  Na    c     8.853972   -6.638270   -2.219336    0.000000    0.670000
   310  Na    c    -4.425511   -6.638270   -2.219336    0.000000    0.670000
   311  O     c     2.214230   -6.642495   -6.640215    0.000000    0.489000
   312  Na    c     2.214230   -6.610752    8.852063    0.000000    0.670000
   313  Na    c     2.214230    8.846005   -6.561393    0.000000    0.670000
   314  O     c     6.648572    2.215384   11.067453    0.000000    0.489000
   315  O     c    -2.220111    2.215384   11.067453    0.000000    0.489000
   316  O     c     6.645076   11.075658    2.212341    0.000000    0.489000
   317  O     c    -2.216615   11.075658    2.212341    0.000000    0.489000
   318  O     c    11.074036    6.644809   -2.212867    0.000000    0.489000
[...]
    251 y          6.642691      6.635033    -0.007658    Cartesian   -0.12
    251 z          2.214230      2.200154    -0.014076    Cartesian   -0.64
    252 x          4.428461      4.506545     0.078084    Cartesian    1.76
    252 y          0.000000     -0.080504    -0.080504    Cartesian    0.00
    252 z         -4.428461     -4.529107    -0.100646    Cartesian    2.27
    253 x          4.428461      4.434777     0.006316    Cartesian    0.14
    253 y         -4.428461     -4.451029    -0.022569    Cartesian    0.51
    253 z          0.000000      0.005957     0.005957    Cartesian    0.00
    254 x          2.214230      2.214230     0.000000    Cartesian    0.00
    254 y          6.642691      6.628607    -0.014084    Cartesian   -0.21
    254 z         -2.214230     -2.196834     0.017396    Cartesian   -0.79
    255 x          2.214230      2.214230     0.000000    Cartesian    0.00
    255 y         -2.214230     -2.198690     0.015540    Cartesian   -0.70
    255 z          6.642691      6.637732    -0.004959    Cartesian   -0.07
    256 x          6.642691      6.646042     0.003351    Cartesian    0.05
    256 y         -2.214230     -2.215000    -0.000769    Cartesian    0.03
    256 z         -2.214230     -2.219168    -0.004938    Cartesian    0.22
    257 x          4.428461      4.509678     0.081217    Cartesian    1.83
    257 y          4.428461      4.514088     0.085627    Cartesian    1.93
    257 z         -4.428461     -4.525600    -0.097139    Cartesian    2.19
    258 x          8.856922      8.882418     0.025496    Cartesian    0.29
    258 y          0.000000     -0.010764    -0.010764    Cartesian    0.00
    258 z          0.000000      0.001721     0.001721    Cartesian    0.00
    259 x          4.428461      4.435660     0.007199    Cartesian    0.16
    259 y         -4.428461     -4.456401    -0.027940    Cartesian    0.63
    259 z          4.428461      4.438575     0.010114    Cartesian    0.23
    260 x          6.642691      6.633554    -0.009138    Cartesian   -0.14
    260 y          2.214230      2.215597     0.001366    Cartesian    0.06
    260 z          6.642691      6.625599    -0.017093    Cartesian   -0.26
    261 x          6.642691      6.647656     0.004965    Cartesian    0.07
    261 y          6.642691      6.653504     0.010812    Cartesian    0.16
    261 z          2.214230      2.221405     0.007175    Cartesian    0.32
    262 x          8.856922      8.887463     0.030541    Cartesian    0.34
    262 y          4.428461      4.451657     0.023196    Cartesian    0.52
    262 z          0.000000      0.003473     0.003473    Cartesian    0.00
    263 x          8.856922      8.893753     0.036832    Cartesian    0.42
    263 y          0.000000     -0.014698    -0.014698    Cartesian    0.00
    263 z          4.428461      4.436173     0.007712    Cartesian    0.17
    264 x          2.214230      2.214230     0.000000    Cartesian    0.00
    264 y          2.214230      2.215376     0.001146    Cartesian    0.05
    264 z         -6.642691     -6.675623    -0.032932    Cartesian    0.50
    265 x          2.214230      2.214230     0.000000    Cartesian    0.00
    265 y         -6.642691     -6.621007     0.021684    Cartesian   -0.33
    265 z          2.214230      2.215037     0.000806    Cartesian    0.04
    266 x          6.642691      6.651081     0.008390    Cartesian    0.13
    266 y         -2.214230     -2.219315    -0.005085    Cartesian    0.23
    266 z          6.642691      6.651157     0.008465    Cartesian    0.13
    267 x          2.214230      2.214230     0.000000    Cartesian    0.00
    267 y          6.642691      6.642108    -0.000583    Cartesian   -0.01
    267 z          6.642691      6.636317    -0.006374    Cartesian   -0.10
    268 x          6.642691      6.647993     0.005302    Cartesian    0.08
    268 y          6.642691      6.652483     0.009792    Cartesian    0.15
    268 z         -2.214230     -2.221438    -0.007207    Cartesian    0.33
    269 x          4.428461      4.432284     0.003823    Cartesian    0.09
    269 y          0.000000      0.003347     0.003347    Cartesian    0.00
    269 z          8.856922      8.889925     0.033003    Cartesian    0.37
    270 x          4.428461      4.445640     0.017179    Cartesian    0.39
    270 y          8.856922      8.895396     0.038474    Cartesian    0.43
    270 z          0.000000      0.000957     0.000957    Cartesian    0.00
    271 x          8.856922      8.894502     0.037580    Cartesian    0.42
    271 y          4.428461      4.451304     0.022843    Cartesian    0.52
    271 z          4.428461      4.435735     0.007274    Cartesian    0.16
    272 x          4.428461      4.443676     0.015215    Cartesian    0.34
    272 y         -4.428461     -4.466798    -0.038337    Cartesian    0.87
    272 z         -4.428461     -4.432805    -0.004345    Cartesian    0.10
    273 x          2.214230      2.214230     0.000000    Cartesian    0.00
    273 y         -2.214230     -2.206696     0.007534    Cartesian   -0.34
    273 z         -6.642691     -6.630852     0.011839    Cartesian   -0.18
    274 x          2.214230      2.214230     0.000000    Cartesian    0.00
    274 y         -6.642691     -6.623324     0.019368    Cartesian   -0.29
    274 z         -2.214230     -2.215559    -0.001329    Cartesian    0.06
    275 x          4.428461      4.432186     0.003725    Cartesian    0.08
    275 y          4.428461      4.430505     0.002044    Cartesian    0.05
    275 z          8.856922      8.890447     0.033526    Cartesian    0.38
    276 x          4.428461      4.444861     0.016400    Cartesian    0.37
    276 y          8.856922      8.898339     0.041417    Cartesian    0.47
    276 z          4.428461      4.440561     0.012100    Cartesian    0.27
    277 x          8.856922      8.875908     0.018986    Cartesian    0.21
    277 y         -4.428461     -4.445397    -0.016936    Cartesian    0.38
    277 z          0.000000      0.002903     0.002903    Cartesian    0.00
    278 x          8.856922      8.896519     0.039598    Cartesian    0.45
    278 y          0.000000     -0.014925    -0.014925    Cartesian    0.00
    278 z         -4.428461     -4.434377    -0.005916    Cartesian    0.13
    279 x          6.642691      6.632923    -0.009768    Cartesian   -0.15
    279 y          2.214230      2.215533     0.001303    Cartesian    0.06
    279 z         -6.642691     -6.628841     0.013850    Cartesian   -0.21
    280 x          6.642691      6.640786    -0.001906    Cartesian   -0.03
    280 y         -6.642691     -6.639453     0.003238    Cartesian   -0.05
    280 z          2.214230      2.214620     0.000390    Cartesian    0.02
    281 x         11.071152     11.050912    -0.020240    Cartesian   -0.18
    281 y          2.214230      2.215012     0.000782    Cartesian    0.04
    281 z          2.214230      2.214593     0.000363    Cartesian    0.02
    282 x          6.642691      6.652339     0.009648    Cartesian    0.15
    282 y          6.642691      6.652048     0.009356    Cartesian    0.14
    282 z          6.642691      6.648886     0.006195    Cartesian    0.09
    283 x          8.856922      8.875687     0.018765    Cartesian    0.21
    283 y         -4.428461     -4.446264    -0.017803    Cartesian    0.40
    283 z          4.428461      4.441849     0.013388    Cartesian    0.30
    284 x          8.856922      8.896866     0.039944    Cartesian    0.45
    284 y          4.428461      4.447042     0.018581    Cartesian    0.42
    284 z         -4.428461     -4.430661    -0.002200    Cartesian    0.05
    285 x          6.642691      6.649123     0.006432    Cartesian    0.10
    285 y         -2.214230     -2.221741    -0.007510    Cartesian    0.34
    285 z         -6.642691     -6.647496    -0.004804    Cartesian    0.07
    286 x          6.642691      6.641269    -0.001422    Cartesian   -0.02
    286 y         -6.642691     -6.640531     0.002160    Cartesian   -0.03
    286 z         -2.214230     -2.214475    -0.000245    Cartesian    0.01
    287 x         11.071152     11.051531    -0.019621    Cartesian   -0.18
    287 y          2.214230      2.215700     0.001470    Cartesian    0.07
    287 z         -2.214230     -2.216278    -0.002048    Cartesian    0.09
    288 x         11.071152     11.070576    -0.000576    Cartesian   -0.01
    288 y         -2.214230     -2.212430     0.001801    Cartesian   -0.08
    288 z          2.214230      2.213694    -0.000536    Cartesian   -0.02
    289 x          2.214230      2.214230     0.000000    Cartesian    0.00
    289 y          6.642691      6.633618    -0.009073    Cartesian   -0.14
    289 z         -6.642691     -6.631379     0.011312    Cartesian   -0.17
    290 x          2.214230      2.214230     0.000000    Cartesian    0.00
    290 y         -6.642691     -6.637269     0.005422    Cartesian   -0.08
    290 z          6.642691      6.639446    -0.003246    Cartesian   -0.05
    291 x          4.428461      4.441510     0.013049    Cartesian    0.29
    291 y          8.856922      8.898418     0.041496    Cartesian    0.47
    291 z         -4.428461     -4.431910    -0.003450    Cartesian    0.08
    292 x          4.428461      4.438234     0.009773    Cartesian    0.22
    292 y         -4.428461     -4.439385    -0.010924    Cartesian    0.25
    292 z          8.856922      8.876425     0.019503    Cartesian    0.22
    293 x         11.071152     11.072300     0.001148    Cartesian    0.01
    293 y         -2.214230     -2.213592     0.000639    Cartesian   -0.03
    293 z         -2.214230     -2.212045     0.002185    Cartesian   -0.10
    294 x          2.214230      2.214230     0.000000    Cartesian    0.00
    294 y          2.214230      2.209980    -0.004251    Cartesian   -0.19
    294 z         11.071152     11.082423     0.011270    Cartesian    0.10
    295 x          2.214230      2.214230     0.000000    Cartesian    0.00
    295 y         11.071152     11.065628    -0.005524    Cartesian   -0.05
    295 z          2.214230      2.224413     0.010182    Cartesian    0.46
    296 x          4.428461      4.429431     0.000970    Cartesian    0.02
    296 y          0.000000     -0.002719    -0.002719    Cartesian    0.00
    296 z         -8.856922     -8.885811    -0.028889    Cartesian    0.33
    297 x          4.428461      4.429873     0.001412    Cartesian    0.03
    297 y         -8.856922     -8.883000    -0.026078    Cartesian    0.29
    297 z          0.000000      0.000837     0.000837    Cartesian    0.00
    298 x          8.856922      8.867856     0.010935    Cartesian    0.12
    298 y          0.000000     -0.007430    -0.007430    Cartesian    0.00
    298 z          8.856922      8.875220     0.018298    Cartesian    0.21
    299 x          8.856922      8.875997     0.019076    Cartesian    0.22
    299 y          8.856922      8.877577     0.020655    Cartesian    0.23
    299 z          0.000000      0.003533     0.003533    Cartesian    0.00
    300 x          8.856922      8.874784     0.017862    Cartesian    0.20
    300 y         -4.428461     -4.449786    -0.021325    Cartesian    0.48
    300 z         -4.428461     -4.436598    -0.008137    Cartesian    0.18
    301 x          2.214230      2.214230     0.000000    Cartesian    0.00
    301 y         11.071152     11.064428    -0.006725    Cartesian   -0.06
    301 z         -2.214230     -2.223565    -0.009334    Cartesian    0.42
    302 x          2.214230      2.214230     0.000000    Cartesian    0.00
    302 y         -2.214230     -2.215081    -0.000851    Cartesian    0.04
    302 z         11.071152     11.071959     0.000806    Cartesian    0.01
    303 x          6.642691      6.649851     0.007160    Cartesian    0.11
    303 y          6.642691      6.651427     0.008736    Cartesian    0.13
    303 z         -6.642691     -6.648632    -0.005940    Cartesian    0.09
    304 x          6.642691      6.642396    -0.000296    Cartesian   -0.00
    304 y         -6.642691     -6.644243    -0.001552    Cartesian    0.02
    304 z          6.642691      6.642496    -0.000196    Cartesian   -0.00
    305 x         11.071152     11.069104    -0.002048    Cartesian   -0.02
    305 y          2.214230      2.214518     0.000287    Cartesian    0.01
    305 z          6.642691      6.630230    -0.012461    Cartesian   -0.19
    306 x         11.071152     11.073649     0.002497    Cartesian    0.02
    306 y          6.642691      6.643057     0.000366    Cartesian    0.01
    306 z          2.214230      2.214038    -0.000193    Cartesian   -0.01
    307 x          4.428461      4.428495     0.000034    Cartesian    0.00
    307 y          4.428461      4.427731    -0.000730    Cartesian   -0.02
    307 z         -8.856922     -8.887906    -0.030985    Cartesian    0.35
    308 x          4.428461      4.430780     0.002319    Cartesian    0.05
    308 y         -8.856922     -8.872054    -0.015133    Cartesian    0.17
    308 z          4.428461      4.434905     0.006444    Cartesian    0.15
    309 x          8.856922      8.870316     0.013394    Cartesian    0.15
    309 y          4.428461      4.434577     0.006116    Cartesian    0.14
    309 z          8.856922      8.879263     0.022341    Cartesian    0.25
    310 x          8.856922      8.877021     0.020099    Cartesian    0.23
    310 y          8.856922      8.874334     0.017413    Cartesian    0.20
    310 z          4.428461      4.441654     0.013193    Cartesian    0.30
    311 x          2.214230      2.214230     0.000000    Cartesian    0.00
    311 y         -6.642691     -6.643275    -0.000583    Cartesian    0.01
    311 z         -6.642691     -6.639728     0.002963    Cartesian   -0.04
    312 x          6.642691      6.649098     0.006407    Cartesian    0.10
    312 y          2.214230      2.215559     0.001329    Cartesian    0.06
    312 z         11.071152     11.067729    -0.003423    Cartesian   -0.03
    313 x          6.642691      6.645261     0.002570    Cartesian    0.04
    313 y         11.071152     11.075776     0.004624    Cartesian    0.04
    313 z          2.214230      2.212187    -0.002043    Cartesian   -0.09
    314 x         11.071152     11.074186     0.003034    Cartesian    0.03
    314 y          6.642691      6.644916     0.002224    Cartesian    0.03
    314 z         -2.214230     -2.212821     0.001409    Cartesian   -0.06
    315 x         11.071152     11.074275     0.003122    Cartesian    0.03
    315 y         -2.214230     -2.213306     0.000925    Cartesian   -0.04
    315 z          6.642691      6.644877     0.002186    Cartesian    0.03
    316 x          4.428461      4.435724     0.007264    Cartesian    0.16
    316 y          8.856922      8.871991     0.015070    Cartesian    0.17
    316 z          8.856922      8.879837     0.022915    Cartesian    0.26
    317 x         13.285383     13.318705     0.033323    Cartesian    0.25
    317 y          0.000000     -0.000452    -0.000452    Cartesian    0.00
    317 z          0.000000      0.002020     0.002020    Cartesian    0.00
    318 x          2.214230      2.214230     0.000000    Cartesian    0.00
    318 y          6.642691      6.648908     0.006217    Cartesian    0.09
    318 z         11.071152     11.068237    -0.002915    Cartesian   -0.03
    319 x          2.214230      2.214230     0.000000    Cartesian    0.00
    319 y         11.071152     11.074128     0.002976    Cartesian    0.03
    319 z          6.642691      6.640047    -0.002644    Cartesian   -0.04
    320 x          6.642691      6.645797     0.003106    Cartesian    0.05
    320 y         11.071152     11.077251     0.006099    Cartesian    0.06
    320 z         -2.214230     -2.215042    -0.000812    Cartesian    0.04
    321 x          6.642691      6.644323     0.001632    Cartesian    0.02
    321 y         -2.214230     -2.216326    -0.002096    Cartesian    0.09
    321 z         11.071152     11.074781     0.003629    Cartesian    0.03
    322 x          4.428461      4.438866     0.010405    Cartesian    0.23
    322 y         -4.428461     -4.444718    -0.016257    Cartesian    0.37
    322 z         -8.856922     -8.882113    -0.025191    Cartesian    0.28
    323 x          4.428461      4.429138     0.000677    Cartesian    0.02
    323 y         -8.856922     -8.876766    -0.019845    Cartesian    0.22
    323 z         -4.428461     -4.435766    -0.007305    Cartesian    0.16
    324 x          8.856922      8.878973     0.022052    Cartesian    0.25
    324 y          8.856922      8.879843     0.022922    Cartesian    0.26
    324 z         -4.428461     -4.439512    -0.011051    Cartesian    0.25
    325 x          8.856922      8.870982     0.014061    Cartesian    0.16
    325 y         -4.428461     -4.441806    -0.013345    Cartesian    0.30
    325 z          8.856922      8.875481     0.018559    Cartesian    0.21
    326 x         13.285383     13.305757     0.020375    Cartesian    0.15
    326 y          0.000000      0.002841     0.002841    Cartesian    0.00
    326 z          4.428461      4.436146     0.007685    Cartesian    0.17
    327 x         13.285383     13.319911     0.034528    Cartesian    0.26
    327 y          4.428461      4.428295    -0.000166    Cartesian   -0.00
    327 z          0.000000      0.000600     0.000600    Cartesian    0.00
    328 x          6.642691      6.644298     0.001607    Cartesian    0.02
    328 y         -6.642691     -6.647625    -0.004934    Cartesian    0.07
    328 z         -6.642691     -6.645965    -0.003273    Cartesian    0.05
    329 x         11.071152     11.075405     0.004253    Cartesian    0.04
    329 y          2.214230      2.215679     0.001449    Cartesian    0.07
    329 z         -6.642691     -6.639466     0.003225    Cartesian   -0.05
    330 x         11.071152     11.073885     0.002733    Cartesian    0.02
    330 y         -6.642691     -6.644176    -0.001485    Cartesian    0.02
    330 z          2.214230      2.217189     0.002958    Cartesian    0.13
    331 x         11.071152     11.076118     0.004966    Cartesian    0.04
    331 y          6.642691      6.645218     0.002527    Cartesian    0.04
    331 z          6.642691      6.646398     0.003706    Cartesian    0.06
--------------------------------------------------------------------------------


  Time to end of optimisation  =       57.0833 seconds


  Peak dynamic memory used =     101.61 MB 


  Timing analysis for GULP :

--------------------------------------------------------------------------------
  Task / Subroutine                                          Time (Seconds)
--------------------------------------------------------------------------------
  Calculation of reciprocal space energy and derivatives          0.0007
  Calculation of reciprocal space energy using symmetry           0.0012
  Calculation of real space energy and derivatives                0.0036
  Calculation of real space energy using symmetry                 0.0120
  Calculation for region 1 energy and derivatives (2-b)          33.3787
  Calculation for region 2a energy                               20.8431
  Calculation for region 2b energy                                0.0089
  Calculation and manipulation of Hessian matrix                  0.1289
  Calculation of matrix inversion                                 2.2555
  Symmetry generation of equivalent positions                     0.0046
--------------------------------------------------------------------------------
  Total CPU time                                                 57.0834
--------------------------------------------------------------------------------


  Dump file written as Na3OCl.grs


  Job Finished at 16:33.55  5th July       2021                               

