********************************************************************************
*                       GENERAL UTILITY LATTICE PROGRAM                        *
*                                 Julian Gale                                  *
*                       Curtin Institute for Computation                       *
*                    School of Molecular and Life Sciences                     *
*                    Curtin University, Western Australia                      *
********************************************************************************
* Version = 5.2.0 * Last modified =  10th September 2020                       *
********************************************************************************
*  optimise     - perform optimisation run                                     *
*  conp         - constant pressure calculation                                *
*  property     - calculate properties for final geometry                      *
*  defect       - perform defect calculation after bulk run                    *
*  compare      - compare initial and final structures                         *
********************************************************************************

  Job Started  at 16:33.54  5th July       2021                               

  Number of CPUs =     1


  Total number of configurations input =      1

********************************************************************************
*  Input for Configuration =   1                                               *
********************************************************************************

  Formula = ClONa3                                                      

  Number of irreducible atoms/shells =       5


  Total number atoms/shells =       7

  Dimensionality = 3               :  Bulk   


  Symmetry :

  Crystal family                   :  Cubic       
  Crystal class  (Groth - 1921)    :  Cubic Hexakisoctahedral              

  Space group (centrosymmetric)    :  P M 3 M         

  Patterson group                  :  P m -3 m 

  Cartesian lattice vectors (Angstroms) :

        4.504000    0.000000    0.000000
        0.000000    4.504000    0.000000
        0.000000    0.000000    4.504000

  Cell parameters (Angstroms/Degrees):

  a =       4.5040    alpha =  90.0000
  b =       4.5040    beta  =  90.0000
  c =       4.5040    gamma =  90.0000

  Initial cell volume =          91.368216 Angs**3

  Temperature of configuration =   0.00     K 

  Pressure of configuration =         0.000 GPa 

  Fractional coordinates of asymmetric unit :

--------------------------------------------------------------------------------
   No.  Atomic       x           y          z         Charge      Occupancy
        Label      (Frac)      (Frac)     (Frac)        (e)         (Frac)  
--------------------------------------------------------------------------------
      1 Cl    c    0.000000    0.000000    0.000000     0.61500    1.000000    
      2 O     c    0.500000    0.500000    0.500000     0.48900    1.000000    
      3 Na    c    0.500000    0.500000    0.000000     0.67000    1.000000    
      4 Cl    s    0.000000    0.000000    0.000000    -1.28500    1.000000    
      5 O     s    0.500000    0.500000    0.500000    -1.82900    1.000000    
--------------------------------------------------------------------------------


  Constraints : 

--------------------------------------------------------------------------------
  Constraint no.      Unconstrained     Constrained    Coefficient    Offset
                         Variable         Variable
--------------------------------------------------------------------------------
           1              Strain 1        Strain 2       1.00000      0.0000
           2              Strain 1        Strain 3       1.00000      0.0000
--------------------------------------------------------------------------------


********************************************************************************
*  General input information                                                   *
********************************************************************************

  Species output for all configurations : 

--------------------------------------------------------------------------------
  Species    Type    Atomic    Atomic    Charge       Radii (Angs)     Library
                     Number     Mass       (e)     Cova   Ionic  VDW   Symbol
--------------------------------------------------------------------------------
    Na       Core       11      22.99   0.670000   0.970  0.000  2.300          
    O        Core        8      16.00   0.489000   0.730  0.000  1.360          
    O        Shell       8       0.00  -1.829000   0.730  0.000  1.360          
    Cl       Core       17      35.45   0.615000   0.990  0.000  1.650          
    Cl       Shell      17       0.00  -1.285000   0.990  0.000  1.650          
--------------------------------------------------------------------------------


  Lattice summation method               =    Ewald          (3-D)
                                         =    Parry          (2-D)
                                         =    Saunders et al (1-D)
  Accuracy factor for lattice sums       =   12.000


  Analytic derivatives to be used

  Time limit = Infinity

  Maximum range for interatomic potentials =    100000.000000 Angstroms

  General interatomic potentials :

--------------------------------------------------------------------------------
Atom  Types   Potential      Parameter       Value         Units   Cutoffs(Ang)
  1     2                                                            Min /  Max 
--------------------------------------------------------------------------------
O    c O    s Spring (c-s)  Spring k 2       34.450000    eV*Ang^-2 0.000  0.800
                            Spring k 4       0.0000000    eV*Ang^-4 
--------------------------------------------------------------------------------
Cl   c Cl   s Spring (c-s)  Spring k 2       28.250000    eV*Ang^-2 0.000  0.800
                            Spring k 4       0.0000000    eV*Ang^-4 
--------------------------------------------------------------------------------
Na   c Na   c Buckingham    Buckingham A     996.28210    eV        0.000 12.000
                            Buckingham rho  0.28830000    Ang       
                            Buckingham C     0.0000000    eV*Ang^6  
--------------------------------------------------------------------------------
Na   c O    s Buckingham    Buckingham A     12439.222    eV        0.000 12.000
                            Buckingham rho  0.20150000    Ang       
                            Buckingham C     0.0000000    eV*Ang^6  
--------------------------------------------------------------------------------
Na   c Cl   s Buckingham    Buckingham A     20907.738    eV        0.000 12.000
                            Buckingham rho  0.21660000    Ang       
                            Buckingham C     0.0000000    eV*Ang^6  
--------------------------------------------------------------------------------
O    s O    s Buckingham    Buckingham A     35546.853    eV        0.000 12.000
                            Buckingham rho  0.12056000    Ang       
                            Buckingham C     13.190000    eV*Ang^6  
--------------------------------------------------------------------------------
O    s Cl   s Buckingham    Buckingham A     47777.071    eV        0.000 12.000
                            Buckingham rho  0.24370000    Ang       
                            Buckingham C     62.200000    eV*Ang^6  
--------------------------------------------------------------------------------
Cl   s Cl   s Buckingham    Buckingham A     35155.254    eV        0.000 12.000
                            Buckingham rho  0.21360000    Ang       
                            Buckingham C     14.530000    eV*Ang^6  
--------------------------------------------------------------------------------

********************************************************************************
*  Output for configuration   1                                                *
********************************************************************************


  Components of energy : 

--------------------------------------------------------------------------------
  Interatomic potentials     =           1.21745275 eV    
  Monopole - monopole (real) =          -4.50527050 eV    
  Monopole - monopole (recip)=         -13.25862634 eV    
  Monopole - monopole (total)=         -17.76389683 eV    
--------------------------------------------------------------------------------
  Total lattice energy       =         -16.54644409 eV    
--------------------------------------------------------------------------------
  Total lattice energy       =           -1596.4789 kJ/(mole unit cells)
--------------------------------------------------------------------------------


  Number of variables =        1

  Maximum number of calculations  =          1000
  Maximum Hessian update interval =            10
  Maximum step size               =   1.000000000
  Maximum parameter tolerance     =   0.000010000
  Maximum function  tolerance     =   0.000010000
  Maximum gradient  tolerance     =   0.001000000
  Maximum gradient  component     =   0.010000000

  Symmetry constrained optimisation

  Symmetry used for second derivatives

  Cell parameters to be optimised using strains

  Newton-Raphson optimiser to be used

  BFGS hessian update to be used

  Lower half triangular hessian to be used

  Start of bulk optimisation :

  Cycle:      0 Energy:       -16.546444  Gnorm:      2.744113  CPU:    0.015
  ** Hessian calculated **
  Cycle:      1 Energy:       -16.570356  Gnorm:      0.030142  CPU:    0.019
  Cycle:      2 Energy:       -16.570358  Gnorm:      0.003103  CPU:    0.023


  **** Optimisation achieved ****


  Final energy =     -16.57035847 eV
  Final Gnorm  =       0.00000012

  Components of energy : 

--------------------------------------------------------------------------------
  Interatomic potentials     =           1.49654868 eV    
  Monopole - monopole (real) =          -4.58211982 eV    
  Monopole - monopole (recip)=         -13.48478733 eV    
  Monopole - monopole (total)=         -18.06690714 eV    
--------------------------------------------------------------------------------
  Total lattice energy       =         -16.57035847 eV    
--------------------------------------------------------------------------------
  Total lattice energy       =           -1598.7863 kJ/(mole unit cells)
--------------------------------------------------------------------------------

  Final asymmetric unit coordinates :

--------------------------------------------------------------------------------
   No.  Atomic        x           y           z         Radius
        Label       (Frac)      (Frac)      (Frac)       (Angs) 
--------------------------------------------------------------------------------
     1  Cl    c     0.000000    0.000000    0.000000    0.000000
     2  O     c     0.500000    0.500000    0.500000    0.000000
     3  Na    c     0.500000    0.500000    0.000000    0.000000
     4  Cl    s     0.000000    0.000000    0.000000    0.000000
     5  O     s     0.500000    0.500000    0.500000    0.000000
--------------------------------------------------------------------------------

  Final Cartesian lattice vectors (Angstroms) :

        4.428461    0.000000    0.000000
        0.000000    4.428461    0.000000
        0.000000    0.000000    4.428461


  Final cell parameters and derivatives :

--------------------------------------------------------------------------------
       a            4.428461 Angstrom     dE/de1(xx)     0.000000 eV/strain
       b            4.428461 Angstrom     dE/de2(yy)     0.000000 eV/strain
       c            4.428461 Angstrom     dE/de3(zz)     0.000000 eV/strain
       alpha       90.000000 Degrees      dE/de4(yz)     0.000000 eV/strain
       beta        90.000000 Degrees      dE/de5(xz)     0.000000 eV/strain
       gamma       90.000000 Degrees      dE/de6(xy)     0.000000 eV/strain
--------------------------------------------------------------------------------

  Primitive cell volume =            86.847723 Angs**3

  Density of cell =      2.302482 g/cm**3

  Non-primitive cell volume =            86.847723 Angs**3


  Final internal derivatives :

--------------------------------------------------------------------------------
   No.  Atomic          a             b             c           Radius
        Label          (eV)          (eV)          (eV)        (eV/Angs)
--------------------------------------------------------------------------------
      1 Cl    c       0.000000      0.000000      0.000000      0.000000
      2 O     c       0.000000      0.000000      0.000000      0.000000
      3 Na    c       0.000000      0.000000      0.000000      0.000000
      4 Cl    s       0.000000      0.000000      0.000000      0.000000
      5 O     s       0.000000      0.000000      0.000000      0.000000
--------------------------------------------------------------------------------
  Maximum abs         0.000000      0.000000      0.000000      0.000000
--------------------------------------------------------------------------------

  Comparison of initial and final structures : 

--------------------------------------------------------------------------------
  Parameter   Initial value   Final value   Difference    Units      Percent
--------------------------------------------------------------------------------
    Volume        91.368216     86.847723    -4.520493    Angs**3     -4.95
    a              4.504000      4.428461    -0.075539    Angstroms   -1.68
    b              4.504000      4.428461    -0.075539    Angstroms   -1.68
    c              4.504000      4.428461    -0.075539    Angstroms   -1.68
    alpha         90.000000     90.000000     0.000000    Degrees      0.00
    beta          90.000000     90.000000     0.000000    Degrees      0.00
    gamma         90.000000     90.000000     0.000000    Degrees      0.00
      1 x          0.000000      0.000000     0.000000    Fractional   0.00
      1 y          0.000000      0.000000     0.000000    Fractional   0.00
      1 z          0.000000      0.000000     0.000000    Fractional   0.00
      2 x          0.500000      0.500000     0.000000    Fractional   0.00
      2 y          0.500000      0.500000     0.000000    Fractional   0.00
      2 z          0.500000      0.500000     0.000000    Fractional   0.00
      3 x          0.500000      0.500000     0.000000    Fractional   0.00
      3 y          0.500000      0.500000     0.000000    Fractional   0.00
      3 z          0.000000      0.000000     0.000000    Fractional   0.00
      4 x          0.000000      0.000000     0.000000    Fractional   0.00
      4 y          0.000000      0.000000     0.000000    Fractional   0.00
      4 z          0.000000      0.000000     0.000000    Fractional   0.00
      5 x          0.500000      0.500000     0.000000    Fractional   0.00
      5 y          0.500000      0.500000     0.000000    Fractional   0.00
      5 z          0.500000      0.500000     0.000000    Fractional   0.00
--------------------------------------------------------------------------------


  Born effective charge tensors : 

-------------------------------------------------------------------------------
  Atom             x           y             z
-------------------------------------------------------------------------------
    1 Cl    x      -0.6995     -0.0000     -0.0000
            y      -0.0000     -0.6995     -0.0000
            z      -0.0000     -0.0000     -0.6995
-------------------------------------------------------------------------------
    2 O     x      -1.0805      0.0000      0.0000
            y       0.0000     -1.0805      0.0000
            z       0.0000      0.0000     -1.0805
-------------------------------------------------------------------------------
    3 Na    x       0.6486      0.0000     -0.0000
            y       0.0000      0.6486      0.0000
            z      -0.0000      0.0000      0.4827
-------------------------------------------------------------------------------




  Elastic Constant Matrix: (Units=GPa)

-------------------------------------------------------------------------------
  Indices      1         2         3         4         5         6    
-------------------------------------------------------------------------------
       1     77.0757   16.0262   16.0262   -0.0000   -0.0000   -0.0000
       2     16.0262   77.0757   16.0262   -0.0000   -0.0000    0.0000
       3     16.0262   16.0262   77.0757    0.0000    0.0000    0.0000
       4     -0.0000   -0.0000    0.0000   16.0262    0.0000   -0.0000
       5     -0.0000   -0.0000    0.0000    0.0000   16.0262   -0.0000
       6     -0.0000    0.0000    0.0000   -0.0000   -0.0000   16.0262
-------------------------------------------------------------------------------


  Elastic Compliance Matrix: (Units=1/GPa)

-------------------------------------------------------------------------------
  Indices      1         2         3         4         5         6    
-------------------------------------------------------------------------------
       1    0.013975 -0.002406 -0.002406  0.000000  0.000000  0.000000
       2   -0.002406  0.013975 -0.002406  0.000000  0.000000 -0.000000
       3   -0.002406 -0.002406  0.013975 -0.000000 -0.000000 -0.000000
       4    0.000000  0.000000 -0.000000  0.062398 -0.000000  0.000000
       5    0.000000  0.000000 -0.000000 -0.000000  0.062398  0.000000
       6    0.000000 -0.000000 -0.000000  0.000000  0.000000  0.062398
-------------------------------------------------------------------------------

  Mechanical properties :

-------------------------------------------------------------------------------
  Convention :                    Reuss         Voigt         Hill
-------------------------------------------------------------------------------
  Bulk  Modulus (GPa)     =      36.37603      36.37603      36.37603
  Shear Modulus (GPa)     =      19.78520      21.82562      20.80541
-------------------------------------------------------------------------------
  Velocity S-wave (km/s)  =       2.93138       3.07883       3.00601
  Velocity P-wave (km/s)  =       5.22072       5.33268       5.27700
-------------------------------------------------------------------------------
  Compressibility (1/GPa) =    0.02749063
-------------------------------------------------------------------------------
  Stress axis :                     x             y             z
-------------------------------------------------------------------------------
  Youngs Moduli (GPa)     =      71.55833      71.55833      71.55833
-------------------------------------------------------------------------------
  Poissons Ratio (x)      =                     0.17214       0.17214
  Poissons Ratio (y)      =       0.17214                     0.17214
  Poissons Ratio (z)      =       0.17214       0.17214
-------------------------------------------------------------------------------


  Piezoelectric Strain Matrix: (Units=C/m**2)

-------------------------------------------------------------------------------
  Indices      1         2         3         4         5         6    
-------------------------------------------------------------------------------
       x    -0.00000  -0.00000  -0.00000  -0.00000  -0.00000   0.00000
       y     0.00000   0.00000   0.00000  -0.00000  -0.00000  -0.00000
       z     0.00000   0.00000  -0.00000   0.00000  -0.00000  -0.00000
-------------------------------------------------------------------------------


  Piezoelectric Stress Matrix: (Units=10**-11 C/N)

-------------------------------------------------------------------------------
  Indices      1         2         3         4         5         6    
-------------------------------------------------------------------------------
       x    -0.00000  -0.00000  -0.00000  -0.00000  -0.00000   0.00000
       y     0.00000   0.00000   0.00000  -0.00000  -0.00000  -0.00000
       z     0.00000   0.00000  -0.00000   0.00000  -0.00000  -0.00000
-------------------------------------------------------------------------------


  Static dielectric constant tensor : 

-------------------------------------------------------------------------------
              x         y         z
-------------------------------------------------------------------------------
       x     5.77918   0.00000   0.00000
       y     0.00000   5.77918   0.00000
       z     0.00000   0.00000   5.77918
--------------------------------------------------------------------------------

  High frequency dielectric constant tensor : 

-------------------------------------------------------------------------------
              x         y         z
-------------------------------------------------------------------------------
       x     1.30980  -0.00000  -0.00000
       y    -0.00000   1.30980  -0.00000
       z    -0.00000  -0.00000   1.30980
-------------------------------------------------------------------------------

  Static refractive indices : 

-------------------------------------------------------------------------------
    1 =    2.40399      2 =    2.40399      3 =    2.40399
-------------------------------------------------------------------------------

  High frequency refractive indices : 

-------------------------------------------------------------------------------
    1 =    1.14447      2 =    1.14447      3 =    1.14447
-------------------------------------------------------------------------------


  Time to end of optimisation =       0.0329 seconds

********************************************************************************
*  Defect calculation for configuration   1 :                                  *
********************************************************************************

  Total number of defects =      3

  Total charge on defect  =  -0.67

  Defect centre is at   0.5000   0.2500   0.2500  Frac

  Region 1 radius =  12.0000      Number of ions =    575

  Number of symmetry inequivalent region 1 ions  =    331

  Region 2 radius =  16.0000      Number of ions =    818

  Number of symmetry inequivalent region 2a ions =    447

  Region 2a mode = 4 : screened electrostatics due to region 1 
                       neglect correction to region 1 forces from 2a
                       region 2a displacements based on defects only

  Region 2a ions will only interact with defects in region 1

  Vacancies:

--------------------------------------------------------------------------------
    Specification type     Symbol/Number         x          y          z
--------------------------------------------------------------------------------
    Fractional                               0.500000   0.500000   0.000000
    Fractional                               0.500000   0.000000   0.500000
--------------------------------------------------------------------------------

  Interstitials:

--------------------------------------------------------------------------------
    Specification type     Symbol/Number         x          y          z
--------------------------------------------------------------------------------
    Atom/Fractional         Na               0.500000   0.340000   0.160000
--------------------------------------------------------------------------------


  Symmetry reduced region 1 (Relative to defect centre) :

--------------------------------------------------------------------------------
   No.   Atomic       x            y             z       Radius  Multiplicity   
         Label      (Angs)       (Angs)        (Angs)    (Angs)     
--------------------------------------------------------------------------------
     1  Na    c      0.0000       0.3986      -0.3986    0.0000     1    Defect
     2  O     c      0.0000       1.1071 *     1.1071 *  0.0000     1          
     3  Cl    c      2.2142 *    -1.1071 *    -1.1071 *  0.0000     2          
     4  Na    c      2.2142 *     1.1071 *     1.1071 *  0.0000     2          
     5  O     c      0.0000       1.1071 *    -3.3213 *  0.0000     1          
     6  O     c      0.0000      -3.3213 *     1.1071 *  0.0000     1          
     7  Na    c      0.0000       1.1071 *     3.3213 *  0.0000     1          
     8  Na    c      0.0000      -3.3213 *    -1.1071 *  0.0000     1          
     9  Na    c      0.0000      -1.1071 *    -3.3213 *  0.0000     1          
    10  Na    c      0.0000       3.3213 *     1.1071 *  0.0000     1          
    11  Cl    c      2.2142 *    -1.1071 *     3.3213 *  0.0000     2          
    12  Cl    c      2.2142 *     3.3213 *    -1.1071 *  0.0000     2          
    13  Na    c      2.2142 *     1.1071 *    -3.3213 *  0.0000     2          
    14  Na    c      2.2142 *    -3.3213 *     1.1071 *  0.0000     2          
    15  O     c      4.4285 *     1.1071 *     1.1071 *  0.0000     2          
    16  Na    c      4.4285 *     1.1071 *    -1.1071 *  0.0000     2          
    17  Na    c      4.4285 *    -1.1071 *     1.1071 *  0.0000     2          
    18  O     c      0.0000      -3.3213 *    -3.3213 *  0.0000     1          
    19  Na    c      0.0000      -3.3213 *     3.3213 *  0.0000     1          
    20  Na    c      0.0000       3.3213 *    -3.3213 *  0.0000     1          
    21  Cl    c      2.2142 *     3.3213 *     3.3213 *  0.0000     2          
    22  Na    c      2.2142 *    -3.3213 *    -3.3213 *  0.0000     2          
    23  O     c      4.4285 *     1.1071 *    -3.3213 *  0.0000     2          
    24  Na    c      4.4285 *     1.1071 *     3.3213 *  0.0000     2          
    25  Na    c      4.4285 *    -1.1071 *    -3.3213 *  0.0000     2          
    26  O     c      4.4285 *    -3.3213 *     1.1071 *  0.0000     2          
    27  Na    c      4.4285 *    -3.3213 *    -1.1071 *  0.0000     2          
    28  Na    c      4.4285 *     3.3213 *     1.1071 *  0.0000     2          
    29  O     c      0.0000       1.1071 *     5.5356 *  0.0000     1          
    30  O     c      0.0000       5.5356 *     1.1071 *  0.0000     1          
    31  Na    c      0.0000       1.1071 *    -5.5356 *  0.0000     1          
    32  Na    c      0.0000       5.5356 *    -1.1071 *  0.0000     1          
    33  Na    c      0.0000      -1.1071 *     5.5356 *  0.0000     1          
    34  Na    c      0.0000      -5.5356 *     1.1071 *  0.0000     1          
    35  Cl    c      2.2142 *    -1.1071 *    -5.5356 *  0.0000     2          
    36  Cl    c      2.2142 *    -5.5356 *    -1.1071 *  0.0000     2          
    37  Na    c      2.2142 *     1.1071 *     5.5356 *  0.0000     2          
    38  Na    c      2.2142 *     5.5356 *     1.1071 *  0.0000     2          
    39  O     c      0.0000       5.5356 *    -3.3213 *  0.0000     1          
    40  O     c      0.0000      -3.3213 *     5.5356 *  0.0000     1          
    41  O     c      4.4285 *    -3.3213 *    -3.3213 *  0.0000     2          
    42  Na    c      0.0000       5.5356 *     3.3213 *  0.0000     1          
    43  Na    c      0.0000      -3.3213 *    -5.5356 *  0.0000     1          
    44  Na    c      4.4285 *    -3.3213 *     3.3213 *  0.0000     2          
    45  Na    c      0.0000       3.3213 *     5.5356 *  0.0000     1          
    46  Na    c      0.0000      -5.5356 *    -3.3213 *  0.0000     1          
    47  Na    c      4.4285 *     3.3213 *    -3.3213 *  0.0000     2          
    48  Cl    c      2.2142 *     3.3213 *    -5.5356 *  0.0000     2          
    49  Cl    c      6.6427 *    -1.1071 *    -1.1071 *  0.0000     2          
    50  Na    c      2.2142 *    -3.3213 *     5.5356 *  0.0000     2          
    51  Na    c      6.6427 *     1.1071 *     1.1071 *  0.0000     2          
    52  Cl    c      2.2142 *    -5.5356 *     3.3213 *  0.0000     2          
    53  Na    c      2.2142 *     5.5356 *    -3.3213 *  0.0000     2          
    54  O     c      4.4285 *     1.1071 *     5.5356 *  0.0000     2          
    55  O     c      4.4285 *     5.5356 *     1.1071 *  0.0000     2          
    56  Na    c      4.4285 *     1.1071 *    -5.5356 *  0.0000     2          
    57  Na    c      4.4285 *     5.5356 *    -1.1071 *  0.0000     2          
    58  Na    c      4.4285 *    -1.1071 *     5.5356 *  0.0000     2          
    59  Na    c      4.4285 *    -5.5356 *     1.1071 *  0.0000     2          
    60  Cl    c      6.6427 *     3.3213 *    -1.1071 *  0.0000     2          
    61  Na    c      6.6427 *    -3.3213 *     1.1071 *  0.0000     2          
    62  Cl    c      6.6427 *    -1.1071 *     3.3213 *  0.0000     2          
    63  Na    c      6.6427 *     1.1071 *    -3.3213 *  0.0000     2          
    64  O     c      0.0000       1.1071 *    -7.7498 *  0.0000     1          
    65  O     c      0.0000      -7.7498 *     1.1071 *  0.0000     1          
    66  Na    c      0.0000       1.1071 *     7.7498 *  0.0000     1          
    67  Na    c      0.0000      -7.7498 *    -1.1071 *  0.0000     1          
    68  Na    c      0.0000      -1.1071 *    -7.7498 *  0.0000     1          
    69  Na    c      0.0000       7.7498 *     1.1071 *  0.0000     1          
    70  O     c      4.4285 *    -3.3213 *     5.5356 *  0.0000     2          
    71  Na    c      4.4285 *    -3.3213 *    -5.5356 *  0.0000     2          
    72  Na    c      4.4285 *     3.3213 *     5.5356 *  0.0000     2          
    73  O     c      0.0000       5.5356 *     5.5356 *  0.0000     1          
    74  O     c      4.4285 *     5.5356 *    -3.3213 *  0.0000     2          
    75  Na    c      0.0000       5.5356 *    -5.5356 *  0.0000     1          
    76  Na    c      4.4285 *     5.5356 *     3.3213 *  0.0000     2          
    77  Na    c      0.0000      -5.5356 *     5.5356 *  0.0000     1          
    78  Na    c      4.4285 *    -5.5356 *    -3.3213 *  0.0000     2          
    79  Cl    c      2.2142 *    -1.1071 *     7.7498 *  0.0000     2          
    80  Cl    c      2.2142 *     7.7498 *    -1.1071 *  0.0000     2          
    81  Na    c      2.2142 *     1.1071 *    -7.7498 *  0.0000     2          
    82  Na    c      2.2142 *    -7.7498 *     1.1071 *  0.0000     2          
    83  Cl    c      6.6427 *     3.3213 *     3.3213 *  0.0000     2          
    84  Na    c      6.6427 *    -3.3213 *    -3.3213 *  0.0000     2          
    85  Cl    c      2.2142 *    -5.5356 *    -5.5356 *  0.0000     2          
    86  Na    c      2.2142 *     5.5356 *     5.5356 *  0.0000     2          
    87  O     c      0.0000      -3.3213 *    -7.7498 *  0.0000     1          
    88  O     c      0.0000      -7.7498 *    -3.3213 *  0.0000     1          
    89  Na    c      0.0000      -3.3213 *     7.7498 *  0.0000     1          
    90  Na    c      0.0000      -7.7498 *     3.3213 *  0.0000     1          
    91  Na    c      0.0000       3.3213 *    -7.7498 *  0.0000     1          
    92  Na    c      0.0000       7.7498 *    -3.3213 *  0.0000     1          
    93  Cl    c      2.2142 *     3.3213 *     7.7498 *  0.0000     2          
    94  Cl    c      2.2142 *     7.7498 *     3.3213 *  0.0000     2          
    95  Na    c      2.2142 *    -3.3213 *    -7.7498 *  0.0000     2          
    96  Na    c      2.2142 *    -7.7498 *    -3.3213 *  0.0000     2          
    97  Cl    c      6.6427 *    -5.5356 *    -1.1071 *  0.0000     2          
    98  Na    c      6.6427 *     5.5356 *     1.1071 *  0.0000     2          
    99  Cl    c      6.6427 *    -1.1071 *    -5.5356 *  0.0000     2          
   100  Na    c      6.6427 *     1.1071 *     5.5356 *  0.0000     2          
   101  O     c      4.4285 *     1.1071 *    -7.7498 *  0.0000     2          
   102  O     c      4.4285 *    -7.7498 *     1.1071 *  0.0000     2          
   103  O     c      8.8569 *     1.1071 *     1.1071 *  0.0000     2          
   104  Na    c      4.4285 *     1.1071 *     7.7498 *  0.0000     2          
   105  Na    c      4.4285 *    -7.7498 *    -1.1071 *  0.0000     2          
   106  Na    c      8.8569 *     1.1071 *    -1.1071 *  0.0000     2          
   107  Na    c      4.4285 *    -1.1071 *    -7.7498 *  0.0000     2          
   108  Na    c      4.4285 *     7.7498 *     1.1071 *  0.0000     2          
   109  Na    c      8.8569 *    -1.1071 *     1.1071 *  0.0000     2          
   110  O     c      4.4285 *     5.5356 *     5.5356 *  0.0000     2          
   111  Na    c      4.4285 *     5.5356 *    -5.5356 *  0.0000     2          
   112  Na    c      4.4285 *    -5.5356 *     5.5356 *  0.0000     2          
   113  Cl    c      6.6427 *    -5.5356 *     3.3213 *  0.0000     2          
   114  Na    c      6.6427 *     5.5356 *    -3.3213 *  0.0000     2          
   115  Cl    c      6.6427 *     3.3213 *    -5.5356 *  0.0000     2          
   116  Na    c      6.6427 *    -3.3213 *     5.5356 *  0.0000     2          
   117  O     c      4.4285 *    -3.3213 *    -7.7498 *  0.0000     2          
   118  O     c      4.4285 *    -7.7498 *    -3.3213 *  0.0000     2          
   119  O     c      8.8569 *     1.1071 *    -3.3213 *  0.0000     2          
   120  O     c      8.8569 *    -3.3213 *     1.1071 *  0.0000     2          
   121  Na    c      4.4285 *    -3.3213 *     7.7498 *  0.0000     2          
   122  Na    c      4.4285 *    -7.7498 *     3.3213 *  0.0000     2          
   123  Na    c      8.8569 *     1.1071 *     3.3213 *  0.0000     2          
   124  Na    c      8.8569 *    -3.3213 *    -1.1071 *  0.0000     2          
   125  Na    c      4.4285 *     3.3213 *    -7.7498 *  0.0000     2          
   126  Na    c      4.4285 *     7.7498 *    -3.3213 *  0.0000     2          
   127  Na    c      8.8569 *    -1.1071 *    -3.3213 *  0.0000     2          
   128  Na    c      8.8569 *     3.3213 *     1.1071 *  0.0000     2          
   129  O     c      0.0000       5.5356 *    -7.7498 *  0.0000     1          
   130  O     c      0.0000      -7.7498 *     5.5356 *  0.0000     1          
   131  Na    c      0.0000       5.5356 *     7.7498 *  0.0000     1          
   132  Na    c      0.0000      -7.7498 *    -5.5356 *  0.0000     1          
   133  Na    c      0.0000       7.7498 *     5.5356 *  0.0000     1          
   134  Na    c      0.0000      -5.5356 *    -7.7498 *  0.0000     1          
   135  Cl    c      2.2142 *     7.7498 *    -5.5356 *  0.0000     2          
   136  Cl    c      2.2142 *    -5.5356 *     7.7498 *  0.0000     2          
   137  Na    c      2.2142 *     5.5356 *    -7.7498 *  0.0000     2          
   138  Na    c      2.2142 *    -7.7498 *     5.5356 *  0.0000     2          
   139  O     c      8.8569 *    -3.3213 *    -3.3213 *  0.0000     2          
   140  Na    c      8.8569 *    -3.3213 *     3.3213 *  0.0000     2          
   141  Na    c      8.8569 *     3.3213 *    -3.3213 *  0.0000     2          
   142  O     c      0.0000       1.1071 *     9.9640 *  0.0000     1          
   143  O     c      0.0000       9.9640 *     1.1071 *  0.0000     1          
   144  Na    c      0.0000       1.1071 *    -9.9640 *  0.0000     1          
   145  Na    c      0.0000       9.9640 *    -1.1071 *  0.0000     1          
   146  Na    c      0.0000      -1.1071 *     9.9640 *  0.0000     1          
   147  Na    c      0.0000      -9.9640 *     1.1071 *  0.0000     1          
   148  Cl    c      2.2142 *    -1.1071 *    -9.9640 *  0.0000     2          
   149  Cl    c      2.2142 *    -9.9640 *    -1.1071 *  0.0000     2          
   150  Cl    c      6.6427 *    -1.1071 *     7.7498 *  0.0000     2          
   151  Cl    c      6.6427 *     7.7498 *    -1.1071 *  0.0000     2          
   152  Na    c      2.2142 *     1.1071 *     9.9640 *  0.0000     2          
   153  Na    c      2.2142 *     9.9640 *     1.1071 *  0.0000     2          
   154  Na    c      6.6427 *     1.1071 *    -7.7498 *  0.0000     2          
   155  Na    c      6.6427 *    -7.7498 *     1.1071 *  0.0000     2          
   156  Cl    c      6.6427 *    -5.5356 *    -5.5356 *  0.0000     2          
   157  Na    c      6.6427 *     5.5356 *     5.5356 *  0.0000     2          
   158  O     c      0.0000       9.9640 *    -3.3213 *  0.0000     1          
   159  O     c      0.0000      -3.3213 *     9.9640 *  0.0000     1          
   160  O     c      4.4285 *     5.5356 *    -7.7498 *  0.0000     2          
   161  O     c      4.4285 *    -7.7498 *     5.5356 *  0.0000     2          
   162  O     c      8.8569 *     1.1071 *     5.5356 *  0.0000     2          
   163  O     c      8.8569 *     5.5356 *     1.1071 *  0.0000     2          
   164  Na    c      0.0000       9.9640 *     3.3213 *  0.0000     1          
   165  Na    c      0.0000      -3.3213 *    -9.9640 *  0.0000     1          
   166  Na    c      4.4285 *     5.5356 *     7.7498 *  0.0000     2          
   167  Na    c      4.4285 *    -7.7498 *    -5.5356 *  0.0000     2          
   168  Na    c      8.8569 *     1.1071 *    -5.5356 *  0.0000     2          
   169  Na    c      8.8569 *     5.5356 *    -1.1071 *  0.0000     2          
   170  Na    c      0.0000       3.3213 *     9.9640 *  0.0000     1          
   171  Na    c      0.0000      -9.9640 *    -3.3213 *  0.0000     1          
   172  Na    c      4.4285 *     7.7498 *     5.5356 *  0.0000     2          
   173  Na    c      4.4285 *    -5.5356 *    -7.7498 *  0.0000     2          
   174  Na    c      8.8569 *    -1.1071 *     5.5356 *  0.0000     2          
   175  Na    c      8.8569 *    -5.5356 *     1.1071 *  0.0000     2          
   176  Cl    c      2.2142 *     3.3213 *    -9.9640 *  0.0000     2          
   177  Cl    c      2.2142 *    -9.9640 *     3.3213 *  0.0000     2          
   178  Cl    c      6.6427 *     3.3213 *     7.7498 *  0.0000     2          
   179  Cl    c      6.6427 *     7.7498 *     3.3213 *  0.0000     2          
   180  Na    c      2.2142 *     9.9640 *    -3.3213 *  0.0000     2          
   181  Na    c      2.2142 *    -3.3213 *     9.9640 *  0.0000     2          
   182  Na    c      6.6427 *    -3.3213 *    -7.7498 *  0.0000     2          
   183  Na    c      6.6427 *    -7.7498 *    -3.3213 *  0.0000     2          
   184  O     c      0.0000      -7.7498 *    -7.7498 *  0.0000     1          
   185  Na    c      0.0000      -7.7498 *     7.7498 *  0.0000     1          
   186  Na    c      0.0000       7.7498 *    -7.7498 *  0.0000     1          
   187  O     c      4.4285 *     1.1071 *     9.9640 *  0.0000     2          
   188  O     c      4.4285 *     9.9640 *     1.1071 *  0.0000     2          
   189  O     c      8.8569 *     5.5356 *    -3.3213 *  0.0000     2          
   190  O     c      8.8569 *    -3.3213 *     5.5356 *  0.0000     2          
   191  Na    c      4.4285 *     1.1071 *    -9.9640 *  0.0000     2          
   192  Na    c      4.4285 *     9.9640 *    -1.1071 *  0.0000     2          
   193  Na    c      8.8569 *     5.5356 *     3.3213 *  0.0000     2          
   194  Na    c      8.8569 *    -3.3213 *    -5.5356 *  0.0000     2          
   195  Na    c      4.4285 *    -1.1071 *     9.9640 *  0.0000     2          
   196  Na    c      4.4285 *    -9.9640 *     1.1071 *  0.0000     2          
   197  Na    c      8.8569 *     3.3213 *     5.5356 *  0.0000     2          
   198  Na    c      8.8569 *    -5.5356 *    -3.3213 *  0.0000     2          
   199  Cl    c      2.2142 *     7.7498 *     7.7498 *  0.0000     2          
   200  Na    c      2.2142 *    -7.7498 *    -7.7498 *  0.0000     2          
   201  Cl    c     11.0712 *    -1.1071 *    -1.1071 *  0.0000     2          
   202  Na    c     11.0712 *     1.1071 *     1.1071 *  0.0000     2          
   203  O     c      0.0000       5.5356 *     9.9640 *  0.0000     1          
   204  O     c      0.0000       9.9640 *     5.5356 *  0.0000     1          
   205  O     c      4.4285 *     9.9640 *    -3.3213 *  0.0000     2          
   206  O     c      4.4285 *    -3.3213 *     9.9640 *  0.0000     2          
   207  Na    c      0.0000       5.5356 *    -9.9640 *  0.0000     1          
   208  Na    c      0.0000       9.9640 *    -5.5356 *  0.0000     1          
   209  Na    c      4.4285 *     9.9640 *     3.3213 *  0.0000     2          
   210  Na    c      4.4285 *    -3.3213 *    -9.9640 *  0.0000     2          
   211  Na    c      0.0000      -5.5356 *     9.9640 *  0.0000     1          
   212  Na    c      0.0000      -9.9640 *     5.5356 *  0.0000     1          
   213  Na    c      4.4285 *     3.3213 *     9.9640 *  0.0000     2          
   214  Na    c      4.4285 *    -9.9640 *    -3.3213 *  0.0000     2          
   215  Cl    c      2.2142 *    -5.5356 *    -9.9640 *  0.0000     2          
   216  Cl    c      2.2142 *    -9.9640 *    -5.5356 *  0.0000     2          
   217  Cl    c      6.6427 *     7.7498 *    -5.5356 *  0.0000     2          
   218  Cl    c      6.6427 *    -5.5356 *     7.7498 *  0.0000     2          
   219  Na    c      2.2142 *     5.5356 *     9.9640 *  0.0000     2          
   220  Na    c      2.2142 *     9.9640 *     5.5356 *  0.0000     2          
   221  Na    c      6.6427 *     5.5356 *    -7.7498 *  0.0000     2          
   222  Na    c      6.6427 *    -7.7498 *     5.5356 *  0.0000     2          
   223  Cl    c     11.0712 *    -1.1071 *     3.3213 *  0.0000     2          
   224  Cl    c     11.0712 *     3.3213 *    -1.1071 *  0.0000     2          
   225  Na    c     11.0712 *     1.1071 *    -3.3213 *  0.0000     2          
   226  Na    c     11.0712 *    -3.3213 *     1.1071 *  0.0000     2          
   227  O     c      4.4285 *    -7.7498 *    -7.7498 *  0.0000     2          
   228  O     c      8.8569 *     1.1071 *    -7.7498 *  0.0000     2          
   229  O     c      8.8569 *    -7.7498 *     1.1071 *  0.0000     2          
   230  Na    c      4.4285 *    -7.7498 *     7.7498 *  0.0000     2          
   231  Na    c      8.8569 *     1.1071 *     7.7498 *  0.0000     2          
   232  Na    c      8.8569 *    -7.7498 *    -1.1071 *  0.0000     2          
   233  Na    c      4.4285 *     7.7498 *    -7.7498 *  0.0000     2          
   234  Na    c      8.8569 *    -1.1071 *    -7.7498 *  0.0000     2          
   235  Na    c      8.8569 *     7.7498 *     1.1071 *  0.0000     2          
   236  O     c      8.8569 *     5.5356 *     5.5356 *  0.0000     2          
   237  Na    c      8.8569 *     5.5356 *    -5.5356 *  0.0000     2          
   238  Na    c      8.8569 *    -5.5356 *     5.5356 *  0.0000     2          
   239  O     s      0.0000       1.1071 *     1.1071 *  0.0000     1          
   240  Cl    s      2.2142 *    -1.1071 *    -1.1071 *  0.0000     2          
   241  O     s      0.0000       1.1071 *    -3.3213 *  0.0000     1          
   242  O     s      0.0000      -3.3213 *     1.1071 *  0.0000     1          
   243  Cl    s      2.2142 *    -1.1071 *     3.3213 *  0.0000     2          
   244  Cl    s      2.2142 *     3.3213 *    -1.1071 *  0.0000     2          
   245  O     s      4.4285 *     1.1071 *     1.1071 *  0.0000     2          
   246  O     s      0.0000      -3.3213 *    -3.3213 *  0.0000     1          
   247  Cl    s      2.2142 *     3.3213 *     3.3213 *  0.0000     2          
   248  O     s      4.4285 *     1.1071 *    -3.3213 *  0.0000     2          
   249  O     s      4.4285 *    -3.3213 *     1.1071 *  0.0000     2          
   250  O     s      0.0000       1.1071 *     5.5356 *  0.0000     1          
   251  O     s      0.0000       5.5356 *     1.1071 *  0.0000     1          
   252  Cl    s      2.2142 *    -1.1071 *    -5.5356 *  0.0000     2          
   253  Cl    s      2.2142 *    -5.5356 *    -1.1071 *  0.0000     2          
   254  O     s      0.0000       5.5356 *    -3.3213 *  0.0000     1          
   255  O     s      0.0000      -3.3213 *     5.5356 *  0.0000     1          
   256  O     s      4.4285 *    -3.3213 *    -3.3213 *  0.0000     2          
   257  Cl    s      2.2142 *     3.3213 *    -5.5356 *  0.0000     2          
   258  Cl    s      6.6427 *    -1.1071 *    -1.1071 *  0.0000     2          
   259  Cl    s      2.2142 *    -5.5356 *     3.3213 *  0.0000     2          
   260  O     s      4.4285 *     1.1071 *     5.5356 *  0.0000     2          
   261  O     s      4.4285 *     5.5356 *     1.1071 *  0.0000     2          
   262  Cl    s      6.6427 *     3.3213 *    -1.1071 *  0.0000     2          
   263  Cl    s      6.6427 *    -1.1071 *     3.3213 *  0.0000     2          
   264  O     s      0.0000       1.1071 *    -7.7498 *  0.0000     1          
   265  O     s      0.0000      -7.7498 *     1.1071 *  0.0000     1          
   266  O     s      4.4285 *    -3.3213 *     5.5356 *  0.0000     2          
   267  O     s      0.0000       5.5356 *     5.5356 *  0.0000     1          
   268  O     s      4.4285 *     5.5356 *    -3.3213 *  0.0000     2          
   269  Cl    s      2.2142 *    -1.1071 *     7.7498 *  0.0000     2          
   270  Cl    s      2.2142 *     7.7498 *    -1.1071 *  0.0000     2          
   271  Cl    s      6.6427 *     3.3213 *     3.3213 *  0.0000     2          
   272  Cl    s      2.2142 *    -5.5356 *    -5.5356 *  0.0000     2          
   273  O     s      0.0000      -3.3213 *    -7.7498 *  0.0000     1          
   274  O     s      0.0000      -7.7498 *    -3.3213 *  0.0000     1          
   275  Cl    s      2.2142 *     3.3213 *     7.7498 *  0.0000     2          
   276  Cl    s      2.2142 *     7.7498 *     3.3213 *  0.0000     2          
   277  Cl    s      6.6427 *    -5.5356 *    -1.1071 *  0.0000     2          
   278  Cl    s      6.6427 *    -1.1071 *    -5.5356 *  0.0000     2          
   279  O     s      4.4285 *     1.1071 *    -7.7498 *  0.0000     2          
   280  O     s      4.4285 *    -7.7498 *     1.1071 *  0.0000     2          
   281  O     s      8.8569 *     1.1071 *     1.1071 *  0.0000     2          
   282  O     s      4.4285 *     5.5356 *     5.5356 *  0.0000     2          
   283  Cl    s      6.6427 *    -5.5356 *     3.3213 *  0.0000     2          
   284  Cl    s      6.6427 *     3.3213 *    -5.5356 *  0.0000     2          
   285  O     s      4.4285 *    -3.3213 *    -7.7498 *  0.0000     2          
   286  O     s      4.4285 *    -7.7498 *    -3.3213 *  0.0000     2          
   287  O     s      8.8569 *     1.1071 *    -3.3213 *  0.0000     2          
   288  O     s      8.8569 *    -3.3213 *     1.1071 *  0.0000     2          
   289  O     s      0.0000       5.5356 *    -7.7498 *  0.0000     1          
   290  O     s      0.0000      -7.7498 *     5.5356 *  0.0000     1          
   291  Cl    s      2.2142 *     7.7498 *    -5.5356 *  0.0000     2          
   292  Cl    s      2.2142 *    -5.5356 *     7.7498 *  0.0000     2          
   293  O     s      8.8569 *    -3.3213 *    -3.3213 *  0.0000     2          
   294  O     s      0.0000       1.1071 *     9.9640 *  0.0000     1          
   295  O     s      0.0000       9.9640 *     1.1071 *  0.0000     1          
   296  Cl    s      2.2142 *    -1.1071 *    -9.9640 *  0.0000     2          
   297  Cl    s      2.2142 *    -9.9640 *    -1.1071 *  0.0000     2          
   298  Cl    s      6.6427 *    -1.1071 *     7.7498 *  0.0000     2          
   299  Cl    s      6.6427 *     7.7498 *    -1.1071 *  0.0000     2          
   300  Cl    s      6.6427 *    -5.5356 *    -5.5356 *  0.0000     2          
   301  O     s      0.0000       9.9640 *    -3.3213 *  0.0000     1          
   302  O     s      0.0000      -3.3213 *     9.9640 *  0.0000     1          
   303  O     s      4.4285 *     5.5356 *    -7.7498 *  0.0000     2          
   304  O     s      4.4285 *    -7.7498 *     5.5356 *  0.0000     2          
   305  O     s      8.8569 *     1.1071 *     5.5356 *  0.0000     2          
   306  O     s      8.8569 *     5.5356 *     1.1071 *  0.0000     2          
   307  Cl    s      2.2142 *     3.3213 *    -9.9640 *  0.0000     2          
   308  Cl    s      2.2142 *    -9.9640 *     3.3213 *  0.0000     2          
   309  Cl    s      6.6427 *     3.3213 *     7.7498 *  0.0000     2          
   310  Cl    s      6.6427 *     7.7498 *     3.3213 *  0.0000     2          
   311  O     s      0.0000      -7.7498 *    -7.7498 *  0.0000     1          
   312  O     s      4.4285 *     1.1071 *     9.9640 *  0.0000     2          
   313  O     s      4.4285 *     9.9640 *     1.1071 *  0.0000     2          
   314  O     s      8.8569 *     5.5356 *    -3.3213 *  0.0000     2          
   315  O     s      8.8569 *    -3.3213 *     5.5356 *  0.0000     2          
   316  Cl    s      2.2142 *     7.7498 *     7.7498 *  0.0000     2          
   317  Cl    s     11.0712 *    -1.1071 *    -1.1071 *  0.0000     2          
   318  O     s      0.0000       5.5356 *     9.9640 *  0.0000     1          
   319  O     s      0.0000       9.9640 *     5.5356 *  0.0000     1          
   320  O     s      4.4285 *     9.9640 *    -3.3213 *  0.0000     2          
   321  O     s      4.4285 *    -3.3213 *     9.9640 *  0.0000     2          
   322  Cl    s      2.2142 *    -5.5356 *    -9.9640 *  0.0000     2          
   323  Cl    s      2.2142 *    -9.9640 *    -5.5356 *  0.0000     2          
   324  Cl    s      6.6427 *     7.7498 *    -5.5356 *  0.0000     2          
   325  Cl    s      6.6427 *    -5.5356 *     7.7498 *  0.0000     2          
   326  Cl    s     11.0712 *    -1.1071 *     3.3213 *  0.0000     2          
   327  Cl    s     11.0712 *     3.3213 *    -1.1071 *  0.0000     2          
   328  O     s      4.4285 *    -7.7498 *    -7.7498 *  0.0000     2          
   329  O     s      8.8569 *     1.1071 *    -7.7498 *  0.0000     2          
   330  O     s      8.8569 *    -7.7498 *     1.1071 *  0.0000     2          
   331  O     s      8.8569 *     5.5356 *     5.5356 *  0.0000     2          
--------------------------------------------------------------------------------

  Components of defect energy : 

--------------------------------------------------------------------------------
  Region 1 - region 1                   =      5.90647135 eV
  Region 1 - region 2a (unrelaxed)      =     -0.01049406 eV
  Region 1 - 2a (relaxed - correction)  =     -0.11682252 eV
  Region 1 (Total)                      =      5.77915478 eV
  Region 2a                             =      0.05839082 eV
  Region 2b                             =     -0.16634216 eV
--------------------------------------------------------------------------------
  Total defect energy                   =      5.67120344 eV
--------------------------------------------------------------------------------

  Largest displacement in region 2 =   0.0184 Angstroms


  Number of variables =      904

  Maximum number of calculations  =        1000
  Maximum Hessian update interval =          10
  Maximum step size               =   1.0000000
  Maximum parameter tolerance     =   0.0000100
  Maximum function  tolerance     =   0.0000100
  Maximum gradient  tolerance     =   0.0010000

  Symmetry adapted optimisation

  Symmetry to be used for second derivatives

  Newton-Raphson optimiser to be used

  BFGS hessian update to be used

  Lower half triangular hessian to be used

  Start of defect optimisation :

  Cycle:      0 Defect Energy:   5.671203  Gnorm:     0.016277  CPU:    3.017
  ** Hessian calculated **
  Cycle:      1 Defect Energy:   4.830679  Gnorm:     0.013160  CPU:    8.422
  Cycle:      2 Defect Energy:   3.589637  Gnorm:     0.007452  CPU:   13.206
  Cycle:      3 Defect Energy:   3.308858  Gnorm:     0.005445  CPU:   16.929
  ** Hessian calculated **
  Cycle:      4 Defect Energy:   2.939779  Gnorm:     0.002407  CPU:   26.946
  Cycle:      5 Defect Energy:   2.815806  Gnorm:     0.001572  CPU:   28.000
  Cycle:      6 Defect Energy:   2.783883  Gnorm:     0.001184  CPU:   29.236
  Cycle:      7 Defect Energy:   2.773719  Gnorm:     0.000901  CPU:   30.271
  ** Hessian calculated **
  Cycle:      8 Defect Energy:   2.751353  Gnorm:     0.000637  CPU:   32.972
  Cycle:      9 Defect Energy:   2.740962  Gnorm:     0.000453  CPU:   34.177
  Cycle:     10 Defect Energy:   2.735878  Gnorm:     0.000322  CPU:   35.160
  Cycle:     11 Defect Energy:   2.733284  Gnorm:     0.000230  CPU:   36.138
  Cycle:     12 Defect Energy:   2.731943  Gnorm:     0.000163  CPU:   37.111
  Cycle:     13 Defect Energy:   2.731255  Gnorm:     0.000115  CPU:   38.129
  Cycle:     14 Defect Energy:   2.730906  Gnorm:     0.000081  CPU:   39.230
  Cycle:     15 Defect Energy:   2.730730  Gnorm:     0.000057  CPU:   40.168
  Cycle:     16 Defect Energy:   2.730643  Gnorm:     0.000040  CPU:   41.111
  Cycle:     17 Defect Energy:   2.730599  Gnorm:     0.000028  CPU:   42.031
  ** Hessian calculated **
  Cycle:     18 Defect Energy:   2.730595  Gnorm:     0.000021  CPU:   44.678
  Cycle:     19 Defect Energy:   2.730590  Gnorm:     0.000018  CPU:   45.571


  **** Optimisation achieved ****


  Final defect energy  =        2.73058405
  Final defect Gnorm   =        0.00001491

  Components of defect energy : 

--------------------------------------------------------------------------------
  Region 1 - region 1                   =      3.36357945 eV
  Region 1 - region 2a (unrelaxed)      =     -0.41860607 eV
  Region 1 - 2a (relaxed - correction)  =     -0.09634052 eV
  Region 1 (Total)                      =      2.84863286 eV
  Region 2a                             =      0.04818177 eV
  Region 2b                             =     -0.16623059 eV
--------------------------------------------------------------------------------
  Total defect energy                   =      2.73058405 eV
--------------------------------------------------------------------------------

  Largest displacement in region 2 =   0.0184 Angstroms

  Final coordinates of region 1 :

--------------------------------------------------------------------------------
   No.  Atomic        x           y           z          Radius      Charge
        Label       (Angs)      (Angs)      (Angs)       (Angs)       (e) 
--------------------------------------------------------------------------------
     1  Na    c     2.214230    1.505677    0.708554    0.000000    0.670000
     2  O     c     2.214230    2.423872    2.579426    0.000000    0.489000
     3  Cl    c     4.514139   -0.022996   -0.064925    0.000000    0.615000
     4  Cl    c    -0.085678   -0.022996   -0.064925    0.000000    0.615000
     5  Na    c     4.412718    2.272447    2.564804    0.000000    0.670000
     6  Na    c     0.015743    2.272447    2.564804    0.000000    0.670000
     7  O     c     2.214230    2.201478   -2.161424    0.000000    0.489000
     8  O     c     2.214230   -2.286482    2.253941    0.000000    0.489000
     9  Na    c     2.214230    1.650994    4.555202    0.000000    0.670000
    10  Na    c     2.214230   -2.111894    0.073180    0.000000    0.670000
    11  Na    c     2.214230    0.014087   -2.258692    0.000000    0.670000
    12  Na    c     2.214230    4.527763    2.272628    0.000000    0.670000
    13  Cl    c     4.581234   -0.004201    4.570571    0.000000    0.615000
    14  Cl    c    -0.152774   -0.004201    4.570571    0.000000    0.615000
    15  Cl    c     4.527111    4.555708    0.026399    0.000000    0.615000
    16  Cl    c    -0.098650    4.555708    0.026399    0.000000    0.615000
    17  Na    c     4.393787    2.214642   -2.064989    0.000000    0.670000
    18  Na    c     0.034674    2.214642   -2.064989    0.000000    0.670000
    19  Na    c     4.362246   -1.920475    2.232578    0.000000    0.670000
    20  Na    c     0.066215   -1.920475    2.232578    0.000000    0.670000
    21  O     c     6.636212    2.239830    2.266485    0.000000    0.489000
    22  O     c    -2.207751    2.239830    2.266485    0.000000    0.489000
    23  Na    c     6.527492    2.142004    0.055939    0.000000    0.670000
    24  Na    c    -2.099032    2.142004    0.055939    0.000000    0.670000
    25  Na    c     6.703532    0.027589    2.322006    0.000000    0.670000
    26  Na    c    -2.275072    0.027589    2.322006    0.000000    0.670000
    27  O     c     2.214230   -2.205961   -2.176397    0.000000    0.489000
    28  Na    c     2.214230   -1.860894    4.402650    0.000000    0.670000
    29  Na    c     2.214230    4.367427   -1.788363    0.000000    0.670000
    30  Cl    c     4.586942    4.539926    4.523818    0.000000    0.615000
    31  Cl    c    -0.158481    4.539926    4.523818    0.000000    0.615000
    32  Na    c     4.424534   -2.210051   -2.170313    0.000000    0.670000
    33  Na    c     0.003927   -2.210051   -2.170313    0.000000    0.670000
    34  O     c     6.623509    2.220547   -2.170960    0.000000    0.489000
    35  O     c    -2.195048    2.220547   -2.170960    0.000000    0.489000
    36  Na    c     6.772826    2.290172    4.473938    0.000000    0.670000
    37  Na    c    -2.344365    2.290172    4.473938    0.000000    0.670000
    38  Na    c     6.605555    0.005664   -2.261456    0.000000    0.670000
    39  Na    c    -2.177094    0.005664   -2.261456    0.000000    0.670000
    40  O     c     6.607188   -2.186137    2.227770    0.000000    0.489000
    41  O     c    -2.178727   -2.186137    2.227770    0.000000    0.489000
    42  Na    c     6.605722   -2.133237    0.015365    0.000000    0.670000
    43  Na    c    -2.177261   -2.133237    0.015365    0.000000    0.670000
    44  Na    c     6.579981    4.450901    2.166336    0.000000    0.670000
    45  Na    c    -2.151521    4.450901    2.166336    0.000000    0.670000
    46  O     c     2.214230    2.176987    6.703175    0.000000    0.489000
    47  O     c     2.214230    6.723974    2.234693    0.000000    0.489000
    48  Na    c     2.214230    2.395560   -4.369674    0.000000    0.670000
    49  Na    c     2.214230    6.777440    0.025607    0.000000    0.670000
    50  Na    c     2.214230   -0.015827    7.059897    0.000000    0.670000
    51  Na    c     2.214230   -4.441657    2.348532    0.000000    0.670000
    52  Cl    c     4.457650   -0.036144   -4.452830    0.000000    0.615000
    53  Cl    c    -0.029189   -0.036144   -4.452830    0.000000    0.615000
    54  Cl    c     4.479411   -4.510764   -0.072141    0.000000    0.615000
    55  Cl    c    -0.050950   -4.510764   -0.072141    0.000000    0.615000
    56  Na    c     4.439903    2.216137    6.626402    0.000000    0.670000
    57  Na    c    -0.011442    2.216137    6.626402    0.000000    0.670000
    58  Na    c     4.435028    6.679090    2.231813    0.000000    0.670000
    59  Na    c    -0.006567    6.679090    2.231813    0.000000    0.670000
    60  O     c     2.214230    6.599030   -2.181190    0.000000    0.489000
    61  O     c     2.214230   -2.193382    6.644119    0.000000    0.489000
    62  O     c     6.644513   -2.213329   -2.206061    0.000000    0.489000
    63  O     c    -2.216052   -2.213329   -2.206061    0.000000    0.489000
    64  Na    c     2.214230    6.780105    4.436710    0.000000    0.670000
    65  Na    c     2.214230   -2.285948   -4.397014    0.000000    0.670000
    66  Na    c     6.607238   -2.265258    4.437256    0.000000    0.670000
    67  Na    c    -2.178777   -2.265258    4.437256    0.000000    0.670000
    68  Na    c     2.214230    4.378645    6.318640    0.000000    0.670000
    69  Na    c     2.214230   -4.416398   -2.111262    0.000000    0.670000
    70  Na    c     6.649837    4.429739   -2.109922    0.000000    0.670000
    71  Na    c    -2.221376    4.429739   -2.109922    0.000000    0.670000
    72  Cl    c     4.477437    4.452476   -4.477839    0.000000    0.615000
    73  Cl    c    -0.048976    4.452476   -4.477839    0.000000    0.615000
    74  Cl    c     8.880809    0.013379    0.018723    0.000000    0.615000
    75  Cl    c    -4.452348    0.013379    0.018723    0.000000    0.615000
    76  Na    c     4.428535   -2.204958    6.613072    0.000000    0.670000
    77  Na    c    -0.000074   -2.204958    6.613072    0.000000    0.670000
    78  Na    c     8.849579    2.296422    2.147352    0.000000    0.670000
    79  Na    c    -4.421118    2.296422    2.147352    0.000000    0.670000
    80  Cl    c     4.500271   -4.512151    4.506532    0.000000    0.615000
    81  Cl    c    -0.071810   -4.512151    4.506532    0.000000    0.615000
    82  Na    c     4.426609    6.584036   -2.211296    0.000000    0.670000
    83  Na    c     0.001852    6.584036   -2.211296    0.000000    0.670000
    84  O     c     6.663735    2.222743    6.679606    0.000000    0.489000
    85  O     c    -2.235274    2.222743    6.679606    0.000000    0.489000
    86  O     c     6.654231    6.666710    2.224534    0.000000    0.489000
    87  O     c    -2.225771    6.666710    2.224534    0.000000    0.489000
    88  Na    c     6.600520    2.286354   -4.391094    0.000000    0.670000
    89  Na    c    -2.172060    2.286354   -4.391094    0.000000    0.670000
    90  Na    c     6.623990    6.707895    0.007560    0.000000    0.670000
    91  Na    c    -2.195529    6.707895    0.007560    0.000000    0.670000
    92  Na    c     6.644268   -0.000111    6.610033    0.000000    0.670000
    93  Na    c    -2.215807   -0.000111    6.610033    0.000000    0.670000
    94  Na    c     6.450442   -4.398471    2.173363    0.000000    0.670000
    95  Na    c    -2.021981   -4.398471    2.173363    0.000000    0.670000
    96  Cl    c     8.891364    4.447670    0.012712    0.000000    0.615000
    97  Cl    c    -4.462903    4.447670    0.012712    0.000000    0.615000
    98  Na    c     8.826534   -2.302202    2.211444    0.000000    0.670000
    99  Na    c    -4.398073   -2.302202    2.211444    0.000000    0.670000
   100  Cl    c     8.889703    0.014943    4.458294    0.000000    0.615000
   101  Cl    c    -4.461242    0.014943    4.458294    0.000000    0.615000
   102  Na    c     8.838649    2.195862   -2.142072    0.000000    0.670000
   103  Na    c    -4.410188    2.195862   -2.142072    0.000000    0.670000
   104  O     c     2.214230    2.217675   -6.613011    0.000000    0.489000
   105  O     c     2.214230   -6.666393    2.224309    0.000000    0.489000
   106  Na    c     2.214230    2.471112    8.876601    0.000000    0.670000
   107  Na    c     2.214230   -6.593664    0.012702    0.000000    0.670000
   108  Na    c     2.214230    0.006680   -6.490577    0.000000    0.670000
   109  Na    c     2.214230    8.906970    2.224963    0.000000    0.670000
   110  O     c     6.649774   -2.221851    6.656928    0.000000    0.489000
   111  O     c    -2.221313   -2.221851    6.656928    0.000000    0.489000
   112  Na    c     6.626889   -2.265367   -4.417047    0.000000    0.670000
   113  Na    c    -2.198429   -2.265367   -4.417047    0.000000    0.670000
   114  Na    c     6.648558    4.436542    6.698367    0.000000    0.670000
   115  Na    c    -2.220097    4.436542    6.698367    0.000000    0.670000
   116  O     c     2.214230    6.610717    6.636489    0.000000    0.489000
   117  O     c     6.647093    6.647910   -2.210983    0.000000    0.489000
   118  O     c    -2.218632    6.647910   -2.210983    0.000000    0.489000
   119  Na    c     2.214230    6.412995   -4.394401    0.000000    0.670000
   120  Na    c     6.654103    6.597482    4.441157    0.000000    0.670000
   121  Na    c    -2.225642    6.597482    4.441157    0.000000    0.670000
   122  Na    c     2.214230   -4.406666    6.389878    0.000000    0.670000
   123  Na    c     6.637521   -4.425849   -2.149960    0.000000    0.670000
   124  Na    c    -2.209060   -4.425849   -2.149960    0.000000    0.670000
   125  Cl    c     4.468672   -0.012147    8.921470    0.000000    0.615000
   126  Cl    c    -0.040211   -0.012147    8.921470    0.000000    0.615000
   127  Cl    c     4.430923    8.895940    0.005230    0.000000    0.615000
   128  Cl    c    -0.002463    8.895940    0.005230    0.000000    0.615000
   129  Na    c     4.424377    2.195401   -6.596905    0.000000    0.670000
   130  Na    c     0.004084    2.195401   -6.596905    0.000000    0.670000
   131  Na    c     4.421459   -6.674948    2.211105    0.000000    0.670000
   132  Na    c     0.007001   -6.674948    2.211105    0.000000    0.670000
   133  Cl    c     8.901915    4.443956    4.450286    0.000000    0.615000
   134  Cl    c    -4.473454    4.443956    4.450286    0.000000    0.615000
   135  Na    c     8.851446   -2.201782   -2.194436    0.000000    0.670000
   136  Na    c    -4.422985   -2.201782   -2.194436    0.000000    0.670000
   137  Cl    c     4.432814   -4.438795   -4.452427    0.000000    0.615000
   138  Cl    c    -0.004353   -4.438795   -4.452427    0.000000    0.615000
   139  Na    c     4.433500    6.601779    6.645793    0.000000    0.670000
   140  Na    c    -0.005039    6.601779    6.645793    0.000000    0.670000
   141  O     c     2.214230   -2.209871   -6.624653    0.000000    0.489000
   142  O     c     2.214230   -6.637381   -2.208157    0.000000    0.489000
   143  Na    c     2.214230   -2.459454    8.852505    0.000000    0.670000
   144  Na    c     2.214230   -6.762611    4.428647    0.000000    0.670000
   145  Na    c     2.214230    4.421073   -6.751481    0.000000    0.670000
   146  Na    c     2.214230    8.827668   -2.311355    0.000000    0.670000
   147  Cl    c     4.457974    4.440922    8.911800    0.000000    0.615000
   148  Cl    c    -0.029513    4.440922    8.911800    0.000000    0.615000
   149  Cl    c     4.425893    8.898581    4.442125    0.000000    0.615000
   150  Cl    c     0.002568    8.898581    4.442125    0.000000    0.615000
   151  Na    c     4.427059   -2.195476   -6.621319    0.000000    0.670000
   152  Na    c     0.001402   -2.195476   -6.621319    0.000000    0.670000
   153  Na    c     4.429650   -6.624670   -2.204211    0.000000    0.670000
   154  Na    c    -0.001190   -6.624670   -2.204211    0.000000    0.670000
   155  Cl    c     8.887488   -4.431626   -0.005351    0.000000    0.615000
   156  Cl    c    -4.459027   -4.431626   -0.005351    0.000000    0.615000
   157  Na    c     8.860572    6.608685    2.209337    0.000000    0.670000
   158  Na    c    -4.432111    6.608685    2.209337    0.000000    0.670000
   159  Cl    c     8.877441   -0.001493   -4.429588    0.000000    0.615000
   160  Cl    c    -4.448980   -0.001493   -4.429588    0.000000    0.615000
   161  Na    c     8.869418    2.205475    6.728480    0.000000    0.670000
   162  Na    c    -4.440957    2.205475    6.728480    0.000000    0.670000
   163  O     c     6.638891    2.213780   -6.623219    0.000000    0.489000
   164  O     c    -2.210431    2.213780   -6.623219    0.000000    0.489000
   165  O     c     6.633907   -6.626273    2.215197    0.000000    0.489000
   166  O     c    -2.205446   -6.626273    2.215197    0.000000    0.489000
   167  O     c    11.066433    2.215290    2.217940    0.000000    0.489000
   168  O     c    -6.637972    2.215290    2.217940    0.000000    0.489000
   169  Na    c     6.613075    2.180597    8.876943    0.000000    0.670000
   170  Na    c    -2.184614    2.180597    8.876943    0.000000    0.670000
   171  Na    c     6.648565   -6.652575    0.001724    0.000000    0.670000
   172  Na    c    -2.220104   -6.652575    0.001724    0.000000    0.670000
   173  Na    c    11.104793    2.192738    0.004821    0.000000    0.670000
   174  Na    c    -6.676333    2.192738    0.004821    0.000000    0.670000
   175  Na    c     6.653758    0.000617   -6.564418    0.000000    0.670000
   176  Na    c    -2.225297    0.000617   -6.564418    0.000000    0.670000
   177  Na    c     6.662859    8.867567    2.262590    0.000000    0.670000
   178  Na    c    -2.234399    8.867567    2.262590    0.000000    0.670000
   179  Na    c    10.975435    0.000104    2.235965    0.000000    0.670000
   180  Na    c    -6.546974    0.000104    2.235965    0.000000    0.670000
   181  O     c     6.656016    6.653129    6.660113    0.000000    0.489000
   182  O     c    -2.227555    6.653129    6.660113    0.000000    0.489000
   183  Na    c     6.646067    6.579306   -4.423137    0.000000    0.670000
   184  Na    c    -2.217607    6.579306   -4.423137    0.000000    0.670000
   185  Na    c     6.639736   -4.431870    6.669204    0.000000    0.670000
   186  Na    c    -2.211275   -4.431870    6.669204    0.000000    0.670000
   187  Cl    c     8.889522   -4.427202    4.449650    0.000000    0.615000
   188  Cl    c    -4.461061   -4.427202    4.449650    0.000000    0.615000
   189  Na    c     8.856151    6.652313   -2.203054    0.000000    0.670000
   190  Na    c    -4.427690    6.652313   -2.203054    0.000000    0.670000
   191  Cl    c     8.877155    4.442068   -4.432973    0.000000    0.615000
   192  Cl    c    -4.448694    4.442068   -4.432973    0.000000    0.615000
   193  Na    c     8.857004   -2.208977    6.641121    0.000000    0.670000
   194  Na    c    -4.428543   -2.208977    6.641121    0.000000    0.670000
   195  O     c     6.642834   -2.215922   -6.637163    0.000000    0.489000
   196  O     c    -2.214373   -2.215922   -6.637163    0.000000    0.489000
   197  O     c     6.647708   -6.644712   -2.217245    0.000000    0.489000
   198  O     c    -2.219247   -6.644712   -2.217245    0.000000    0.489000
   199  O     c    11.064620    2.214654   -2.207578    0.000000    0.489000
   200  O     c    -6.636159    2.214654   -2.207578    0.000000    0.489000
   201  O     c    11.055700   -2.213492    2.217538    0.000000    0.489000
   202  O     c    -6.627239   -2.213492    2.217538    0.000000    0.489000
   203  Na    c     6.632218   -2.197119    8.862947    0.000000    0.670000
   204  Na    c    -2.203757   -2.197119    8.862947    0.000000    0.670000
   205  Na    c     6.630755   -6.600903    4.431481    0.000000    0.670000
   206  Na    c    -2.202294   -6.600903    4.431481    0.000000    0.670000
   207  Na    c    11.019796    2.221284    4.434136    0.000000    0.670000
   208  Na    c    -6.591335    2.221284    4.434136    0.000000    0.670000
   209  Na    c    11.057712   -2.191022    0.003923    0.000000    0.670000
   210  Na    c    -6.629251   -2.191022    0.003923    0.000000    0.670000
   211  Na    c     6.619633    4.425703   -6.666474    0.000000    0.670000
   212  Na    c    -2.191172    4.425703   -6.666474    0.000000    0.670000
   213  Na    c     6.622613    8.855688   -2.255494    0.000000    0.670000
   214  Na    c    -2.194152    8.855688   -2.255494    0.000000    0.670000
   215  Na    c    11.063732    0.001657   -2.234044    0.000000    0.670000
   216  Na    c    -6.635271    0.001657   -2.234044    0.000000    0.670000
   217  Na    c    11.105537    4.428130    2.215478    0.000000    0.670000
   218  Na    c    -6.677076    4.428130    2.215478    0.000000    0.670000
   219  O     c     2.214230    6.630065   -6.623441    0.000000    0.489000
   220  O     c     2.214230   -6.630386    6.635423    0.000000    0.489000
   221  Na    c     2.214230    6.492770    8.845882    0.000000    0.670000
   222  Na    c     2.214230   -6.598176   -4.420955    0.000000    0.670000
   223  Na    c     2.214230    8.837142    6.728451    0.000000    0.670000
   224  Na    c     2.214230   -4.423723   -6.667894    0.000000    0.670000
   225  Cl    c     4.440356    8.885120   -4.429138    0.000000    0.615000
   226  Cl    c    -0.011895    8.885120   -4.429138    0.000000    0.615000
   227  Cl    c     4.441440   -4.437425    8.899542    0.000000    0.615000
   228  Cl    c    -0.012979   -4.437425    8.899542    0.000000    0.615000
   229  Na    c     4.427328    6.647382   -6.611999    0.000000    0.670000
   230  Na    c     0.001133    6.647382   -6.611999    0.000000    0.670000
   231  Na    c     4.429418   -6.621820    6.642896    0.000000    0.670000
   232  Na    c    -0.000957   -6.621820    6.642896    0.000000    0.670000
   233  O     c    11.071089   -2.211203   -2.211634    0.000000    0.489000
   234  O     c    -6.642628   -2.211203   -2.211634    0.000000    0.489000
   235  Na    c    11.051459   -2.223048    4.429620    0.000000    0.670000
   236  Na    c    -6.622998   -2.223048    4.429620    0.000000    0.670000
   237  Na    c    11.046925    4.427946   -2.199910    0.000000    0.670000
   238  Na    c    -6.618464    4.427946   -2.199910    0.000000    0.670000
   239  O     c     2.214230    2.225967   11.076919    0.000000    0.489000
   240  O     c     2.214230   11.094194    2.214024    0.000000    0.489000
   241  Na    c     2.214230    2.145465   -8.841269    0.000000    0.670000
   242  Na    c     2.214230   11.047364   -0.008741    0.000000    0.670000
   243  Na    c     2.214230   -0.001729   10.963845    0.000000    0.670000
   244  Na    c     2.214230   -8.870023    2.169090    0.000000    0.670000
   245  Cl    c     4.430304    0.001150   -8.887592    0.000000    0.615000
   246  Cl    c    -0.001843    0.001150   -8.887592    0.000000    0.615000
   247  Cl    c     4.430991   -8.886493    0.001164    0.000000    0.615000
   248  Cl    c    -0.002531   -8.886493    0.001164    0.000000    0.615000
   249  Cl    c     8.879640    0.004039    8.882276    0.000000    0.615000
   250  Cl    c    -4.451179    0.004039    8.882276    0.000000    0.615000
   251  Cl    c     8.873710    8.876271   -0.000663    0.000000    0.615000
   252  Cl    c    -4.445249    8.876271   -0.000663    0.000000    0.615000
   253  Na    c     4.427396    2.187256   11.077432    0.000000    0.670000
   254  Na    c     0.001065    2.187256   11.077432    0.000000    0.670000
   255  Na    c     4.430897   11.081775    2.205337    0.000000    0.670000
   256  Na    c    -0.002436   11.081775    2.205337    0.000000    0.670000
   257  Na    c     8.849716    2.222099   -6.625565    0.000000    0.670000
   258  Na    c    -4.421255    2.222099   -6.625565    0.000000    0.670000
   259  Na    c     8.846195   -6.559544    2.229635    0.000000    0.670000
   260  Na    c    -4.417734   -6.559544    2.229635    0.000000    0.670000
   261  Cl    c     8.874755   -4.436986   -4.443984    0.000000    0.615000
   262  Cl    c    -4.446294   -4.436986   -4.443984    0.000000    0.615000
   263  Na    c     8.863782    6.649071    6.646327    0.000000    0.670000
   264  Na    c    -4.435321    6.649071    6.646327    0.000000    0.670000
   265  O     c     2.214230   11.062466   -2.222771    0.000000    0.489000
   266  O     c     2.214230   -2.228054   11.065024    0.000000    0.489000
   267  O     c     6.644493    6.641720   -6.642683    0.000000    0.489000
   268  O     c    -2.216032    6.641720   -6.642683    0.000000    0.489000
   269  O     c     6.648621   -6.647405    6.652168    0.000000    0.489000
   270  O     c    -2.220160   -6.647405    6.652168    0.000000    0.489000
   271  O     c    11.078198    2.214771    6.651634    0.000000    0.489000
   272  O     c    -6.649737    2.214771    6.651634    0.000000    0.489000
   273  O     c    11.076426    6.642751    2.215812    0.000000    0.489000
   274  O     c    -6.647965    6.642751    2.215812    0.000000    0.489000
   275  Na    c     2.214230   11.059394    4.435970    0.000000    0.670000
   276  Na    c     2.214230   -2.164099   -8.843487    0.000000    0.670000
   277  Na    c     6.651559    6.667482    8.862577    0.000000    0.670000
   278  Na    c    -2.223098    6.667482    8.862577    0.000000    0.670000
   279  Na    c     6.639391   -6.613260   -4.428428    0.000000    0.670000
   280  Na    c    -2.210930   -6.613260   -4.428428    0.000000    0.670000
   281  Na    c    11.035430    2.228262   -4.422063    0.000000    0.670000
   282  Na    c    -6.606969    2.228262   -4.422063    0.000000    0.670000
   283  Na    c    11.068199    6.642567    0.001830    0.000000    0.670000
   284  Na    c    -6.639738    6.642567    0.001830    0.000000    0.670000
   285  Na    c     2.214230    4.434802   11.176521    0.000000    0.670000
   286  Na    c     2.214230   -8.849054   -2.205407    0.000000    0.670000
   287  Na    c     6.634958    8.857432    6.625112    0.000000    0.670000
   288  Na    c    -2.206497    8.857432    6.625112    0.000000    0.670000
   289  Na    c     6.631911   -4.428103   -6.663422    0.000000    0.670000
   290  Na    c    -2.203451   -4.428103   -6.663422    0.000000    0.670000
   291  Na    c    11.073471   -0.000432    6.631314    0.000000    0.670000
   292  Na    c    -6.645010   -0.000432    6.631314    0.000000    0.670000
   293  Na    c    11.106302   -4.425043    2.204655    0.000000    0.670000
   294  Na    c    -6.677841   -4.425043    2.204655    0.000000    0.670000
   295  Cl    c     4.431617    4.432110   -8.870939    0.000000    0.615000
   296  Cl    c    -0.003156    4.432110   -8.870939    0.000000    0.615000
   297  Cl    c     4.430036   -8.883769    4.433099    0.000000    0.615000
   298  Cl    c    -0.001575   -8.883769    4.433099    0.000000    0.615000
   299  Cl    c     8.883855    4.438314    8.876173    0.000000    0.615000
   300  Cl    c    -4.455394    4.438314    8.876173    0.000000    0.615000
   301  Cl    c     8.876618    8.881747    4.437469    0.000000    0.615000
   302  Cl    c    -4.448157    8.881747    4.437469    0.000000    0.615000
   303  Na    c     4.427417   11.056450   -2.203449    0.000000    0.670000
   304  Na    c     0.001044   11.056450   -2.203449    0.000000    0.670000
   305  Na    c     4.428895   -2.194983   11.059863    0.000000    0.670000
   306  Na    c    -0.000434   -2.194983   11.059863    0.000000    0.670000
   307  Na    c     8.854079   -2.218470   -6.636043    0.000000    0.670000
   308  Na    c    -4.425619   -2.218470   -6.636043    0.000000    0.670000
   309  Na    c     8.855803   -6.638928   -2.224881    0.000000    0.670000
   310  Na    c    -4.427342   -6.638928   -2.224881    0.000000    0.670000
   311  O     c     2.214230   -6.641808   -6.643112    0.000000    0.489000
   312  Na    c     2.214230   -6.544523    8.846782    0.000000    0.670000
   313  Na    c     2.214230    8.844781   -6.551174    0.000000    0.670000
   314  O     c     6.644500    2.210434   11.083982    0.000000    0.489000
   315  O     c    -2.216040    2.210434   11.083982    0.000000    0.489000
   316  O     c     6.646204   11.078568    2.217608    0.000000    0.489000
   317  O     c    -2.217743   11.078568    2.217608    0.000000    0.489000
   318  O     c    11.072842    6.644931   -2.212689    0.000000    0.489000
   319  O     c    -6.644381    6.644931   -2.212689    0.000000    0.489000
   320  O     c    11.074571   -2.213957    6.645268    0.000000    0.489000
   321  O     c    -6.646110   -2.213957    6.645268    0.000000    0.489000
   322  Na    c     6.627232    2.185536   -8.844380    0.000000    0.670000
   323  Na    c    -2.198772    2.185536   -8.844380    0.000000    0.670000
   324  Na    c     6.643907   11.041562    0.000041    0.000000    0.670000
   325  Na    c    -2.215446   11.041562    0.000041    0.000000    0.670000
   326  Na    c    11.062973    6.639824    4.429558    0.000000    0.670000
[...]
    251 y          6.642691      6.725191     0.082500    Cartesian    1.24
    251 z          2.214230      2.235221     0.020990    Cartesian    0.95
    252 x          4.428461      4.458783     0.030322    Cartesian    0.68
    252 y          0.000000     -0.037583    -0.037583    Cartesian    0.00
    252 z         -4.428461     -4.455120    -0.026659    Cartesian    0.60
    253 x          4.428461      4.482176     0.053715    Cartesian    1.21
    253 y         -4.428461     -4.514247    -0.085786    Cartesian    1.94
    253 z          0.000000     -0.075309    -0.075309    Cartesian    0.00
    254 x          2.214230      2.214230     0.000000    Cartesian    0.00
    254 y          6.642691      6.600577    -0.042115    Cartesian   -0.63
    254 z         -2.214230     -2.180030     0.034201    Cartesian   -1.54
    255 x          2.214230      2.214230     0.000000    Cartesian    0.00
    255 y         -2.214230     -2.192960     0.021270    Cartesian   -0.96
    255 z          6.642691      6.646841     0.004150    Cartesian    0.06
    256 x          6.642691      6.644667     0.001976    Cartesian    0.03
    256 y         -2.214230     -2.213455     0.000775    Cartesian   -0.04
    256 z         -2.214230     -2.206403     0.007828    Cartesian   -0.35
    257 x          4.428461      4.478525     0.050064    Cartesian    1.13
    257 y          4.428461      4.453950     0.025489    Cartesian    0.58
    257 z         -4.428461     -4.480418    -0.051957    Cartesian    1.17
    258 x          8.856922      8.882431     0.025509    Cartesian    0.29
    258 y          0.000000      0.013785     0.013785    Cartesian    0.00
    258 z          0.000000      0.018919     0.018919    Cartesian    0.00
    259 x          4.428461      4.502731     0.074270    Cartesian    1.68
    259 y         -4.428461     -4.515318    -0.086858    Cartesian    1.96
    259 z          4.428461      4.509836     0.081375    Cartesian    1.84
    260 x          6.642691      6.664845     0.022153    Cartesian    0.33
    260 y          2.214230      2.223277     0.009047    Cartesian    0.41
    260 z          6.642691      6.679967     0.037275    Cartesian    0.56
    261 x          6.642691      6.654322     0.011631    Cartesian    0.18
    261 y          6.642691      6.667209     0.024517    Cartesian    0.37
    261 z          2.214230      2.224355     0.010124    Cartesian    0.46
    262 x          8.856922      8.892623     0.035701    Cartesian    0.40
    262 y          4.428461      4.447925     0.019464    Cartesian    0.44
    262 z          0.000000      0.013003     0.013003    Cartesian    0.00
    263 x          8.856922      8.890833     0.033911    Cartesian    0.38
    263 y          0.000000      0.015585     0.015585    Cartesian    0.00
    263 z          4.428461      4.458566     0.030105    Cartesian    0.68
    264 x          2.214230      2.214230     0.000000    Cartesian    0.00
    264 y          2.214230      2.218285     0.004055    Cartesian    0.18
    264 z         -6.642691     -6.614022     0.028669    Cartesian   -0.43
    265 x          2.214230      2.214230     0.000000    Cartesian    0.00
    265 y         -6.642691     -6.668135    -0.025444    Cartesian    0.38
    265 z          2.214230      2.224865     0.010635    Cartesian    0.48
    266 x          6.642691      6.650099     0.007408    Cartesian    0.11
    266 y         -2.214230     -2.222415    -0.008185    Cartesian    0.37
    266 z          6.642691      6.657164     0.014473    Cartesian    0.22
    267 x          2.214230      2.214230     0.000000    Cartesian    0.00
    267 y          6.642691      6.612311    -0.030380    Cartesian   -0.46
    267 z          6.642691      6.635206    -0.007485    Cartesian   -0.11
    268 x          6.642691      6.647503     0.004812    Cartesian    0.07
    268 y          6.642691      6.648191     0.005499    Cartesian    0.08
    268 z         -2.214230     -2.210963     0.003268    Cartesian   -0.15
    269 x          4.428461      4.468247     0.039786    Cartesian    0.90
    269 y          0.000000     -0.012375    -0.012375    Cartesian    0.00
    269 z          8.856922      8.922438     0.065516    Cartesian    0.74
    270 x          4.428461      4.430775     0.002314    Cartesian    0.05
    270 y          8.856922      8.896776     0.039854    Cartesian    0.45
    270 z          0.000000      0.005666     0.005666    Cartesian    0.00
    271 x          8.856922      8.902918     0.045996    Cartesian    0.52
    271 y          4.428461      4.443821     0.015360    Cartesian    0.35
    271 z          4.428461      4.450734     0.022274    Cartesian    0.50
    272 x          4.428461      4.433057     0.004596    Cartesian    0.10
    272 y         -4.428461     -4.439124    -0.010663    Cartesian    0.24
    272 z         -4.428461     -4.453746    -0.025285    Cartesian    0.57
    273 x          2.214230      2.214230     0.000000    Cartesian    0.00
    273 y         -2.214230     -2.210225     0.004005    Cartesian   -0.18
    273 z         -6.642691     -6.624611     0.018080    Cartesian   -0.27
    274 x          2.214230      2.214230     0.000000    Cartesian    0.00
    274 y         -6.642691     -6.637383     0.005309    Cartesian   -0.08
    274 z         -2.214230     -2.207988     0.006242    Cartesian   -0.28
    275 x          4.428461      4.457942     0.029481    Cartesian    0.67
    275 y          4.428461      4.441120     0.012660    Cartesian    0.29
    275 z          8.856922      8.913602     0.056680    Cartesian    0.64
    276 x          4.428461      4.425410    -0.003051    Cartesian   -0.07
    276 y          8.856922      8.899559     0.042638    Cartesian    0.48
    276 z          4.428461      4.442033     0.013572    Cartesian    0.31
    277 x          8.856922      8.889116     0.032194    Cartesian    0.36
    277 y         -4.428461     -4.432055    -0.003594    Cartesian    0.08
    277 z          0.000000     -0.005721    -0.005721    Cartesian    0.00
    278 x          8.856922      8.878606     0.021684    Cartesian    0.24
    278 y          0.000000     -0.001759    -0.001759    Cartesian    0.00
    278 z         -4.428461     -4.430256    -0.001796    Cartesian    0.04
    279 x          6.642691      6.638816    -0.003875    Cartesian   -0.06
    279 y          2.214230      2.214050    -0.000181    Cartesian   -0.01
    279 z         -6.642691     -6.623638     0.019053    Cartesian   -0.29
    280 x          6.642691      6.633156    -0.009536    Cartesian   -0.14
    280 y         -6.642691     -6.627027     0.015664    Cartesian   -0.24
    280 z          2.214230      2.214961     0.000730    Cartesian    0.03
    281 x         11.071152     11.066419    -0.004733    Cartesian   -0.04
    281 y          2.214230      2.215670     0.001440    Cartesian    0.07
    281 z          2.214230      2.217577     0.003346    Cartesian    0.15
    282 x          6.642691      6.656612     0.013921    Cartesian    0.21
    282 y          6.642691      6.653235     0.010544    Cartesian    0.16
    282 z          6.642691      6.660896     0.018205    Cartesian    0.27
    283 x          8.856922      8.891083     0.034162    Cartesian    0.39
    283 y         -4.428461     -4.427233     0.001228    Cartesian   -0.03
    283 z          4.428461      4.450264     0.021804    Cartesian    0.49
    284 x          8.856922      8.878215     0.021293    Cartesian    0.24
    284 y          4.428461      4.442776     0.014316    Cartesian    0.32
    284 z         -4.428461     -4.433734    -0.005273    Cartesian    0.12
    285 x          6.642691      6.642950     0.000259    Cartesian    0.00
    285 y         -2.214230     -2.216231    -0.002000    Cartesian    0.09
    285 z         -6.642691     -6.637216     0.005475    Cartesian   -0.08
    286 x          6.642691      6.648079     0.005388    Cartesian    0.08
    286 y         -6.642691     -6.644982    -0.002291    Cartesian    0.03
    286 z         -2.214230     -2.217264    -0.003033    Cartesian    0.14
    287 x         11.071152     11.065202    -0.005951    Cartesian   -0.05
    287 y          2.214230      2.214512     0.000282    Cartesian    0.01
    287 z         -2.214230     -2.207333     0.006897    Cartesian   -0.31
    288 x         11.071152     11.056121    -0.015031    Cartesian   -0.14
    288 y         -2.214230     -2.213862     0.000369    Cartesian   -0.02
    288 z          2.214230      2.217621     0.003390    Cartesian    0.15
    289 x          2.214230      2.214230     0.000000    Cartesian    0.00
    289 y          6.642691      6.629281    -0.013410    Cartesian   -0.20
    289 z         -6.642691     -6.624495     0.018196    Cartesian   -0.27
    290 x          2.214230      2.214230     0.000000    Cartesian    0.00
    290 y         -6.642691     -6.631513     0.011178    Cartesian   -0.17
    290 z          6.642691      6.634425    -0.008266    Cartesian   -0.12
    291 x          4.428461      4.440733     0.012272    Cartesian    0.28
    291 y          8.856922      8.886777     0.029856    Cartesian    0.34
    291 z         -4.428461     -4.429309    -0.000848    Cartesian    0.02
    292 x          4.428461      4.440917     0.012456    Cartesian    0.28
    292 y         -4.428461     -4.437202    -0.008741    Cartesian    0.20
    292 z          8.856922      8.901081     0.044159    Cartesian    0.50
    293 x         11.071152     11.071134    -0.000018    Cartesian   -0.00
    293 y         -2.214230     -2.211055     0.003176    Cartesian   -0.14
    293 z         -2.214230     -2.211712     0.002518    Cartesian   -0.11
    294 x          2.214230      2.214230     0.000000    Cartesian    0.00
    294 y          2.214230      2.227977     0.013747    Cartesian    0.62
    294 z         11.071152     11.077319     0.006166    Cartesian    0.06
    295 x          2.214230      2.214230     0.000000    Cartesian    0.00
    295 y         11.071152     11.093360     0.022208    Cartesian    0.20
    295 z          2.214230      2.214056    -0.000175    Cartesian   -0.01
    296 x          4.428461      4.430347     0.001887    Cartesian    0.04
    296 y          0.000000      0.001193     0.001193    Cartesian    0.00
    296 z         -8.856922     -8.889357    -0.032436    Cartesian    0.37
    297 x          4.428461      4.430867     0.002406    Cartesian    0.05
    297 y         -8.856922     -8.887496    -0.030575    Cartesian    0.35
    297 z          0.000000      0.001375     0.001375    Cartesian    0.00
    298 x          8.856922      8.880310     0.023388    Cartesian    0.26
    298 y          0.000000      0.004528     0.004528    Cartesian    0.00
    298 z          8.856922      8.882818     0.025896    Cartesian    0.29
    299 x          8.856922      8.874311     0.017389    Cartesian    0.20
    299 y          8.856922      8.876850     0.019928    Cartesian    0.23
    299 z          0.000000     -0.000678    -0.000678    Cartesian    0.00
    300 x          8.856922      8.875490     0.018568    Cartesian    0.21
    300 y         -4.428461     -4.437258    -0.008797    Cartesian    0.20
    300 z         -4.428461     -4.444697    -0.016237    Cartesian    0.37
    301 x          2.214230      2.214230     0.000000    Cartesian    0.00
    301 y         11.071152     11.063221    -0.007931    Cartesian   -0.07
    301 z         -2.214230     -2.223382    -0.009152    Cartesian    0.41
    302 x          2.214230      2.214230     0.000000    Cartesian    0.00
    302 y         -2.214230     -2.229951    -0.015721    Cartesian    0.71
    302 z         11.071152     11.065166    -0.005986    Cartesian   -0.05
    303 x          6.642691      6.644706     0.002014    Cartesian    0.03
    303 y          6.642691      6.641649    -0.001043    Cartesian   -0.02
    303 z         -6.642691     -6.642821    -0.000130    Cartesian    0.00
    304 x          6.642691      6.649002     0.006310    Cartesian    0.09
    304 y         -6.642691     -6.647270    -0.004579    Cartesian    0.07
    304 z          6.642691      6.652827     0.010136    Cartesian    0.15
    305 x         11.071152     11.078006     0.006854    Cartesian    0.06
    305 y          2.214230      2.214742     0.000511    Cartesian    0.02
    305 z          6.642691      6.652303     0.009612    Cartesian    0.14
    306 x         11.071152     11.076759     0.005607    Cartesian    0.05
    306 y          6.642691      6.642685    -0.000006    Cartesian   -0.00
    306 z          2.214230      2.215771     0.001541    Cartesian    0.07
    307 x          4.428461      4.431760     0.003299    Cartesian    0.07
    307 y          4.428461      4.432444     0.003983    Cartesian    0.09
    307 z         -8.856922     -8.871118    -0.014196    Cartesian    0.16
    308 x          4.428461      4.429726     0.001265    Cartesian    0.03
    308 y         -8.856922     -8.884229    -0.027308    Cartesian    0.31
    308 z          4.428461      4.433037     0.004576    Cartesian    0.10
    309 x          8.856922      8.884614     0.027692    Cartesian    0.31
    309 y          4.428461      4.438489     0.010028    Cartesian    0.23
    309 z          8.856922      8.876286     0.019364    Cartesian    0.22
    310 x          8.856922      8.877179     0.020257    Cartesian    0.23
    310 y          8.856922      8.882659     0.025737    Cartesian    0.29
    310 z          4.428461      4.437572     0.009111    Cartesian    0.21
    311 x          2.214230      2.214230     0.000000    Cartesian    0.00
    311 y         -6.642691     -6.641764     0.000927    Cartesian   -0.01
    311 z         -6.642691     -6.643596    -0.000905    Cartesian    0.01
    312 x          6.642691      6.644504     0.001813    Cartesian    0.03
    312 y          2.214230      2.210045    -0.004185    Cartesian   -0.19
    312 z         11.071152     11.084055     0.012903    Cartesian    0.12
    313 x          6.642691      6.646469     0.003778    Cartesian    0.06
    313 y         11.071152     11.078646     0.007493    Cartesian    0.07
    313 z          2.214230      2.218043     0.003813    Cartesian    0.17
    314 x         11.071152     11.072834     0.001682    Cartesian    0.02
    314 y          6.642691      6.645171     0.002479    Cartesian    0.04
    314 z         -2.214230     -2.212652     0.001579    Cartesian   -0.07
    315 x         11.071152     11.074713     0.003560    Cartesian    0.03
    315 y         -2.214230     -2.213979     0.000252    Cartesian   -0.01
    315 z          6.642691      6.645347     0.002656    Cartesian    0.04
    316 x          4.428461      4.437258     0.008797    Cartesian    0.20
    316 y          8.856922      8.877643     0.020721    Cartesian    0.23
    316 z          8.856922      8.872570     0.015648    Cartesian    0.18
    317 x         13.285383     13.310806     0.025423    Cartesian    0.19
    317 y          0.000000      0.000887     0.000887    Cartesian    0.00
    317 z          0.000000     -0.000241    -0.000241    Cartesian    0.00
    318 x          2.214230      2.214230     0.000000    Cartesian    0.00
    318 y          6.642691      6.638447    -0.004244    Cartesian   -0.06
    318 z         11.071152     11.073656     0.002504    Cartesian    0.02
    319 x          2.214230      2.214230     0.000000    Cartesian    0.00
    319 y         11.071152     11.065413    -0.005739    Cartesian   -0.05
    319 z          6.642691      6.651822     0.009131    Cartesian    0.14
    320 x          6.642691      6.644263     0.001572    Cartesian    0.02
    320 y         11.071152     11.073354     0.002202    Cartesian    0.02
    320 z         -2.214230     -2.216918    -0.002688    Cartesian    0.12
    321 x          6.642691      6.647051     0.004360    Cartesian    0.07
    321 y         -2.214230     -2.215691    -0.001461    Cartesian    0.07
    321 z         11.071152     11.080174     0.009021    Cartesian    0.08
    322 x          4.428461      4.433679     0.005218    Cartesian    0.12
    322 y         -4.428461     -4.439789    -0.011328    Cartesian    0.26
    322 z         -8.856922     -8.873917    -0.016996    Cartesian    0.19
    323 x          4.428461      4.437682     0.009221    Cartesian    0.21
    323 y         -8.856922     -8.880618    -0.023696    Cartesian    0.27
    323 z         -4.428461     -4.443578    -0.015118    Cartesian    0.34
    324 x          8.856922      8.872725     0.015804    Cartesian    0.18
    324 y          8.856922      8.877238     0.020317    Cartesian    0.23
    324 z         -4.428461     -4.437278    -0.008817    Cartesian    0.20
    325 x          8.856922      8.878636     0.021714    Cartesian    0.25
    325 y         -4.428461     -4.440416    -0.011955    Cartesian    0.27
    325 z          8.856922      8.879883     0.022962    Cartesian    0.26
    326 x         13.285383     13.317957     0.032575    Cartesian    0.25
    326 y          0.000000     -0.003781    -0.003781    Cartesian    0.00
    326 z          4.428461      4.433592     0.005131    Cartesian    0.12
    327 x         13.285383     13.305428     0.020045    Cartesian    0.15
    327 y          4.428461      4.436437     0.007976    Cartesian    0.18
    327 z          0.000000     -0.000674    -0.000674    Cartesian    0.00
    328 x          6.642691      6.644346     0.001655    Cartesian    0.02
    328 y         -6.642691     -6.644341    -0.001650    Cartesian    0.02
    328 z         -6.642691     -6.647201    -0.004510    Cartesian    0.07
    329 x         11.071152     11.070930    -0.000222    Cartesian   -0.00
    329 y          2.214230      2.216980     0.002750    Cartesian    0.12
    329 z         -6.642691     -6.642603     0.000088    Cartesian   -0.00
    330 x         11.071152     11.073193     0.002041    Cartesian    0.02
    330 y         -6.642691     -6.640818     0.001873    Cartesian   -0.03
    330 z          2.214230      2.216051     0.001820    Cartesian    0.08
    331 x         11.071152     11.078162     0.007010    Cartesian    0.06
    331 y          6.642691      6.647017     0.004326    Cartesian    0.07
    331 z          6.642691      6.646157     0.003465    Cartesian    0.05
--------------------------------------------------------------------------------


  Time to end of optimisation  =       46.4865 seconds


  Peak dynamic memory used =     101.61 MB 


  Timing analysis for GULP :

--------------------------------------------------------------------------------
  Task / Subroutine                                          Time (Seconds)
--------------------------------------------------------------------------------
  Calculation of reciprocal space energy and derivatives          0.0007
  Calculation of reciprocal space energy using symmetry           0.0013
  Calculation of real space energy and derivatives                0.0041
  Calculation of real space energy using symmetry                 0.0126
  Calculation for region 1 energy and derivatives (2-b)          27.0662
  Calculation for region 2a energy                               17.4848
  Calculation for region 2b energy                                0.0081
  Calculation and manipulation of Hessian matrix                  0.1069
  Calculation of matrix inversion                                 1.5901
  Symmetry generation of equivalent positions                     0.0049
--------------------------------------------------------------------------------
  Total CPU time                                                 46.4866
--------------------------------------------------------------------------------


  Dump file written as Na3OCl.grs


  Job Finished at 16:34.41  5th July       2021                               

