********************************************************************************
*                       GENERAL UTILITY LATTICE PROGRAM                        *
*                                 Julian Gale                                  *
*                       Curtin Institute for Computation                       *
*                    School of Molecular and Life Sciences                     *
*                    Curtin University, Western Australia                      *
********************************************************************************
* Version = 5.2.0 * Last modified =  10th September 2020                       *
********************************************************************************
*  optimise     - perform optimisation run                                     *
*  conp         - constant pressure calculation                                *
*  property     - calculate properties for final geometry                      *
*  defect       - perform defect calculation after bulk run                    *
*  compare      - compare initial and final structures                         *
********************************************************************************

  Job Started  at 16:34.28  5th July       2021                               

  Number of CPUs =     1


  Total number of configurations input =      1

********************************************************************************
*  Input for Configuration =   1                                               *
********************************************************************************

  Formula = ClONa3                                                      

  Number of irreducible atoms/shells =       5


  Total number atoms/shells =       7

  Dimensionality = 3               :  Bulk   


  Symmetry :

  Crystal family                   :  Cubic       
  Crystal class  (Groth - 1921)    :  Cubic Hexakisoctahedral              

  Space group (centrosymmetric)    :  P M 3 M         

  Patterson group                  :  P m -3 m 

  Cartesian lattice vectors (Angstroms) :

        4.504000    0.000000    0.000000
        0.000000    4.504000    0.000000
        0.000000    0.000000    4.504000

  Cell parameters (Angstroms/Degrees):

  a =       4.5040    alpha =  90.0000
  b =       4.5040    beta  =  90.0000
  c =       4.5040    gamma =  90.0000

  Initial cell volume =          91.368216 Angs**3

  Temperature of configuration =   0.00     K 

  Pressure of configuration =         0.000 GPa 

  Fractional coordinates of asymmetric unit :

--------------------------------------------------------------------------------
   No.  Atomic       x           y          z         Charge      Occupancy
        Label      (Frac)      (Frac)     (Frac)        (e)         (Frac)  
--------------------------------------------------------------------------------
      1 Cl    c    0.000000    0.000000    0.000000     0.61500    1.000000    
      2 O     c    0.500000    0.500000    0.500000     0.48900    1.000000    
      3 Na    c    0.500000    0.500000    0.000000     0.67000    1.000000    
      4 Cl    s    0.000000    0.000000    0.000000    -1.28500    1.000000    
      5 O     s    0.500000    0.500000    0.500000    -1.82900    1.000000    
--------------------------------------------------------------------------------


  Constraints : 

--------------------------------------------------------------------------------
  Constraint no.      Unconstrained     Constrained    Coefficient    Offset
                         Variable         Variable
--------------------------------------------------------------------------------
           1              Strain 1        Strain 2       1.00000      0.0000
           2              Strain 1        Strain 3       1.00000      0.0000
--------------------------------------------------------------------------------


********************************************************************************
*  General input information                                                   *
********************************************************************************

  Species output for all configurations : 

--------------------------------------------------------------------------------
  Species    Type    Atomic    Atomic    Charge       Radii (Angs)     Library
                     Number     Mass       (e)     Cova   Ionic  VDW   Symbol
--------------------------------------------------------------------------------
    Na       Core       11      22.99   0.670000   0.970  0.000  2.300          
    O        Core        8      16.00   0.489000   0.730  0.000  1.360          
    O        Shell       8       0.00  -1.829000   0.730  0.000  1.360          
    Cl       Core       17      35.45   0.615000   0.990  0.000  1.650          
    Cl       Shell      17       0.00  -1.285000   0.990  0.000  1.650          
--------------------------------------------------------------------------------


  Lattice summation method               =    Ewald          (3-D)
                                         =    Parry          (2-D)
                                         =    Saunders et al (1-D)
  Accuracy factor for lattice sums       =   12.000


  Analytic derivatives to be used

  Time limit = Infinity

  Maximum range for interatomic potentials =    100000.000000 Angstroms

  General interatomic potentials :

--------------------------------------------------------------------------------
Atom  Types   Potential      Parameter       Value         Units   Cutoffs(Ang)
  1     2                                                            Min /  Max 
--------------------------------------------------------------------------------
O    c O    s Spring (c-s)  Spring k 2       34.450000    eV*Ang^-2 0.000  0.800
                            Spring k 4       0.0000000    eV*Ang^-4 
--------------------------------------------------------------------------------
Cl   c Cl   s Spring (c-s)  Spring k 2       28.250000    eV*Ang^-2 0.000  0.800
                            Spring k 4       0.0000000    eV*Ang^-4 
--------------------------------------------------------------------------------
Na   c Na   c Buckingham    Buckingham A     996.28210    eV        0.000 12.000
                            Buckingham rho  0.28830000    Ang       
                            Buckingham C     0.0000000    eV*Ang^6  
--------------------------------------------------------------------------------
Na   c O    s Buckingham    Buckingham A     12439.222    eV        0.000 12.000
                            Buckingham rho  0.20150000    Ang       
                            Buckingham C     0.0000000    eV*Ang^6  
--------------------------------------------------------------------------------
Na   c Cl   s Buckingham    Buckingham A     20907.738    eV        0.000 12.000
                            Buckingham rho  0.21660000    Ang       
                            Buckingham C     0.0000000    eV*Ang^6  
--------------------------------------------------------------------------------
O    s O    s Buckingham    Buckingham A     35546.853    eV        0.000 12.000
                            Buckingham rho  0.12056000    Ang       
                            Buckingham C     13.190000    eV*Ang^6  
--------------------------------------------------------------------------------
O    s Cl   s Buckingham    Buckingham A     47777.071    eV        0.000 12.000
                            Buckingham rho  0.24370000    Ang       
                            Buckingham C     62.200000    eV*Ang^6  
--------------------------------------------------------------------------------
Cl   s Cl   s Buckingham    Buckingham A     35155.254    eV        0.000 12.000
                            Buckingham rho  0.21360000    Ang       
                            Buckingham C     14.530000    eV*Ang^6  
--------------------------------------------------------------------------------

********************************************************************************
*  Output for configuration   1                                                *
********************************************************************************


  Components of energy : 

--------------------------------------------------------------------------------
  Interatomic potentials     =           1.21745275 eV    
  Monopole - monopole (real) =          -4.50527050 eV    
  Monopole - monopole (recip)=         -13.25862634 eV    
  Monopole - monopole (total)=         -17.76389683 eV    
--------------------------------------------------------------------------------
  Total lattice energy       =         -16.54644409 eV    
--------------------------------------------------------------------------------
  Total lattice energy       =           -1596.4789 kJ/(mole unit cells)
--------------------------------------------------------------------------------


  Number of variables =        1

  Maximum number of calculations  =          1000
  Maximum Hessian update interval =            10
  Maximum step size               =   1.000000000
  Maximum parameter tolerance     =   0.000010000
  Maximum function  tolerance     =   0.000010000
  Maximum gradient  tolerance     =   0.001000000
  Maximum gradient  component     =   0.010000000

  Symmetry constrained optimisation

  Symmetry used for second derivatives

  Cell parameters to be optimised using strains

  Newton-Raphson optimiser to be used

  BFGS hessian update to be used

  Lower half triangular hessian to be used

  Start of bulk optimisation :

  Cycle:      0 Energy:       -16.546444  Gnorm:      2.744113  CPU:    0.016
  ** Hessian calculated **
  Cycle:      1 Energy:       -16.570356  Gnorm:      0.030142  CPU:    0.021
  Cycle:      2 Energy:       -16.570358  Gnorm:      0.003103  CPU:    0.024


  **** Optimisation achieved ****


  Final energy =     -16.57035847 eV
  Final Gnorm  =       0.00000012

  Components of energy : 

--------------------------------------------------------------------------------
  Interatomic potentials     =           1.49654868 eV    
  Monopole - monopole (real) =          -4.58211982 eV    
  Monopole - monopole (recip)=         -13.48478733 eV    
  Monopole - monopole (total)=         -18.06690714 eV    
--------------------------------------------------------------------------------
  Total lattice energy       =         -16.57035847 eV    
--------------------------------------------------------------------------------
  Total lattice energy       =           -1598.7863 kJ/(mole unit cells)
--------------------------------------------------------------------------------

  Final asymmetric unit coordinates :

--------------------------------------------------------------------------------
   No.  Atomic        x           y           z         Radius
        Label       (Frac)      (Frac)      (Frac)       (Angs) 
--------------------------------------------------------------------------------
     1  Cl    c     0.000000    0.000000    0.000000    0.000000
     2  O     c     0.500000    0.500000    0.500000    0.000000
     3  Na    c     0.500000    0.500000    0.000000    0.000000
     4  Cl    s     0.000000    0.000000    0.000000    0.000000
     5  O     s     0.500000    0.500000    0.500000    0.000000
--------------------------------------------------------------------------------

  Final Cartesian lattice vectors (Angstroms) :

        4.428461    0.000000    0.000000
        0.000000    4.428461    0.000000
        0.000000    0.000000    4.428461


  Final cell parameters and derivatives :

--------------------------------------------------------------------------------
       a            4.428461 Angstrom     dE/de1(xx)     0.000000 eV/strain
       b            4.428461 Angstrom     dE/de2(yy)     0.000000 eV/strain
       c            4.428461 Angstrom     dE/de3(zz)     0.000000 eV/strain
       alpha       90.000000 Degrees      dE/de4(yz)     0.000000 eV/strain
       beta        90.000000 Degrees      dE/de5(xz)     0.000000 eV/strain
       gamma       90.000000 Degrees      dE/de6(xy)     0.000000 eV/strain
--------------------------------------------------------------------------------

  Primitive cell volume =            86.847723 Angs**3

  Density of cell =      2.302482 g/cm**3

  Non-primitive cell volume =            86.847723 Angs**3


  Final internal derivatives :

--------------------------------------------------------------------------------
   No.  Atomic          a             b             c           Radius
        Label          (eV)          (eV)          (eV)        (eV/Angs)
--------------------------------------------------------------------------------
      1 Cl    c       0.000000      0.000000      0.000000      0.000000
      2 O     c       0.000000      0.000000      0.000000      0.000000
      3 Na    c       0.000000      0.000000      0.000000      0.000000
      4 Cl    s       0.000000      0.000000      0.000000      0.000000
      5 O     s       0.000000      0.000000      0.000000      0.000000
--------------------------------------------------------------------------------
  Maximum abs         0.000000      0.000000      0.000000      0.000000
--------------------------------------------------------------------------------

  Comparison of initial and final structures : 

--------------------------------------------------------------------------------
  Parameter   Initial value   Final value   Difference    Units      Percent
--------------------------------------------------------------------------------
    Volume        91.368216     86.847723    -4.520493    Angs**3     -4.95
    a              4.504000      4.428461    -0.075539    Angstroms   -1.68
    b              4.504000      4.428461    -0.075539    Angstroms   -1.68
    c              4.504000      4.428461    -0.075539    Angstroms   -1.68
    alpha         90.000000     90.000000     0.000000    Degrees      0.00
    beta          90.000000     90.000000     0.000000    Degrees      0.00
    gamma         90.000000     90.000000     0.000000    Degrees      0.00
      1 x          0.000000      0.000000     0.000000    Fractional   0.00
      1 y          0.000000      0.000000     0.000000    Fractional   0.00
      1 z          0.000000      0.000000     0.000000    Fractional   0.00
      2 x          0.500000      0.500000     0.000000    Fractional   0.00
      2 y          0.500000      0.500000     0.000000    Fractional   0.00
      2 z          0.500000      0.500000     0.000000    Fractional   0.00
      3 x          0.500000      0.500000     0.000000    Fractional   0.00
      3 y          0.500000      0.500000     0.000000    Fractional   0.00
      3 z          0.000000      0.000000     0.000000    Fractional   0.00
      4 x          0.000000      0.000000     0.000000    Fractional   0.00
      4 y          0.000000      0.000000     0.000000    Fractional   0.00
      4 z          0.000000      0.000000     0.000000    Fractional   0.00
      5 x          0.500000      0.500000     0.000000    Fractional   0.00
      5 y          0.500000      0.500000     0.000000    Fractional   0.00
      5 z          0.500000      0.500000     0.000000    Fractional   0.00
--------------------------------------------------------------------------------


  Born effective charge tensors : 

-------------------------------------------------------------------------------
  Atom             x           y             z
-------------------------------------------------------------------------------
    1 Cl    x      -0.6995     -0.0000     -0.0000
            y      -0.0000     -0.6995     -0.0000
            z      -0.0000     -0.0000     -0.6995
-------------------------------------------------------------------------------
    2 O     x      -1.0805      0.0000      0.0000
            y       0.0000     -1.0805      0.0000
            z       0.0000      0.0000     -1.0805
-------------------------------------------------------------------------------
    3 Na    x       0.6486      0.0000     -0.0000
            y       0.0000      0.6486      0.0000
            z      -0.0000      0.0000      0.4827
-------------------------------------------------------------------------------




  Elastic Constant Matrix: (Units=GPa)

-------------------------------------------------------------------------------
  Indices      1         2         3         4         5         6    
-------------------------------------------------------------------------------
       1     77.0757   16.0262   16.0262   -0.0000   -0.0000   -0.0000
       2     16.0262   77.0757   16.0262   -0.0000   -0.0000    0.0000
       3     16.0262   16.0262   77.0757    0.0000    0.0000    0.0000
       4     -0.0000   -0.0000    0.0000   16.0262    0.0000   -0.0000
       5     -0.0000   -0.0000    0.0000    0.0000   16.0262   -0.0000
       6     -0.0000    0.0000    0.0000   -0.0000   -0.0000   16.0262
-------------------------------------------------------------------------------


  Elastic Compliance Matrix: (Units=1/GPa)

-------------------------------------------------------------------------------
  Indices      1         2         3         4         5         6    
-------------------------------------------------------------------------------
       1    0.013975 -0.002406 -0.002406  0.000000  0.000000  0.000000
       2   -0.002406  0.013975 -0.002406  0.000000  0.000000 -0.000000
       3   -0.002406 -0.002406  0.013975 -0.000000 -0.000000 -0.000000
       4    0.000000  0.000000 -0.000000  0.062398 -0.000000  0.000000
       5    0.000000  0.000000 -0.000000 -0.000000  0.062398  0.000000
       6    0.000000 -0.000000 -0.000000  0.000000  0.000000  0.062398
-------------------------------------------------------------------------------

  Mechanical properties :

-------------------------------------------------------------------------------
  Convention :                    Reuss         Voigt         Hill
-------------------------------------------------------------------------------
  Bulk  Modulus (GPa)     =      36.37603      36.37603      36.37603
  Shear Modulus (GPa)     =      19.78520      21.82562      20.80541
-------------------------------------------------------------------------------
  Velocity S-wave (km/s)  =       2.93138       3.07883       3.00601
  Velocity P-wave (km/s)  =       5.22072       5.33268       5.27700
-------------------------------------------------------------------------------
  Compressibility (1/GPa) =    0.02749063
-------------------------------------------------------------------------------
  Stress axis :                     x             y             z
-------------------------------------------------------------------------------
  Youngs Moduli (GPa)     =      71.55833      71.55833      71.55833
-------------------------------------------------------------------------------
  Poissons Ratio (x)      =                     0.17214       0.17214
  Poissons Ratio (y)      =       0.17214                     0.17214
  Poissons Ratio (z)      =       0.17214       0.17214
-------------------------------------------------------------------------------


  Piezoelectric Strain Matrix: (Units=C/m**2)

-------------------------------------------------------------------------------
  Indices      1         2         3         4         5         6    
-------------------------------------------------------------------------------
       x    -0.00000  -0.00000  -0.00000  -0.00000  -0.00000   0.00000
       y     0.00000   0.00000   0.00000  -0.00000  -0.00000  -0.00000
       z     0.00000   0.00000  -0.00000   0.00000  -0.00000  -0.00000
-------------------------------------------------------------------------------


  Piezoelectric Stress Matrix: (Units=10**-11 C/N)

-------------------------------------------------------------------------------
  Indices      1         2         3         4         5         6    
-------------------------------------------------------------------------------
       x    -0.00000  -0.00000  -0.00000  -0.00000  -0.00000   0.00000
       y     0.00000   0.00000   0.00000  -0.00000  -0.00000  -0.00000
       z     0.00000   0.00000  -0.00000   0.00000  -0.00000  -0.00000
-------------------------------------------------------------------------------


  Static dielectric constant tensor : 

-------------------------------------------------------------------------------
              x         y         z
-------------------------------------------------------------------------------
       x     5.77918   0.00000   0.00000
       y     0.00000   5.77918   0.00000
       z     0.00000   0.00000   5.77918
--------------------------------------------------------------------------------

  High frequency dielectric constant tensor : 

-------------------------------------------------------------------------------
              x         y         z
-------------------------------------------------------------------------------
       x     1.30980  -0.00000  -0.00000
       y    -0.00000   1.30980  -0.00000
       z    -0.00000  -0.00000   1.30980
-------------------------------------------------------------------------------

  Static refractive indices : 

-------------------------------------------------------------------------------
    1 =    2.40399      2 =    2.40399      3 =    2.40399
-------------------------------------------------------------------------------

  High frequency refractive indices : 

-------------------------------------------------------------------------------
    1 =    1.14447      2 =    1.14447      3 =    1.14447
-------------------------------------------------------------------------------


  Time to end of optimisation =       0.0348 seconds

********************************************************************************
*  Defect calculation for configuration   1 :                                  *
********************************************************************************

  Total number of defects =      3

  Total charge on defect  =  -0.67

  Defect centre is at   0.5000   0.2500   0.2500  Frac

  Region 1 radius =  12.0000      Number of ions =    575

  Number of symmetry inequivalent region 1 ions  =    331

  Region 2 radius =  16.0000      Number of ions =    818

  Number of symmetry inequivalent region 2a ions =    447

  Region 2a mode = 4 : screened electrostatics due to region 1 
                       neglect correction to region 1 forces from 2a
                       region 2a displacements based on defects only

  Region 2a ions will only interact with defects in region 1

  Vacancies:

--------------------------------------------------------------------------------
    Specification type     Symbol/Number         x          y          z
--------------------------------------------------------------------------------
    Fractional                               0.500000   0.500000   0.000000
    Fractional                               0.500000   0.000000   0.500000
--------------------------------------------------------------------------------

  Interstitials:

--------------------------------------------------------------------------------
    Specification type     Symbol/Number         x          y          z
--------------------------------------------------------------------------------
    Atom/Fractional         Na               0.500000   0.380000   0.120000
--------------------------------------------------------------------------------


  Symmetry reduced region 1 (Relative to defect centre) :

--------------------------------------------------------------------------------
   No.   Atomic       x            y             z       Radius  Multiplicity   
         Label      (Angs)       (Angs)        (Angs)    (Angs)     
--------------------------------------------------------------------------------
     1  Na    c      0.0000       0.5757      -0.5757    0.0000     1    Defect
     2  O     c      0.0000       1.1071 *     1.1071 *  0.0000     1          
     3  Cl    c      2.2142 *    -1.1071 *    -1.1071 *  0.0000     2          
     4  Na    c      2.2142 *     1.1071 *     1.1071 *  0.0000     2          
     5  O     c      0.0000       1.1071 *    -3.3213 *  0.0000     1          
     6  O     c      0.0000      -3.3213 *     1.1071 *  0.0000     1          
     7  Na    c      0.0000       1.1071 *     3.3213 *  0.0000     1          
     8  Na    c      0.0000      -3.3213 *    -1.1071 *  0.0000     1          
     9  Na    c      0.0000      -1.1071 *    -3.3213 *  0.0000     1          
    10  Na    c      0.0000       3.3213 *     1.1071 *  0.0000     1          
    11  Cl    c      2.2142 *    -1.1071 *     3.3213 *  0.0000     2          
    12  Cl    c      2.2142 *     3.3213 *    -1.1071 *  0.0000     2          
    13  Na    c      2.2142 *     1.1071 *    -3.3213 *  0.0000     2          
    14  Na    c      2.2142 *    -3.3213 *     1.1071 *  0.0000     2          
    15  O     c      4.4285 *     1.1071 *     1.1071 *  0.0000     2          
    16  Na    c      4.4285 *     1.1071 *    -1.1071 *  0.0000     2          
    17  Na    c      4.4285 *    -1.1071 *     1.1071 *  0.0000     2          
    18  O     c      0.0000      -3.3213 *    -3.3213 *  0.0000     1          
    19  Na    c      0.0000      -3.3213 *     3.3213 *  0.0000     1          
    20  Na    c      0.0000       3.3213 *    -3.3213 *  0.0000     1          
    21  Cl    c      2.2142 *     3.3213 *     3.3213 *  0.0000     2          
    22  Na    c      2.2142 *    -3.3213 *    -3.3213 *  0.0000     2          
    23  O     c      4.4285 *     1.1071 *    -3.3213 *  0.0000     2          
    24  Na    c      4.4285 *     1.1071 *     3.3213 *  0.0000     2          
    25  Na    c      4.4285 *    -1.1071 *    -3.3213 *  0.0000     2          
    26  O     c      4.4285 *    -3.3213 *     1.1071 *  0.0000     2          
    27  Na    c      4.4285 *    -3.3213 *    -1.1071 *  0.0000     2          
    28  Na    c      4.4285 *     3.3213 *     1.1071 *  0.0000     2          
    29  O     c      0.0000       1.1071 *     5.5356 *  0.0000     1          
    30  O     c      0.0000       5.5356 *     1.1071 *  0.0000     1          
    31  Na    c      0.0000       1.1071 *    -5.5356 *  0.0000     1          
    32  Na    c      0.0000       5.5356 *    -1.1071 *  0.0000     1          
    33  Na    c      0.0000      -1.1071 *     5.5356 *  0.0000     1          
    34  Na    c      0.0000      -5.5356 *     1.1071 *  0.0000     1          
    35  Cl    c      2.2142 *    -1.1071 *    -5.5356 *  0.0000     2          
    36  Cl    c      2.2142 *    -5.5356 *    -1.1071 *  0.0000     2          
    37  Na    c      2.2142 *     1.1071 *     5.5356 *  0.0000     2          
    38  Na    c      2.2142 *     5.5356 *     1.1071 *  0.0000     2          
    39  O     c      0.0000       5.5356 *    -3.3213 *  0.0000     1          
    40  O     c      0.0000      -3.3213 *     5.5356 *  0.0000     1          
    41  O     c      4.4285 *    -3.3213 *    -3.3213 *  0.0000     2          
    42  Na    c      0.0000       5.5356 *     3.3213 *  0.0000     1          
    43  Na    c      0.0000      -3.3213 *    -5.5356 *  0.0000     1          
    44  Na    c      4.4285 *    -3.3213 *     3.3213 *  0.0000     2          
    45  Na    c      0.0000       3.3213 *     5.5356 *  0.0000     1          
    46  Na    c      0.0000      -5.5356 *    -3.3213 *  0.0000     1          
    47  Na    c      4.4285 *     3.3213 *    -3.3213 *  0.0000     2          
    48  Cl    c      2.2142 *     3.3213 *    -5.5356 *  0.0000     2          
    49  Cl    c      6.6427 *    -1.1071 *    -1.1071 *  0.0000     2          
    50  Na    c      2.2142 *    -3.3213 *     5.5356 *  0.0000     2          
    51  Na    c      6.6427 *     1.1071 *     1.1071 *  0.0000     2          
    52  Cl    c      2.2142 *    -5.5356 *     3.3213 *  0.0000     2          
    53  Na    c      2.2142 *     5.5356 *    -3.3213 *  0.0000     2          
    54  O     c      4.4285 *     1.1071 *     5.5356 *  0.0000     2          
    55  O     c      4.4285 *     5.5356 *     1.1071 *  0.0000     2          
    56  Na    c      4.4285 *     1.1071 *    -5.5356 *  0.0000     2          
    57  Na    c      4.4285 *     5.5356 *    -1.1071 *  0.0000     2          
    58  Na    c      4.4285 *    -1.1071 *     5.5356 *  0.0000     2          
    59  Na    c      4.4285 *    -5.5356 *     1.1071 *  0.0000     2          
    60  Cl    c      6.6427 *     3.3213 *    -1.1071 *  0.0000     2          
    61  Na    c      6.6427 *    -3.3213 *     1.1071 *  0.0000     2          
    62  Cl    c      6.6427 *    -1.1071 *     3.3213 *  0.0000     2          
    63  Na    c      6.6427 *     1.1071 *    -3.3213 *  0.0000     2          
    64  O     c      0.0000       1.1071 *    -7.7498 *  0.0000     1          
    65  O     c      0.0000      -7.7498 *     1.1071 *  0.0000     1          
    66  Na    c      0.0000       1.1071 *     7.7498 *  0.0000     1          
    67  Na    c      0.0000      -7.7498 *    -1.1071 *  0.0000     1          
    68  Na    c      0.0000      -1.1071 *    -7.7498 *  0.0000     1          
    69  Na    c      0.0000       7.7498 *     1.1071 *  0.0000     1          
    70  O     c      4.4285 *    -3.3213 *     5.5356 *  0.0000     2          
    71  Na    c      4.4285 *    -3.3213 *    -5.5356 *  0.0000     2          
    72  Na    c      4.4285 *     3.3213 *     5.5356 *  0.0000     2          
    73  O     c      0.0000       5.5356 *     5.5356 *  0.0000     1          
    74  O     c      4.4285 *     5.5356 *    -3.3213 *  0.0000     2          
    75  Na    c      0.0000       5.5356 *    -5.5356 *  0.0000     1          
    76  Na    c      4.4285 *     5.5356 *     3.3213 *  0.0000     2          
    77  Na    c      0.0000      -5.5356 *     5.5356 *  0.0000     1          
    78  Na    c      4.4285 *    -5.5356 *    -3.3213 *  0.0000     2          
    79  Cl    c      2.2142 *    -1.1071 *     7.7498 *  0.0000     2          
    80  Cl    c      2.2142 *     7.7498 *    -1.1071 *  0.0000     2          
    81  Na    c      2.2142 *     1.1071 *    -7.7498 *  0.0000     2          
    82  Na    c      2.2142 *    -7.7498 *     1.1071 *  0.0000     2          
    83  Cl    c      6.6427 *     3.3213 *     3.3213 *  0.0000     2          
    84  Na    c      6.6427 *    -3.3213 *    -3.3213 *  0.0000     2          
    85  Cl    c      2.2142 *    -5.5356 *    -5.5356 *  0.0000     2          
    86  Na    c      2.2142 *     5.5356 *     5.5356 *  0.0000     2          
    87  O     c      0.0000      -3.3213 *    -7.7498 *  0.0000     1          
    88  O     c      0.0000      -7.7498 *    -3.3213 *  0.0000     1          
    89  Na    c      0.0000      -3.3213 *     7.7498 *  0.0000     1          
    90  Na    c      0.0000      -7.7498 *     3.3213 *  0.0000     1          
    91  Na    c      0.0000       3.3213 *    -7.7498 *  0.0000     1          
    92  Na    c      0.0000       7.7498 *    -3.3213 *  0.0000     1          
    93  Cl    c      2.2142 *     3.3213 *     7.7498 *  0.0000     2          
    94  Cl    c      2.2142 *     7.7498 *     3.3213 *  0.0000     2          
    95  Na    c      2.2142 *    -3.3213 *    -7.7498 *  0.0000     2          
    96  Na    c      2.2142 *    -7.7498 *    -3.3213 *  0.0000     2          
    97  Cl    c      6.6427 *    -5.5356 *    -1.1071 *  0.0000     2          
    98  Na    c      6.6427 *     5.5356 *     1.1071 *  0.0000     2          
    99  Cl    c      6.6427 *    -1.1071 *    -5.5356 *  0.0000     2          
   100  Na    c      6.6427 *     1.1071 *     5.5356 *  0.0000     2          
   101  O     c      4.4285 *     1.1071 *    -7.7498 *  0.0000     2          
   102  O     c      4.4285 *    -7.7498 *     1.1071 *  0.0000     2          
   103  O     c      8.8569 *     1.1071 *     1.1071 *  0.0000     2          
   104  Na    c      4.4285 *     1.1071 *     7.7498 *  0.0000     2          
   105  Na    c      4.4285 *    -7.7498 *    -1.1071 *  0.0000     2          
   106  Na    c      8.8569 *     1.1071 *    -1.1071 *  0.0000     2          
   107  Na    c      4.4285 *    -1.1071 *    -7.7498 *  0.0000     2          
   108  Na    c      4.4285 *     7.7498 *     1.1071 *  0.0000     2          
   109  Na    c      8.8569 *    -1.1071 *     1.1071 *  0.0000     2          
   110  O     c      4.4285 *     5.5356 *     5.5356 *  0.0000     2          
   111  Na    c      4.4285 *     5.5356 *    -5.5356 *  0.0000     2          
   112  Na    c      4.4285 *    -5.5356 *     5.5356 *  0.0000     2          
   113  Cl    c      6.6427 *    -5.5356 *     3.3213 *  0.0000     2          
   114  Na    c      6.6427 *     5.5356 *    -3.3213 *  0.0000     2          
   115  Cl    c      6.6427 *     3.3213 *    -5.5356 *  0.0000     2          
   116  Na    c      6.6427 *    -3.3213 *     5.5356 *  0.0000     2          
   117  O     c      4.4285 *    -3.3213 *    -7.7498 *  0.0000     2          
   118  O     c      4.4285 *    -7.7498 *    -3.3213 *  0.0000     2          
   119  O     c      8.8569 *     1.1071 *    -3.3213 *  0.0000     2          
   120  O     c      8.8569 *    -3.3213 *     1.1071 *  0.0000     2          
   121  Na    c      4.4285 *    -3.3213 *     7.7498 *  0.0000     2          
   122  Na    c      4.4285 *    -7.7498 *     3.3213 *  0.0000     2          
   123  Na    c      8.8569 *     1.1071 *     3.3213 *  0.0000     2          
   124  Na    c      8.8569 *    -3.3213 *    -1.1071 *  0.0000     2          
   125  Na    c      4.4285 *     3.3213 *    -7.7498 *  0.0000     2          
   126  Na    c      4.4285 *     7.7498 *    -3.3213 *  0.0000     2          
   127  Na    c      8.8569 *    -1.1071 *    -3.3213 *  0.0000     2          
   128  Na    c      8.8569 *     3.3213 *     1.1071 *  0.0000     2          
   129  O     c      0.0000       5.5356 *    -7.7498 *  0.0000     1          
   130  O     c      0.0000      -7.7498 *     5.5356 *  0.0000     1          
   131  Na    c      0.0000       5.5356 *     7.7498 *  0.0000     1          
   132  Na    c      0.0000      -7.7498 *    -5.5356 *  0.0000     1          
   133  Na    c      0.0000       7.7498 *     5.5356 *  0.0000     1          
   134  Na    c      0.0000      -5.5356 *    -7.7498 *  0.0000     1          
   135  Cl    c      2.2142 *     7.7498 *    -5.5356 *  0.0000     2          
   136  Cl    c      2.2142 *    -5.5356 *     7.7498 *  0.0000     2          
   137  Na    c      2.2142 *     5.5356 *    -7.7498 *  0.0000     2          
   138  Na    c      2.2142 *    -7.7498 *     5.5356 *  0.0000     2          
   139  O     c      8.8569 *    -3.3213 *    -3.3213 *  0.0000     2          
   140  Na    c      8.8569 *    -3.3213 *     3.3213 *  0.0000     2          
   141  Na    c      8.8569 *     3.3213 *    -3.3213 *  0.0000     2          
   142  O     c      0.0000       1.1071 *     9.9640 *  0.0000     1          
   143  O     c      0.0000       9.9640 *     1.1071 *  0.0000     1          
   144  Na    c      0.0000       1.1071 *    -9.9640 *  0.0000     1          
   145  Na    c      0.0000       9.9640 *    -1.1071 *  0.0000     1          
   146  Na    c      0.0000      -1.1071 *     9.9640 *  0.0000     1          
   147  Na    c      0.0000      -9.9640 *     1.1071 *  0.0000     1          
   148  Cl    c      2.2142 *    -1.1071 *    -9.9640 *  0.0000     2          
   149  Cl    c      2.2142 *    -9.9640 *    -1.1071 *  0.0000     2          
   150  Cl    c      6.6427 *    -1.1071 *     7.7498 *  0.0000     2          
   151  Cl    c      6.6427 *     7.7498 *    -1.1071 *  0.0000     2          
   152  Na    c      2.2142 *     1.1071 *     9.9640 *  0.0000     2          
   153  Na    c      2.2142 *     9.9640 *     1.1071 *  0.0000     2          
   154  Na    c      6.6427 *     1.1071 *    -7.7498 *  0.0000     2          
   155  Na    c      6.6427 *    -7.7498 *     1.1071 *  0.0000     2          
   156  Cl    c      6.6427 *    -5.5356 *    -5.5356 *  0.0000     2          
   157  Na    c      6.6427 *     5.5356 *     5.5356 *  0.0000     2          
   158  O     c      0.0000       9.9640 *    -3.3213 *  0.0000     1          
   159  O     c      0.0000      -3.3213 *     9.9640 *  0.0000     1          
   160  O     c      4.4285 *     5.5356 *    -7.7498 *  0.0000     2          
   161  O     c      4.4285 *    -7.7498 *     5.5356 *  0.0000     2          
   162  O     c      8.8569 *     1.1071 *     5.5356 *  0.0000     2          
   163  O     c      8.8569 *     5.5356 *     1.1071 *  0.0000     2          
   164  Na    c      0.0000       9.9640 *     3.3213 *  0.0000     1          
   165  Na    c      0.0000      -3.3213 *    -9.9640 *  0.0000     1          
   166  Na    c      4.4285 *     5.5356 *     7.7498 *  0.0000     2          
   167  Na    c      4.4285 *    -7.7498 *    -5.5356 *  0.0000     2          
   168  Na    c      8.8569 *     1.1071 *    -5.5356 *  0.0000     2          
   169  Na    c      8.8569 *     5.5356 *    -1.1071 *  0.0000     2          
   170  Na    c      0.0000       3.3213 *     9.9640 *  0.0000     1          
   171  Na    c      0.0000      -9.9640 *    -3.3213 *  0.0000     1          
   172  Na    c      4.4285 *     7.7498 *     5.5356 *  0.0000     2          
   173  Na    c      4.4285 *    -5.5356 *    -7.7498 *  0.0000     2          
   174  Na    c      8.8569 *    -1.1071 *     5.5356 *  0.0000     2          
   175  Na    c      8.8569 *    -5.5356 *     1.1071 *  0.0000     2          
   176  Cl    c      2.2142 *     3.3213 *    -9.9640 *  0.0000     2          
   177  Cl    c      2.2142 *    -9.9640 *     3.3213 *  0.0000     2          
   178  Cl    c      6.6427 *     3.3213 *     7.7498 *  0.0000     2          
   179  Cl    c      6.6427 *     7.7498 *     3.3213 *  0.0000     2          
   180  Na    c      2.2142 *     9.9640 *    -3.3213 *  0.0000     2          
   181  Na    c      2.2142 *    -3.3213 *     9.9640 *  0.0000     2          
   182  Na    c      6.6427 *    -3.3213 *    -7.7498 *  0.0000     2          
   183  Na    c      6.6427 *    -7.7498 *    -3.3213 *  0.0000     2          
   184  O     c      0.0000      -7.7498 *    -7.7498 *  0.0000     1          
   185  Na    c      0.0000      -7.7498 *     7.7498 *  0.0000     1          
   186  Na    c      0.0000       7.7498 *    -7.7498 *  0.0000     1          
   187  O     c      4.4285 *     1.1071 *     9.9640 *  0.0000     2          
   188  O     c      4.4285 *     9.9640 *     1.1071 *  0.0000     2          
   189  O     c      8.8569 *     5.5356 *    -3.3213 *  0.0000     2          
   190  O     c      8.8569 *    -3.3213 *     5.5356 *  0.0000     2          
   191  Na    c      4.4285 *     1.1071 *    -9.9640 *  0.0000     2          
   192  Na    c      4.4285 *     9.9640 *    -1.1071 *  0.0000     2          
   193  Na    c      8.8569 *     5.5356 *     3.3213 *  0.0000     2          
   194  Na    c      8.8569 *    -3.3213 *    -5.5356 *  0.0000     2          
   195  Na    c      4.4285 *    -1.1071 *     9.9640 *  0.0000     2          
   196  Na    c      4.4285 *    -9.9640 *     1.1071 *  0.0000     2          
   197  Na    c      8.8569 *     3.3213 *     5.5356 *  0.0000     2          
   198  Na    c      8.8569 *    -5.5356 *    -3.3213 *  0.0000     2          
   199  Cl    c      2.2142 *     7.7498 *     7.7498 *  0.0000     2          
   200  Na    c      2.2142 *    -7.7498 *    -7.7498 *  0.0000     2          
   201  Cl    c     11.0712 *    -1.1071 *    -1.1071 *  0.0000     2          
   202  Na    c     11.0712 *     1.1071 *     1.1071 *  0.0000     2          
   203  O     c      0.0000       5.5356 *     9.9640 *  0.0000     1          
   204  O     c      0.0000       9.9640 *     5.5356 *  0.0000     1          
   205  O     c      4.4285 *     9.9640 *    -3.3213 *  0.0000     2          
   206  O     c      4.4285 *    -3.3213 *     9.9640 *  0.0000     2          
   207  Na    c      0.0000       5.5356 *    -9.9640 *  0.0000     1          
   208  Na    c      0.0000       9.9640 *    -5.5356 *  0.0000     1          
   209  Na    c      4.4285 *     9.9640 *     3.3213 *  0.0000     2          
   210  Na    c      4.4285 *    -3.3213 *    -9.9640 *  0.0000     2          
   211  Na    c      0.0000      -5.5356 *     9.9640 *  0.0000     1          
   212  Na    c      0.0000      -9.9640 *     5.5356 *  0.0000     1          
   213  Na    c      4.4285 *     3.3213 *     9.9640 *  0.0000     2          
   214  Na    c      4.4285 *    -9.9640 *    -3.3213 *  0.0000     2          
   215  Cl    c      2.2142 *    -5.5356 *    -9.9640 *  0.0000     2          
   216  Cl    c      2.2142 *    -9.9640 *    -5.5356 *  0.0000     2          
   217  Cl    c      6.6427 *     7.7498 *    -5.5356 *  0.0000     2          
   218  Cl    c      6.6427 *    -5.5356 *     7.7498 *  0.0000     2          
   219  Na    c      2.2142 *     5.5356 *     9.9640 *  0.0000     2          
   220  Na    c      2.2142 *     9.9640 *     5.5356 *  0.0000     2          
   221  Na    c      6.6427 *     5.5356 *    -7.7498 *  0.0000     2          
   222  Na    c      6.6427 *    -7.7498 *     5.5356 *  0.0000     2          
   223  Cl    c     11.0712 *    -1.1071 *     3.3213 *  0.0000     2          
   224  Cl    c     11.0712 *     3.3213 *    -1.1071 *  0.0000     2          
   225  Na    c     11.0712 *     1.1071 *    -3.3213 *  0.0000     2          
   226  Na    c     11.0712 *    -3.3213 *     1.1071 *  0.0000     2          
   227  O     c      4.4285 *    -7.7498 *    -7.7498 *  0.0000     2          
   228  O     c      8.8569 *     1.1071 *    -7.7498 *  0.0000     2          
   229  O     c      8.8569 *    -7.7498 *     1.1071 *  0.0000     2          
   230  Na    c      4.4285 *    -7.7498 *     7.7498 *  0.0000     2          
   231  Na    c      8.8569 *     1.1071 *     7.7498 *  0.0000     2          
   232  Na    c      8.8569 *    -7.7498 *    -1.1071 *  0.0000     2          
   233  Na    c      4.4285 *     7.7498 *    -7.7498 *  0.0000     2          
   234  Na    c      8.8569 *    -1.1071 *    -7.7498 *  0.0000     2          
   235  Na    c      8.8569 *     7.7498 *     1.1071 *  0.0000     2          
   236  O     c      8.8569 *     5.5356 *     5.5356 *  0.0000     2          
   237  Na    c      8.8569 *     5.5356 *    -5.5356 *  0.0000     2          
   238  Na    c      8.8569 *    -5.5356 *     5.5356 *  0.0000     2          
   239  O     s      0.0000       1.1071 *     1.1071 *  0.0000     1          
   240  Cl    s      2.2142 *    -1.1071 *    -1.1071 *  0.0000     2          
   241  O     s      0.0000       1.1071 *    -3.3213 *  0.0000     1          
   242  O     s      0.0000      -3.3213 *     1.1071 *  0.0000     1          
   243  Cl    s      2.2142 *    -1.1071 *     3.3213 *  0.0000     2          
   244  Cl    s      2.2142 *     3.3213 *    -1.1071 *  0.0000     2          
   245  O     s      4.4285 *     1.1071 *     1.1071 *  0.0000     2          
   246  O     s      0.0000      -3.3213 *    -3.3213 *  0.0000     1          
   247  Cl    s      2.2142 *     3.3213 *     3.3213 *  0.0000     2          
   248  O     s      4.4285 *     1.1071 *    -3.3213 *  0.0000     2          
   249  O     s      4.4285 *    -3.3213 *     1.1071 *  0.0000     2          
   250  O     s      0.0000       1.1071 *     5.5356 *  0.0000     1          
   251  O     s      0.0000       5.5356 *     1.1071 *  0.0000     1          
   252  Cl    s      2.2142 *    -1.1071 *    -5.5356 *  0.0000     2          
   253  Cl    s      2.2142 *    -5.5356 *    -1.1071 *  0.0000     2          
   254  O     s      0.0000       5.5356 *    -3.3213 *  0.0000     1          
   255  O     s      0.0000      -3.3213 *     5.5356 *  0.0000     1          
   256  O     s      4.4285 *    -3.3213 *    -3.3213 *  0.0000     2          
   257  Cl    s      2.2142 *     3.3213 *    -5.5356 *  0.0000     2          
   258  Cl    s      6.6427 *    -1.1071 *    -1.1071 *  0.0000     2          
   259  Cl    s      2.2142 *    -5.5356 *     3.3213 *  0.0000     2          
   260  O     s      4.4285 *     1.1071 *     5.5356 *  0.0000     2          
   261  O     s      4.4285 *     5.5356 *     1.1071 *  0.0000     2          
   262  Cl    s      6.6427 *     3.3213 *    -1.1071 *  0.0000     2          
   263  Cl    s      6.6427 *    -1.1071 *     3.3213 *  0.0000     2          
   264  O     s      0.0000       1.1071 *    -7.7498 *  0.0000     1          
   265  O     s      0.0000      -7.7498 *     1.1071 *  0.0000     1          
   266  O     s      4.4285 *    -3.3213 *     5.5356 *  0.0000     2          
   267  O     s      0.0000       5.5356 *     5.5356 *  0.0000     1          
   268  O     s      4.4285 *     5.5356 *    -3.3213 *  0.0000     2          
   269  Cl    s      2.2142 *    -1.1071 *     7.7498 *  0.0000     2          
   270  Cl    s      2.2142 *     7.7498 *    -1.1071 *  0.0000     2          
   271  Cl    s      6.6427 *     3.3213 *     3.3213 *  0.0000     2          
   272  Cl    s      2.2142 *    -5.5356 *    -5.5356 *  0.0000     2          
   273  O     s      0.0000      -3.3213 *    -7.7498 *  0.0000     1          
   274  O     s      0.0000      -7.7498 *    -3.3213 *  0.0000     1          
   275  Cl    s      2.2142 *     3.3213 *     7.7498 *  0.0000     2          
   276  Cl    s      2.2142 *     7.7498 *     3.3213 *  0.0000     2          
   277  Cl    s      6.6427 *    -5.5356 *    -1.1071 *  0.0000     2          
   278  Cl    s      6.6427 *    -1.1071 *    -5.5356 *  0.0000     2          
   279  O     s      4.4285 *     1.1071 *    -7.7498 *  0.0000     2          
   280  O     s      4.4285 *    -7.7498 *     1.1071 *  0.0000     2          
   281  O     s      8.8569 *     1.1071 *     1.1071 *  0.0000     2          
   282  O     s      4.4285 *     5.5356 *     5.5356 *  0.0000     2          
   283  Cl    s      6.6427 *    -5.5356 *     3.3213 *  0.0000     2          
   284  Cl    s      6.6427 *     3.3213 *    -5.5356 *  0.0000     2          
   285  O     s      4.4285 *    -3.3213 *    -7.7498 *  0.0000     2          
   286  O     s      4.4285 *    -7.7498 *    -3.3213 *  0.0000     2          
   287  O     s      8.8569 *     1.1071 *    -3.3213 *  0.0000     2          
   288  O     s      8.8569 *    -3.3213 *     1.1071 *  0.0000     2          
   289  O     s      0.0000       5.5356 *    -7.7498 *  0.0000     1          
   290  O     s      0.0000      -7.7498 *     5.5356 *  0.0000     1          
   291  Cl    s      2.2142 *     7.7498 *    -5.5356 *  0.0000     2          
   292  Cl    s      2.2142 *    -5.5356 *     7.7498 *  0.0000     2          
   293  O     s      8.8569 *    -3.3213 *    -3.3213 *  0.0000     2          
   294  O     s      0.0000       1.1071 *     9.9640 *  0.0000     1          
   295  O     s      0.0000       9.9640 *     1.1071 *  0.0000     1          
   296  Cl    s      2.2142 *    -1.1071 *    -9.9640 *  0.0000     2          
   297  Cl    s      2.2142 *    -9.9640 *    -1.1071 *  0.0000     2          
   298  Cl    s      6.6427 *    -1.1071 *     7.7498 *  0.0000     2          
   299  Cl    s      6.6427 *     7.7498 *    -1.1071 *  0.0000     2          
   300  Cl    s      6.6427 *    -5.5356 *    -5.5356 *  0.0000     2          
   301  O     s      0.0000       9.9640 *    -3.3213 *  0.0000     1          
   302  O     s      0.0000      -3.3213 *     9.9640 *  0.0000     1          
   303  O     s      4.4285 *     5.5356 *    -7.7498 *  0.0000     2          
   304  O     s      4.4285 *    -7.7498 *     5.5356 *  0.0000     2          
   305  O     s      8.8569 *     1.1071 *     5.5356 *  0.0000     2          
   306  O     s      8.8569 *     5.5356 *     1.1071 *  0.0000     2          
   307  Cl    s      2.2142 *     3.3213 *    -9.9640 *  0.0000     2          
   308  Cl    s      2.2142 *    -9.9640 *     3.3213 *  0.0000     2          
   309  Cl    s      6.6427 *     3.3213 *     7.7498 *  0.0000     2          
   310  Cl    s      6.6427 *     7.7498 *     3.3213 *  0.0000     2          
   311  O     s      0.0000      -7.7498 *    -7.7498 *  0.0000     1          
   312  O     s      4.4285 *     1.1071 *     9.9640 *  0.0000     2          
   313  O     s      4.4285 *     9.9640 *     1.1071 *  0.0000     2          
   314  O     s      8.8569 *     5.5356 *    -3.3213 *  0.0000     2          
   315  O     s      8.8569 *    -3.3213 *     5.5356 *  0.0000     2          
   316  Cl    s      2.2142 *     7.7498 *     7.7498 *  0.0000     2          
   317  Cl    s     11.0712 *    -1.1071 *    -1.1071 *  0.0000     2          
   318  O     s      0.0000       5.5356 *     9.9640 *  0.0000     1          
   319  O     s      0.0000       9.9640 *     5.5356 *  0.0000     1          
   320  O     s      4.4285 *     9.9640 *    -3.3213 *  0.0000     2          
   321  O     s      4.4285 *    -3.3213 *     9.9640 *  0.0000     2          
   322  Cl    s      2.2142 *    -5.5356 *    -9.9640 *  0.0000     2          
   323  Cl    s      2.2142 *    -9.9640 *    -5.5356 *  0.0000     2          
   324  Cl    s      6.6427 *     7.7498 *    -5.5356 *  0.0000     2          
   325  Cl    s      6.6427 *    -5.5356 *     7.7498 *  0.0000     2          
   326  Cl    s     11.0712 *    -1.1071 *     3.3213 *  0.0000     2          
   327  Cl    s     11.0712 *     3.3213 *    -1.1071 *  0.0000     2          
   328  O     s      4.4285 *    -7.7498 *    -7.7498 *  0.0000     2          
   329  O     s      8.8569 *     1.1071 *    -7.7498 *  0.0000     2          
   330  O     s      8.8569 *    -7.7498 *     1.1071 *  0.0000     2          
   331  O     s      8.8569 *     5.5356 *     5.5356 *  0.0000     2          
--------------------------------------------------------------------------------

  Components of defect energy : 

--------------------------------------------------------------------------------
  Region 1 - region 1                   =      4.91557710 eV
  Region 1 - region 2a (unrelaxed)      =     -0.00966045 eV
  Region 1 - 2a (relaxed - correction)  =     -0.11721423 eV
  Region 1 (Total)                      =      4.78870242 eV
  Region 2a                             =      0.05858641 eV
  Region 2b                             =     -0.16649463 eV
--------------------------------------------------------------------------------
  Total defect energy                   =      4.68079420 eV
--------------------------------------------------------------------------------

  Largest displacement in region 2 =   0.0188 Angstroms


  Number of variables =      904

  Maximum number of calculations  =        1000
  Maximum Hessian update interval =          10
  Maximum step size               =   1.0000000
  Maximum parameter tolerance     =   0.0000100
  Maximum function  tolerance     =   0.0000100
  Maximum gradient  tolerance     =   0.0010000

  Symmetry adapted optimisation

  Symmetry to be used for second derivatives

  Newton-Raphson optimiser to be used

  BFGS hessian update to be used

  Lower half triangular hessian to be used

  Start of defect optimisation :

  Cycle:      0 Defect Energy:   4.680794  Gnorm:     0.011172  CPU:    3.089
  ** Hessian calculated **
  Cycle:      1 Defect Energy:   4.054710  Gnorm:     0.009112  CPU:    8.677
  Cycle:      2 Defect Energy:   3.118173  Gnorm:     0.004881  CPU:   13.462
  Cycle:      3 Defect Energy:   2.923029  Gnorm:     0.003162  CPU:   17.406
  ** Hessian calculated **
  Cycle:      4 Defect Energy:   2.792851  Gnorm:     0.002262  CPU:   19.879
  Cycle:      5 Defect Energy:   2.723978  Gnorm:     0.001651  CPU:   20.613
  Cycle:      6 Defect Energy:   2.683625  Gnorm:     0.001191  CPU:   24.083
  Cycle:      7 Defect Energy:   2.659717  Gnorm:     0.000850  CPU:   26.651
  Cycle:      8 Defect Energy:   2.642384  Gnorm:     0.000492  CPU:   27.740
  Cycle:      9 Defect Energy:   2.635845  Gnorm:     0.000323  CPU:   28.844
  Cycle:     10 Defect Energy:   2.632793  Gnorm:     0.000209  CPU:   29.959
  Cycle:     11 Defect Energy:   2.631282  Gnorm:     0.000123  CPU:   31.054
  Cycle:     12 Defect Energy:   2.630878  Gnorm:     0.000085  CPU:   32.273
  Cycle:     13 Defect Energy:   2.630681  Gnorm:     0.000059  CPU:   33.318
  ** Hessian calculated **
  Cycle:     14 Defect Energy:   2.630600  Gnorm:     0.000045  CPU:   36.078
  Cycle:     15 Defect Energy:   2.630543  Gnorm:     0.000032  CPU:   37.271
  Cycle:     16 Defect Energy:   2.630527  Gnorm:     0.000025  CPU:   38.251
  ** Hessian calculated **
  Cycle:     17 Defect Energy:   2.630504  Gnorm:     0.000017  CPU:   40.876
  Cycle:     18 Defect Energy:   2.630492  Gnorm:     0.000012  CPU:   42.022


  **** Optimisation achieved ****


  Final defect energy  =        2.63048329
  Final defect Gnorm   =        0.00000793

  Components of defect energy : 

--------------------------------------------------------------------------------
  Region 1 - region 1                   =      3.22645389 eV
  Region 1 - region 2a (unrelaxed)      =     -0.38196891 eV
  Region 1 - 2a (relaxed - correction)  =     -0.09555298 eV
  Region 1 (Total)                      =      2.74893199 eV
  Region 2a                             =      0.04778845 eV
  Region 2b                             =     -0.16623716 eV
--------------------------------------------------------------------------------
  Total defect energy                   =      2.63048329 eV
--------------------------------------------------------------------------------

  Largest displacement in region 2 =   0.0188 Angstroms

  Final coordinates of region 1 :

--------------------------------------------------------------------------------
   No.  Atomic        x           y           z          Radius      Charge
        Label       (Angs)      (Angs)      (Angs)       (Angs)       (e) 
--------------------------------------------------------------------------------
     1  Na    c     2.214230    1.682815    0.531415    0.000000    0.670000
     2  O     c     2.214230    2.374352    2.514470    0.000000    0.489000
     3  Cl    c     4.527783   -0.011280   -0.064211    0.000000    0.615000
     4  Cl    c    -0.099322   -0.011280   -0.064211    0.000000    0.615000
     5  Na    c     4.401510    2.137553    2.484428    0.000000    0.670000
     6  Na    c     0.026950    2.137553    2.484428    0.000000    0.670000
     7  O     c     2.214230    2.189680   -2.090935    0.000000    0.489000
     8  O     c     2.214230   -2.293172    2.256877    0.000000    0.489000
     9  Na    c     2.214230    1.686134    4.529407    0.000000    0.670000
    10  Na    c     2.214230   -2.067350    0.083486    0.000000    0.670000
    11  Na    c     2.214230    0.003613   -2.248061    0.000000    0.670000
    12  Na    c     2.214230    4.504536    2.388201    0.000000    0.670000
    13  Cl    c     4.579890   -0.004598    4.576102    0.000000    0.615000
    14  Cl    c    -0.151429   -0.004598    4.576102    0.000000    0.615000
    15  Cl    c     4.525849    4.549153    0.001583    0.000000    0.615000
    16  Cl    c    -0.097388    4.549153    0.001583    0.000000    0.615000
    17  Na    c     4.403732    2.215081   -2.045973    0.000000    0.670000
    18  Na    c     0.024729    2.215081   -2.045973    0.000000    0.670000
    19  Na    c     4.359650   -1.892874    2.235613    0.000000    0.670000
    20  Na    c     0.068811   -1.892874    2.235613    0.000000    0.670000
    21  O     c     6.635165    2.226037    2.260218    0.000000    0.489000
    22  O     c    -2.206704    2.226037    2.260218    0.000000    0.489000
    23  Na    c     6.572671    2.136149    0.049050    0.000000    0.670000
    24  Na    c    -2.144210    2.136149    0.049050    0.000000    0.670000
    25  Na    c     6.764026    0.016498    2.312838    0.000000    0.670000
    26  Na    c    -2.335565    0.016498    2.312838    0.000000    0.670000
    27  O     c     2.214230   -2.209520   -2.168739    0.000000    0.489000
    28  Na    c     2.214230   -1.868180    4.402393    0.000000    0.670000
    29  Na    c     2.214230    4.373535   -1.828673    0.000000    0.670000
    30  Cl    c     4.563325    4.528677    4.517025    0.000000    0.615000
    31  Cl    c    -0.134865    4.528677    4.517025    0.000000    0.615000
    32  Na    c     4.424469   -2.218431   -2.165749    0.000000    0.670000
    33  Na    c     0.003992   -2.218431   -2.165749    0.000000    0.670000
    34  O     c     6.629853    2.219207   -2.176931    0.000000    0.489000
    35  O     c    -2.201392    2.219207   -2.176931    0.000000    0.489000
    36  Na    c     6.721230    2.284690    4.468549    0.000000    0.670000
    37  Na    c    -2.292770    2.284690    4.468549    0.000000    0.670000
    38  Na    c     6.604698    0.003312   -2.259374    0.000000    0.670000
    39  Na    c    -2.176237    0.003312   -2.259374    0.000000    0.670000
    40  O     c     6.607702   -2.191356    2.228242    0.000000    0.489000
    41  O     c    -2.179241   -2.191356    2.228242    0.000000    0.489000
    42  Na    c     6.600860   -2.140082    0.016122    0.000000    0.670000
    43  Na    c    -2.172399   -2.140082    0.016122    0.000000    0.670000
    44  Na    c     6.513065    4.435362    2.170868    0.000000    0.670000
    45  Na    c    -2.084604    4.435362    2.170868    0.000000    0.670000
    46  O     c     2.214230    2.182832    6.691699    0.000000    0.489000
    47  O     c     2.214230    6.709484    2.247858    0.000000    0.489000
    48  Na    c     2.214230    2.359606   -4.334838    0.000000    0.670000
    49  Na    c     2.214230    6.701763    0.039083    0.000000    0.670000
    50  Na    c     2.214230   -0.012859    7.029139    0.000000    0.670000
    51  Na    c     2.214230   -4.445031    2.327539    0.000000    0.670000
    52  Cl    c     4.443800   -0.021788   -4.439994    0.000000    0.615000
    53  Cl    c    -0.015339   -0.021788   -4.439994    0.000000    0.615000
    54  Cl    c     4.485085   -4.518604   -0.076465    0.000000    0.615000
    55  Cl    c    -0.056624   -4.518604   -0.076465    0.000000    0.615000
    56  Na    c     4.436922    2.214279    6.630924    0.000000    0.670000
    57  Na    c    -0.008461    2.214279    6.630924    0.000000    0.670000
    58  Na    c     4.430772    6.684400    2.231839    0.000000    0.670000
    59  Na    c    -0.002311    6.684400    2.231839    0.000000    0.670000
    60  O     c     2.214230    6.602328   -2.175446    0.000000    0.489000
    61  O     c     2.214230   -2.194647    6.643688    0.000000    0.489000
    62  O     c     6.644162   -2.215302   -2.206055    0.000000    0.489000
    63  O     c    -2.215701   -2.215302   -2.206055    0.000000    0.489000
    64  Na    c     2.214230    6.821389    4.446759    0.000000    0.670000
    65  Na    c     2.214230   -2.299308   -4.391304    0.000000    0.670000
    66  Na    c     6.600894   -2.264579    4.437768    0.000000    0.670000
    67  Na    c    -2.172433   -2.264579    4.437768    0.000000    0.670000
    68  Na    c     2.214230    4.387440    6.332529    0.000000    0.670000
    69  Na    c     2.214230   -4.417527   -2.078378    0.000000    0.670000
    70  Na    c     6.647943    4.429086   -2.115623    0.000000    0.670000
    71  Na    c    -2.219482    4.429086   -2.115623    0.000000    0.670000
    72  Cl    c     4.460228    4.442416   -4.460613    0.000000    0.615000
    73  Cl    c    -0.031767    4.442416   -4.460613    0.000000    0.615000
    74  Cl    c     8.879949    0.010805    0.013258    0.000000    0.615000
    75  Cl    c    -4.451488    0.010805    0.013258    0.000000    0.615000
    76  Na    c     4.428203   -2.206286    6.616023    0.000000    0.670000
    77  Na    c     0.000258   -2.206286    6.616023    0.000000    0.670000
    78  Na    c     8.847993    2.342048    2.183581    0.000000    0.670000
    79  Na    c    -4.419532    2.342048    2.183581    0.000000    0.670000
    80  Cl    c     4.502878   -4.518154    4.512103    0.000000    0.615000
    81  Cl    c    -0.074417   -4.518154    4.512103    0.000000    0.615000
    82  Na    c     4.427571    6.592864   -2.203059    0.000000    0.670000
    83  Na    c     0.000890    6.592864   -2.203059    0.000000    0.670000
    84  O     c     6.660111    2.222177    6.676686    0.000000    0.489000
    85  O     c    -2.231650    2.222177    6.676686    0.000000    0.489000
    86  O     c     6.648809    6.653837    2.224587    0.000000    0.489000
    87  O     c    -2.220348    6.653837    2.224587    0.000000    0.489000
    88  Na    c     6.594476    2.282229   -4.393286    0.000000    0.670000
    89  Na    c    -2.166016    2.282229   -4.393286    0.000000    0.670000
    90  Na    c     6.630314    6.694852    0.008075    0.000000    0.670000
    91  Na    c    -2.201853    6.694852    0.008075    0.000000    0.670000
    92  Na    c     6.644976   -0.001040    6.611881    0.000000    0.670000
    93  Na    c    -2.216516   -0.001040    6.611881    0.000000    0.670000
    94  Na    c     6.422354   -4.400587    2.177799    0.000000    0.670000
    95  Na    c    -1.993893   -4.400587    2.177799    0.000000    0.670000
    96  Cl    c     8.893055    4.442745    0.007739    0.000000    0.615000
    97  Cl    c    -4.464594    4.442745    0.007739    0.000000    0.615000
    98  Na    c     8.826150   -2.345413    2.212228    0.000000    0.670000
    99  Na    c    -4.397689   -2.345413    2.212228    0.000000    0.670000
   100  Cl    c     8.891983    0.013175    4.461117    0.000000    0.615000
   101  Cl    c    -4.463522    0.013175    4.461117    0.000000    0.615000
   102  Na    c     8.842606    2.196874   -2.168578    0.000000    0.670000
   103  Na    c    -4.414146    2.196874   -2.168578    0.000000    0.670000
   104  O     c     2.214230    2.214803   -6.594344    0.000000    0.489000
   105  O     c     2.214230   -6.670719    2.223662    0.000000    0.489000
   106  Na    c     2.214230    2.457569    8.872107    0.000000    0.670000
   107  Na    c     2.214230   -6.615030    0.012809    0.000000    0.670000
   108  Na    c     2.214230    0.004102   -6.488130    0.000000    0.670000
   109  Na    c     2.214230    8.898791    2.184269    0.000000    0.670000
   110  O     c     6.649685   -2.222715    6.657326    0.000000    0.489000
   111  O     c    -2.221225   -2.222715    6.657326    0.000000    0.489000
   112  Na    c     6.629558   -2.266300   -4.416238    0.000000    0.670000
   113  Na    c    -2.201097   -2.266300   -4.416238    0.000000    0.670000
   114  Na    c     6.649243    4.434536    6.698344    0.000000    0.670000
   115  Na    c    -2.220782    4.434536    6.698344    0.000000    0.670000
   116  O     c     2.214230    6.617822    6.642344    0.000000    0.489000
   117  O     c     6.648398    6.647779   -2.211394    0.000000    0.489000
   118  O     c    -2.219937    6.647779   -2.211394    0.000000    0.489000
   119  Na    c     2.214230    6.454669   -4.390285    0.000000    0.670000
   120  Na    c     6.650831    6.591052    4.440297    0.000000    0.670000
   121  Na    c    -2.222370    6.591052    4.440297    0.000000    0.670000
   122  Na    c     2.214230   -4.406902    6.396360    0.000000    0.670000
   123  Na    c     6.641253   -4.427777   -2.152339    0.000000    0.670000
   124  Na    c    -2.212793   -4.427777   -2.152339    0.000000    0.670000
   125  Cl    c     4.463792   -0.009018    8.917660    0.000000    0.615000
   126  Cl    c    -0.035332   -0.009018    8.917660    0.000000    0.615000
   127  Cl    c     4.427365    8.890610    0.008655    0.000000    0.615000
   128  Cl    c     0.001096    8.890610    0.008655    0.000000    0.615000
   129  Na    c     4.422557    2.196110   -6.591877    0.000000    0.670000
   130  Na    c     0.005904    2.196110   -6.591877    0.000000    0.670000
   131  Na    c     4.420833   -6.687506    2.212689    0.000000    0.670000
   132  Na    c     0.007628   -6.687506    2.212689    0.000000    0.670000
   133  Cl    c     8.898674    4.438290    4.451768    0.000000    0.615000
   134  Cl    c    -4.470213    4.438290    4.451768    0.000000    0.615000
   135  Na    c     8.851455   -2.200439   -2.190240    0.000000    0.670000
   136  Na    c    -4.422994   -2.200439   -2.190240    0.000000    0.670000
   137  Cl    c     4.435806   -4.436724   -4.455386    0.000000    0.615000
   138  Cl    c    -0.007345   -4.436724   -4.455386    0.000000    0.615000
   139  Na    c     4.432924    6.601397    6.647903    0.000000    0.670000
   140  Na    c    -0.004463    6.601397    6.647903    0.000000    0.670000
   141  O     c     2.214230   -2.211239   -6.621258    0.000000    0.489000
   142  O     c     2.214230   -6.637888   -2.207684    0.000000    0.489000
   143  Na    c     2.214230   -2.445796    8.852345    0.000000    0.670000
   144  Na    c     2.214230   -6.749075    4.428706    0.000000    0.670000
   145  Na    c     2.214230    4.419065   -6.706874    0.000000    0.670000
   146  Na    c     2.214230    8.829035   -2.262961    0.000000    0.670000
   147  Cl    c     4.454549    4.442156    8.908707    0.000000    0.615000
   148  Cl    c    -0.026088    4.442156    8.908707    0.000000    0.615000
   149  Cl    c     4.428356    8.896432    4.442599    0.000000    0.615000
   150  Cl    c     0.000105    8.896432    4.442599    0.000000    0.615000
   151  Na    c     4.426437   -2.197457   -6.618302    0.000000    0.670000
   152  Na    c     0.002024   -2.197457   -6.618302    0.000000    0.670000
   153  Na    c     4.430080   -6.623762   -2.204829    0.000000    0.670000
   154  Na    c    -0.001619   -6.623762   -2.204829    0.000000    0.670000
   155  Cl    c     8.890799   -4.432470   -0.008134    0.000000    0.615000
   156  Cl    c    -4.462338   -4.432470   -0.008134    0.000000    0.615000
   157  Na    c     8.856077    6.567521    2.212732    0.000000    0.670000
   158  Na    c    -4.427616    6.567521    2.212732    0.000000    0.670000
   159  Cl    c     8.876811   -0.000867   -4.431691    0.000000    0.615000
   160  Cl    c    -4.448350   -0.000867   -4.431691    0.000000    0.615000
   161  Na    c     8.866701    2.205897    6.698325    0.000000    0.670000
   162  Na    c    -4.438240    2.205897    6.698325    0.000000    0.670000
   163  O     c     6.637481    2.213795   -6.623199    0.000000    0.489000
   164  O     c    -2.209020    2.213795   -6.623199    0.000000    0.489000
   165  O     c     6.633187   -6.626369    2.215740    0.000000    0.489000
   166  O     c    -2.204726   -6.626369    2.215740    0.000000    0.489000
   167  O     c    11.064593    2.214350    2.218237    0.000000    0.489000
   168  O     c    -6.636132    2.214350    2.218237    0.000000    0.489000
   169  Na    c     6.622970    2.179540    8.874545    0.000000    0.670000
   170  Na    c    -2.194509    2.179540    8.874545    0.000000    0.670000
   171  Na    c     6.648371   -6.650406    0.001963    0.000000    0.670000
   172  Na    c    -2.219910   -6.650406    0.001963    0.000000    0.670000
   173  Na    c    11.079721    2.185939    0.004872    0.000000    0.670000
   174  Na    c    -6.651260    2.185939    0.004872    0.000000    0.670000
   175  Na    c     6.653344    0.000816   -6.568125    0.000000    0.670000
   176  Na    c    -2.224884    0.000816   -6.568125    0.000000    0.670000
   177  Na    c     6.675900    8.859243    2.258893    0.000000    0.670000
   178  Na    c    -2.247439    8.859243    2.258893    0.000000    0.670000
   179  Na    c    10.943726   -0.000881    2.234975    0.000000    0.670000
   180  Na    c    -6.515266   -0.000881    2.234975    0.000000    0.670000
   181  O     c     6.654240    6.650870    6.658575    0.000000    0.489000
   182  O     c    -2.225779    6.650870    6.658575    0.000000    0.489000
   183  Na    c     6.641036    6.583316   -4.422634    0.000000    0.670000
   184  Na    c    -2.212575    6.583316   -4.422634    0.000000    0.670000
   185  Na    c     6.638506   -4.432714    6.668650    0.000000    0.670000
   186  Na    c    -2.210045   -4.432714    6.668650    0.000000    0.670000
   187  Cl    c     8.892743   -4.428219    4.450324    0.000000    0.615000
   188  Cl    c    -4.464282   -4.428219    4.450324    0.000000    0.615000
   189  Na    c     8.856914    6.649000   -2.207810    0.000000    0.670000
   190  Na    c    -4.428453    6.649000   -2.207810    0.000000    0.670000
   191  Cl    c     8.876384    4.441029   -4.434939    0.000000    0.615000
   192  Cl    c    -4.447923    4.441029   -4.434939    0.000000    0.615000
   193  Na    c     8.856729   -2.210840    6.639182    0.000000    0.670000
   194  Na    c    -4.428268   -2.210840    6.639182    0.000000    0.670000
   195  O     c     6.641791   -2.214929   -6.636127    0.000000    0.489000
   196  O     c    -2.213330   -2.214929   -6.636127    0.000000    0.489000
   197  O     c     6.648542   -6.645932   -2.217941    0.000000    0.489000
   198  O     c    -2.220081   -6.645932   -2.217941    0.000000    0.489000
   199  O     c    11.066508    2.214041   -2.208852    0.000000    0.489000
   200  O     c    -6.638047    2.214041   -2.208852    0.000000    0.489000
   201  O     c    11.053764   -2.214699    2.217380    0.000000    0.489000
   202  O     c    -6.625304   -2.214699    2.217380    0.000000    0.489000
   203  Na    c     6.633168   -2.198708    8.863068    0.000000    0.670000
   204  Na    c    -2.204707   -2.198708    8.863068    0.000000    0.670000
   205  Na    c     6.632312   -6.602266    4.432080    0.000000    0.670000
   206  Na    c    -2.203851   -6.602266    4.432080    0.000000    0.670000
   207  Na    c    11.037766    2.217187    4.433678    0.000000    0.670000
   208  Na    c    -6.609305    2.217187    4.433678    0.000000    0.670000
   209  Na    c    11.058206   -2.189502    0.004004    0.000000    0.670000
   210  Na    c    -6.629745   -2.189502    0.004004    0.000000    0.670000
   211  Na    c     6.622608    4.425108   -6.666447    0.000000    0.670000
   212  Na    c    -2.194148    4.425108   -6.666447    0.000000    0.670000
   213  Na    c     6.627432    8.855395   -2.249927    0.000000    0.670000
   214  Na    c    -2.198971    8.855395   -2.249927    0.000000    0.670000
   215  Na    c    11.066091    0.001128   -2.237323    0.000000    0.670000
   216  Na    c    -6.637630    0.001128   -2.237323    0.000000    0.670000
   217  Na    c    11.133232    4.425676    2.209862    0.000000    0.670000
   218  Na    c    -6.704771    4.425676    2.209862    0.000000    0.670000
   219  O     c     2.214230    6.630875   -6.621587    0.000000    0.489000
   220  O     c     2.214230   -6.630865    6.636238    0.000000    0.489000
   221  Na    c     2.214230    6.492530    8.849958    0.000000    0.670000
   222  Na    c     2.214230   -6.586621   -4.419770    0.000000    0.670000
   223  Na    c     2.214230    8.841040    6.749266    0.000000    0.670000
   224  Na    c     2.214230   -4.424218   -6.672673    0.000000    0.670000
   225  Cl    c     4.439584    8.880534   -4.429033    0.000000    0.615000
   226  Cl    c    -0.011123    8.880534   -4.429033    0.000000    0.615000
   227  Cl    c     4.441813   -4.436158    8.900665    0.000000    0.615000
   228  Cl    c    -0.013352   -4.436158    8.900665    0.000000    0.615000
   229  Na    c     4.426460    6.645915   -6.615181    0.000000    0.670000
   230  Na    c     0.002001    6.645915   -6.615181    0.000000    0.670000
   231  Na    c     4.429563   -6.622743    6.642837    0.000000    0.670000
   232  Na    c    -0.001102   -6.622743    6.642837    0.000000    0.670000
   233  O     c    11.071232   -2.211182   -2.211707    0.000000    0.489000
   234  O     c    -6.642771   -2.211182   -2.211707    0.000000    0.489000
   235  Na    c    11.051378   -2.219034    4.429811    0.000000    0.670000
   236  Na    c    -6.622918   -2.219034    4.429811    0.000000    0.670000
   237  Na    c    11.050952    4.427630   -2.193238    0.000000    0.670000
   238  Na    c    -6.622491    4.427630   -2.193238    0.000000    0.670000
   239  O     c     2.214230    2.225579   11.075304    0.000000    0.489000
   240  O     c     2.214230   11.090077    2.213360    0.000000    0.489000
   241  Na    c     2.214230    2.156739   -8.833020    0.000000    0.670000
   242  Na    c     2.214230   11.067657   -0.006922    0.000000    0.670000
   243  Na    c     2.214230   -0.001555   10.966157    0.000000    0.670000
   244  Na    c     2.214230   -8.872859    2.179236    0.000000    0.670000
   245  Cl    c     4.429234    0.002026   -8.883439    0.000000    0.615000
   246  Cl    c    -0.000773    0.002026   -8.883439    0.000000    0.615000
   247  Cl    c     4.430667   -8.886576    0.000706    0.000000    0.615000
   248  Cl    c    -0.002206   -8.886576    0.000706    0.000000    0.615000
   249  Cl    c     8.878725    0.004235    8.881916    0.000000    0.615000
   250  Cl    c    -4.450264    0.004235    8.881916    0.000000    0.615000
   251  Cl    c     8.871746    8.874965   -0.001958    0.000000    0.615000
   252  Cl    c    -4.443285    8.874965   -0.001958    0.000000    0.615000
   253  Na    c     4.427721    2.187741   11.073335    0.000000    0.670000
   254  Na    c     0.000739    2.187741   11.073335    0.000000    0.670000
   255  Na    c     4.431680   11.073271    2.211579    0.000000    0.670000
   256  Na    c    -0.003219   11.073271    2.211579    0.000000    0.670000
   257  Na    c     8.849941    2.221039   -6.621244    0.000000    0.670000
   258  Na    c    -4.421480    2.221039   -6.621244    0.000000    0.670000
   259  Na    c     8.845927   -6.548626    2.229956    0.000000    0.670000
   260  Na    c    -4.417466   -6.548626    2.229956    0.000000    0.670000
   261  Cl    c     8.873969   -4.436223   -4.445617    0.000000    0.615000
   262  Cl    c    -4.445508   -4.436223   -4.445617    0.000000    0.615000
   263  Na    c     8.862704    6.649285    6.645971    0.000000    0.670000
   264  Na    c    -4.434243    6.649285    6.645971    0.000000    0.670000
   265  O     c     2.214230   11.063665   -2.219283    0.000000    0.489000
   266  O     c     2.214230   -2.227179   11.065717    0.000000    0.489000
   267  O     c     6.643003    6.640452   -6.641982    0.000000    0.489000
   268  O     c    -2.214543    6.640452   -6.641982    0.000000    0.489000
   269  O     c     6.649157   -6.648131    6.652739    0.000000    0.489000
   270  O     c    -2.220696   -6.648131    6.652739    0.000000    0.489000
   271  O     c    11.077945    2.214644    6.650108    0.000000    0.489000
   272  O     c    -6.649484    2.214644    6.650108    0.000000    0.489000
   273  O     c    11.074445    6.638689    2.215902    0.000000    0.489000
   274  O     c    -6.645985    6.638689    2.215902    0.000000    0.489000
   275  Na    c     2.214230   11.044182    4.434595    0.000000    0.670000
   276  Na    c     2.214230   -2.162464   -8.842251    0.000000    0.670000
   277  Na    c     6.651733    6.666408    8.862123    0.000000    0.670000
   278  Na    c    -2.223273    6.666408    8.862123    0.000000    0.670000
   279  Na    c     6.640169   -6.615858   -4.428686    0.000000    0.670000
   280  Na    c    -2.211708   -6.615858   -4.428686    0.000000    0.670000
   281  Na    c    11.048422    2.230813   -4.422969    0.000000    0.670000
   282  Na    c    -6.619961    2.230813   -4.422969    0.000000    0.670000
   283  Na    c    11.062947    6.648077    0.002216    0.000000    0.670000
   284  Na    c    -6.634486    6.648077    0.002216    0.000000    0.670000
   285  Na    c     2.214230    4.433651   11.172937    0.000000    0.670000
   286  Na    c     2.214230   -8.849492   -2.213239    0.000000    0.670000
   287  Na    c     6.633739    8.856474    6.623363    0.000000    0.670000
   288  Na    c    -2.205278    8.856474    6.623363    0.000000    0.670000
   289  Na    c     6.631467   -4.428133   -6.661469    0.000000    0.670000
   290  Na    c    -2.203006   -4.428133   -6.661469    0.000000    0.670000
   291  Na    c    11.070766   -0.000442    6.636447    0.000000    0.670000
   292  Na    c    -6.642305   -0.000442    6.636447    0.000000    0.670000
   293  Na    c    11.124351   -4.425707    2.205309    0.000000    0.670000
   294  Na    c    -6.695890   -4.425707    2.205309    0.000000    0.670000
   295  Cl    c     4.429162    4.430663   -8.867362    0.000000    0.615000
   296  Cl    c    -0.000701    4.430663   -8.867362    0.000000    0.615000
   297  Cl    c     4.429535   -8.885260    4.431964    0.000000    0.615000
   298  Cl    c    -0.001074   -8.885260    4.431964    0.000000    0.615000
   299  Cl    c     8.881753    4.439969    8.875642    0.000000    0.615000
   300  Cl    c    -4.453292    4.439969    8.875642    0.000000    0.615000
   301  Cl    c     8.874765    8.880787    4.438350    0.000000    0.615000
   302  Cl    c    -4.446304    8.880787    4.438350    0.000000    0.615000
   303  Na    c     4.427480   11.055953   -2.206964    0.000000    0.670000
   304  Na    c     0.000980   11.055953   -2.206964    0.000000    0.670000
   305  Na    c     4.428745   -2.196343   11.060057    0.000000    0.670000
   306  Na    c    -0.000285   -2.196343   11.060057    0.000000    0.670000
   307  Na    c     8.853808   -2.218403   -6.636433    0.000000    0.670000
   308  Na    c    -4.425347   -2.218403   -6.636433    0.000000    0.670000
   309  Na    c     8.856175   -6.641306   -2.224560    0.000000    0.670000
   310  Na    c    -4.427714   -6.641306   -2.224560    0.000000    0.670000
   311  O     c     2.214230   -6.641404   -6.642844    0.000000    0.489000
   312  Na    c     2.214230   -6.547040    8.846990    0.000000    0.670000
   313  Na    c     2.214230    8.845554   -6.566096    0.000000    0.670000
   314  O     c     6.644783    2.210570   11.082807    0.000000    0.489000
   315  O     c    -2.216322    2.210570   11.082807    0.000000    0.489000
   316  O     c     6.646927   11.074817    2.217674    0.000000    0.489000
   317  O     c    -2.218466   11.074817    2.217674    0.000000    0.489000
   318  O     c    11.073152    6.644792   -2.212619    0.000000    0.489000
   319  O     c    -6.644691    6.644792   -2.212619    0.000000    0.489000
   320  O     c    11.074678   -2.213814    6.645419    0.000000    0.489000
   321  O     c    -6.646217   -2.213814    6.645419    0.000000    0.489000
   322  Na    c     6.626742    2.186011   -8.844188    0.000000    0.670000
   323  Na    c    -2.198282    2.186011   -8.844188    0.000000    0.670000
   324  Na    c     6.640736   11.041831    0.000715    0.000000    0.670000
   325  Na    c    -2.212275   11.041831    0.000715    0.000000    0.670000
   326  Na    c    11.061252    6.638690    4.429431    0.000000    0.670000
   327  Na    c    -6.632791    6.638690    4.429431    0.000000    0.670000
[...]
    251 y          6.642691      6.711219     0.068527    Cartesian    1.03
    251 z          2.214230      2.248499     0.034269    Cartesian    1.55
    252 x          4.428461      4.444500     0.016039    Cartesian    0.36
    252 y          0.000000     -0.022670    -0.022670    Cartesian    0.00
    252 z         -4.428461     -4.442048    -0.013588    Cartesian    0.31
    253 x          4.428461      4.488122     0.059661    Cartesian    1.35
    253 y         -4.428461     -4.522195    -0.093735    Cartesian    2.12
    253 z          0.000000     -0.079809    -0.079809    Cartesian    0.00
    254 x          2.214230      2.214230     0.000000    Cartesian    0.00
    254 y          6.642691      6.603400    -0.039291    Cartesian   -0.59
    254 z         -2.214230     -2.174376     0.039855    Cartesian   -1.80
    255 x          2.214230      2.214230     0.000000    Cartesian    0.00
    255 y         -2.214230     -2.194169     0.020062    Cartesian   -0.91
    255 z          6.642691      6.646363     0.003672    Cartesian    0.06
    256 x          6.642691      6.644294     0.001603    Cartesian    0.02
    256 y         -2.214230     -2.215453    -0.001223    Cartesian    0.06
    256 z         -2.214230     -2.206433     0.007797    Cartesian   -0.35
    257 x          4.428461      4.461082     0.032622    Cartesian    0.74
    257 y          4.428461      4.443433     0.014972    Cartesian    0.34
    257 z         -4.428461     -4.462949    -0.034489    Cartesian    0.78
    258 x          8.856922      8.881471     0.024549    Cartesian    0.28
    258 y          0.000000      0.011162     0.011162    Cartesian    0.00
    258 z          0.000000      0.013477     0.013477    Cartesian    0.00
    259 x          4.428461      4.505688     0.077227    Cartesian    1.74
    259 y         -4.428461     -4.521486    -0.093025    Cartesian    2.10
    259 z          4.428461      4.515490     0.087029    Cartesian    1.97
    260 x          6.642691      6.661003     0.018311    Cartesian    0.28
    260 y          2.214230      2.222767     0.008537    Cartesian    0.39
    260 z          6.642691      6.676970     0.034278    Cartesian    0.52
    261 x          6.642691      6.648597     0.005906    Cartesian    0.09
    261 y          6.642691      6.654349     0.011657    Cartesian    0.18
    261 z          2.214230      2.224465     0.010235    Cartesian    0.46
    262 x          8.856922      8.894482     0.037560    Cartesian    0.42
    262 y          4.428461      4.443009     0.014548    Cartesian    0.33
    262 z          0.000000      0.007964     0.007964    Cartesian    0.00
    263 x          8.856922      8.893207     0.036285    Cartesian    0.41
    263 y          0.000000      0.013683     0.013683    Cartesian    0.00
    263 z          4.428461      4.461174     0.032713    Cartesian    0.74
    264 x          2.214230      2.214230     0.000000    Cartesian    0.00
    264 y          2.214230      2.215308     0.001078    Cartesian    0.05
    264 z         -6.642691     -6.595514     0.047177    Cartesian   -0.71
    265 x          2.214230      2.214230     0.000000    Cartesian    0.00
    265 y         -6.642691     -6.672656    -0.029965    Cartesian    0.45
    265 z          2.214230      2.224126     0.009895    Cartesian    0.45
    266 x          6.642691      6.650001     0.007309    Cartesian    0.11
    266 y         -2.214230     -2.223280    -0.009049    Cartesian    0.41
    266 z          6.642691      6.657580     0.014889    Cartesian    0.22
    267 x          2.214230      2.214230     0.000000    Cartesian    0.00
    267 y          6.642691      6.619500    -0.023191    Cartesian   -0.35
    267 z          6.642691      6.641146    -0.001546    Cartesian   -0.02
    268 x          6.642691      6.648838     0.006147    Cartesian    0.09
    268 y          6.642691      6.648070     0.005378    Cartesian    0.08
    268 z         -2.214230     -2.211432     0.002799    Cartesian   -0.13
    269 x          4.428461      4.463408     0.034947    Cartesian    0.79
    269 y          0.000000     -0.009152    -0.009152    Cartesian    0.00
    269 z          8.856922      8.918658     0.061736    Cartesian    0.70
    270 x          4.428461      4.427142    -0.001319    Cartesian   -0.03
    270 y          8.856922      8.891524     0.034602    Cartesian    0.39
    270 z          0.000000      0.009176     0.009176    Cartesian    0.00
    271 x          8.856922      8.899768     0.042846    Cartesian    0.48
    271 y          4.428461      4.438207     0.009746    Cartesian    0.22
    271 z          4.428461      4.452040     0.023579    Cartesian    0.53
    272 x          4.428461      4.436109     0.007648    Cartesian    0.17
    272 y         -4.428461     -4.436937    -0.008476    Cartesian    0.19
    272 z         -4.428461     -4.456871    -0.028410    Cartesian    0.64
    273 x          2.214230      2.214230     0.000000    Cartesian    0.00
    273 y         -2.214230     -2.211619     0.002611    Cartesian   -0.12
    273 z         -6.642691     -6.621294     0.021398    Cartesian   -0.32
    274 x          2.214230      2.214230     0.000000    Cartesian    0.00
    274 y         -6.642691     -6.637988     0.004703    Cartesian   -0.07
    274 z         -2.214230     -2.207384     0.006846    Cartesian   -0.31
    275 x          4.428461      4.454440     0.025979    Cartesian    0.59
    275 y          4.428461      4.442499     0.014038    Cartesian    0.32
    275 z          8.856922      8.910410     0.053488    Cartesian    0.60
    276 x          4.428461      4.427780    -0.000681    Cartesian   -0.02
    276 y          8.856922      8.897260     0.040338    Cartesian    0.46
    276 z          4.428461      4.442592     0.014131    Cartesian    0.32
    277 x          8.856922      8.892505     0.035584    Cartesian    0.40
    277 y         -4.428461     -4.432761    -0.004301    Cartesian    0.10
    277 z          0.000000     -0.008448    -0.008448    Cartesian    0.00
    278 x          8.856922      8.877919     0.020997    Cartesian    0.24
    278 y          0.000000     -0.001058    -0.001058    Cartesian    0.00
    278 z         -4.428461     -4.432365    -0.003904    Cartesian    0.09
    279 x          6.642691      6.637352    -0.005339    Cartesian   -0.08
    279 y          2.214230      2.214066    -0.000164    Cartesian   -0.01
    279 z         -6.642691     -6.623484     0.019207    Cartesian   -0.29
    280 x          6.642691      6.632313    -0.010378    Cartesian   -0.16
    280 y         -6.642691     -6.627158     0.015533    Cartesian   -0.23
    280 z          2.214230      2.215534     0.001304    Cartesian    0.06
    281 x         11.071152     11.064572    -0.006580    Cartesian   -0.06
    281 y          2.214230      2.214980     0.000750    Cartesian    0.03
    281 z          2.214230      2.218030     0.003800    Cartesian    0.17
    282 x          6.642691      6.654763     0.012071    Cartesian    0.18
    282 y          6.642691      6.650906     0.008215    Cartesian    0.12
    282 z          6.642691      6.659311     0.016620    Cartesian    0.25
    283 x          8.856922      8.894385     0.037464    Cartesian    0.42
    283 y         -4.428461     -4.428160     0.000301    Cartesian   -0.01
    283 z          4.428461      4.450766     0.022306    Cartesian    0.50
    284 x          8.856922      8.877383     0.020461    Cartesian    0.23
    284 y          4.428461      4.441684     0.013223    Cartesian    0.30
    284 z         -4.428461     -4.435716    -0.007255    Cartesian    0.16
    285 x          6.642691      6.641870    -0.000821    Cartesian   -0.01
    285 y         -2.214230     -2.215180    -0.000949    Cartesian    0.04
    285 z         -6.642691     -6.636152     0.006540    Cartesian   -0.10
    286 x          6.642691      6.648961     0.006269    Cartesian    0.09
    286 y         -6.642691     -6.646182    -0.003490    Cartesian    0.05
    286 z         -2.214230     -2.218023    -0.003792    Cartesian    0.17
    287 x         11.071152     11.066945    -0.004207    Cartesian   -0.04
    287 y          2.214230      2.213869    -0.000362    Cartesian   -0.02
    287 z         -2.214230     -2.208730     0.005501    Cartesian   -0.25
    288 x         11.071152     11.054141    -0.017011    Cartesian   -0.15
    288 y         -2.214230     -2.215262    -0.001032    Cartesian    0.05
    288 z          2.214230      2.217441     0.003211    Cartesian    0.15
    289 x          2.214230      2.214230     0.000000    Cartesian    0.00
    289 y          6.642691      6.630235    -0.012456    Cartesian   -0.19
    289 z         -6.642691     -6.622456     0.020235    Cartesian   -0.30
    290 x          2.214230      2.214230     0.000000    Cartesian    0.00
    290 y         -6.642691     -6.631948     0.010744    Cartesian   -0.16
    290 z          6.642691      6.635261    -0.007430    Cartesian   -0.11
    291 x          4.428461      4.440102     0.011641    Cartesian    0.26
    291 y          8.856922      8.882049     0.025128    Cartesian    0.28
    291 z         -4.428461     -4.429360    -0.000899    Cartesian    0.02
    292 x          4.428461      4.441405     0.012944    Cartesian    0.29
    292 y         -4.428461     -4.435941    -0.007480    Cartesian    0.17
    292 z          8.856922      8.902239     0.045317    Cartesian    0.51
    293 x         11.071152     11.071297     0.000145    Cartesian    0.00
    293 y         -2.214230     -2.210991     0.003239    Cartesian   -0.15
    293 z         -2.214230     -2.211784     0.002447    Cartesian   -0.11
    294 x          2.214230      2.214230     0.000000    Cartesian    0.00
    294 y          2.214230      2.227529     0.013298    Cartesian    0.60
    294 z         11.071152     11.075658     0.004506    Cartesian    0.04
    295 x          2.214230      2.214230     0.000000    Cartesian    0.00
    295 y         11.071152     11.089272     0.018119    Cartesian    0.16
    295 z          2.214230      2.213075    -0.001155    Cartesian   -0.05
    296 x          4.428461      4.429320     0.000859    Cartesian    0.02
    296 y          0.000000      0.002036     0.002036    Cartesian    0.00
    296 z         -8.856922     -8.885114    -0.028192    Cartesian    0.32
    297 x          4.428461      4.430522     0.002061    Cartesian    0.05
    297 y         -8.856922     -8.887489    -0.030568    Cartesian    0.35
    297 z          0.000000      0.000916     0.000916    Cartesian    0.00
    298 x          8.856922      8.879387     0.022465    Cartesian    0.25
    298 y          0.000000      0.004669     0.004669    Cartesian    0.00
    298 z          8.856922      8.882556     0.025634    Cartesian    0.29
    299 x          8.856922      8.872324     0.015403    Cartesian    0.17
    299 y          8.856922      8.875637     0.018715    Cartesian    0.21
    299 z          0.000000     -0.002068    -0.002068    Cartesian    0.00
    300 x          8.856922      8.874661     0.017739    Cartesian    0.20
    300 y         -4.428461     -4.436443    -0.007982    Cartesian    0.18
    300 z         -4.428461     -4.446397    -0.017936    Cartesian    0.41
    301 x          2.214230      2.214230     0.000000    Cartesian    0.00
    301 y         11.071152     11.064405    -0.006747    Cartesian   -0.06
    301 z         -2.214230     -2.219588    -0.005357    Cartesian    0.24
    302 x          2.214230      2.214230     0.000000    Cartesian    0.00
    302 y         -2.214230     -2.228993    -0.014762    Cartesian    0.67
    302 z         11.071152     11.065839    -0.005313    Cartesian   -0.05
    303 x          6.642691      6.643142     0.000450    Cartesian    0.01
    303 y          6.642691      6.640335    -0.002356    Cartesian   -0.04
    303 z         -6.642691     -6.642090     0.000601    Cartesian   -0.01
    304 x          6.642691      6.649562     0.006870    Cartesian    0.10
    304 y         -6.642691     -6.648024    -0.005333    Cartesian    0.08
    304 z          6.642691      6.653400     0.010709    Cartesian    0.16
    305 x         11.071152     11.077860     0.006708    Cartesian    0.06
    305 y          2.214230      2.214605     0.000375    Cartesian    0.02
    305 z          6.642691      6.650578     0.007886    Cartesian    0.12
    306 x         11.071152     11.074962     0.003809    Cartesian    0.03
    306 y          6.642691      6.638380    -0.004311    Cartesian   -0.06
    306 z          2.214230      2.215855     0.001624    Cartesian    0.07
    307 x          4.428461      4.429361     0.000900    Cartesian    0.02
    307 y          4.428461      4.431018     0.002557    Cartesian    0.06
    307 z         -8.856922     -8.867633    -0.010711    Cartesian    0.12
    308 x          4.428461      4.429208     0.000747    Cartesian    0.02
    308 y         -8.856922     -8.885775    -0.028853    Cartesian    0.33
    308 z          4.428461      4.431816     0.003355    Cartesian    0.08
    309 x          8.856922      8.882459     0.025538    Cartesian    0.29
    309 y          4.428461      4.440276     0.011815    Cartesian    0.27
    309 z          8.856922      8.875847     0.018925    Cartesian    0.21
    310 x          8.856922      8.875295     0.018374    Cartesian    0.21
    310 y          8.856922      8.881825     0.024903    Cartesian    0.28
    310 z          4.428461      4.438505     0.010044    Cartesian    0.23
    311 x          2.214230      2.214230     0.000000    Cartesian    0.00
    311 y         -6.642691     -6.641253     0.001439    Cartesian   -0.02
    311 z         -6.642691     -6.643397    -0.000706    Cartesian    0.01
    312 x          6.642691      6.644850     0.002159    Cartesian    0.03
    312 y          2.214230      2.210194    -0.004036    Cartesian   -0.18
    312 z         11.071152     11.082875     0.011723    Cartesian    0.11
    313 x          6.642691      6.647282     0.004590    Cartesian    0.07
    313 y         11.071152     11.074953     0.003801    Cartesian    0.03
    313 z          2.214230      2.218103     0.003872    Cartesian    0.17
    314 x         11.071152     11.073132     0.001980    Cartesian    0.02
    314 y          6.642691      6.645043     0.002351    Cartesian    0.04
    314 z         -2.214230     -2.212595     0.001636    Cartesian   -0.07
    315 x         11.071152     11.074828     0.003676    Cartesian    0.03
    315 y         -2.214230     -2.213814     0.000416    Cartesian   -0.02
    315 z          6.642691      6.645512     0.002821    Cartesian    0.04
    316 x          4.428461      4.435772     0.007311    Cartesian    0.17
    316 y          8.856922      8.878299     0.021378    Cartesian    0.24
    316 z          8.856922      8.873321     0.016399    Cartesian    0.19
    317 x         13.285383     13.314072     0.028690    Cartesian    0.22
    317 y          0.000000      0.001046     0.001046    Cartesian    0.00
    317 z          0.000000     -0.000666    -0.000666    Cartesian    0.00
    318 x          2.214230      2.214230     0.000000    Cartesian    0.00
    318 y          6.642691      6.638423    -0.004268    Cartesian   -0.06
    318 z         11.071152     11.074947     0.003795    Cartesian    0.03
    319 x          2.214230      2.214230     0.000000    Cartesian    0.00
    319 y         11.071152     11.065513    -0.005639    Cartesian   -0.05
    319 z          6.642691      6.652079     0.009388    Cartesian    0.14
    320 x          6.642691      6.643981     0.001290    Cartesian    0.02
    320 y         11.071152     11.073034     0.001882    Cartesian    0.02
    320 z         -2.214230     -2.216648    -0.002418    Cartesian    0.11
    321 x          6.642691      6.646898     0.004207    Cartesian    0.06
    321 y         -2.214230     -2.215439    -0.001209    Cartesian    0.05
    321 z         11.071152     11.080094     0.008941    Cartesian    0.08
    322 x          4.428461      4.432974     0.004513    Cartesian    0.10
    322 y         -4.428461     -4.438016    -0.009555    Cartesian    0.22
    322 z         -8.856922     -8.873743    -0.016821    Cartesian    0.19
    323 x          4.428461      4.438326     0.009865    Cartesian    0.22
    323 y         -8.856922     -8.881185    -0.024264    Cartesian    0.27
    323 z         -4.428461     -4.444319    -0.015858    Cartesian    0.36
    324 x          8.856922      8.872084     0.015162    Cartesian    0.17
    324 y          8.856922      8.876633     0.019712    Cartesian    0.22
    324 z         -4.428461     -4.438410    -0.009949    Cartesian    0.22
    325 x          8.856922      8.878923     0.022002    Cartesian    0.25
    325 y         -4.428461     -4.440342    -0.011881    Cartesian    0.27
    325 z          8.856922      8.880514     0.023592    Cartesian    0.27
    326 x         13.285383     13.319423     0.034040    Cartesian    0.26
    326 y          0.000000     -0.002640    -0.002640    Cartesian    0.00
    326 z          4.428461      4.432575     0.004114    Cartesian    0.09
    327 x         13.285383     13.305583     0.020200    Cartesian    0.15
    327 y          4.428461      4.436672     0.008211    Cartesian    0.19
    327 z          0.000000      0.000754     0.000754    Cartesian    0.00
    328 x          6.642691      6.644332     0.001640    Cartesian    0.02
    328 y         -6.642691     -6.644424    -0.001732    Cartesian    0.03
    328 z         -6.642691     -6.647398    -0.004707    Cartesian    0.07
    329 x         11.071152     11.071527     0.000375    Cartesian    0.00
    329 y          2.214230      2.217079     0.002848    Cartesian    0.13
    329 z         -6.642691     -6.642610     0.000081    Cartesian   -0.00
    330 x         11.071152     11.073962     0.002809    Cartesian    0.03
    330 y         -6.642691     -6.640179     0.002512    Cartesian   -0.04
    330 z          2.214230      2.216000     0.001769    Cartesian    0.08
    331 x         11.071152     11.077406     0.006254    Cartesian    0.06
    331 y          6.642691      6.646828     0.004137    Cartesian    0.06
    331 z          6.642691      6.645921     0.003230    Cartesian    0.05
--------------------------------------------------------------------------------


  Time to end of optimisation  =       43.0064 seconds


  Peak dynamic memory used =     101.61 MB 


  Timing analysis for GULP :

--------------------------------------------------------------------------------
  Task / Subroutine                                          Time (Seconds)
--------------------------------------------------------------------------------
  Calculation of reciprocal space energy and derivatives          0.0008
  Calculation of reciprocal space energy using symmetry           0.0014
  Calculation of real space energy and derivatives                0.0043
  Calculation of real space energy using symmetry                 0.0133
  Calculation for region 1 energy and derivatives (2-b)          25.3055
  Calculation for region 2a energy                               15.5365
  Calculation for region 2b energy                                0.0068
  Calculation and manipulation of Hessian matrix                  0.1105
  Calculation of matrix inversion                                 1.7986
  Symmetry generation of equivalent positions                     0.0053
--------------------------------------------------------------------------------
  Total CPU time                                                 43.0065
--------------------------------------------------------------------------------


  Dump file written as Na3OCl.grs


  Job Finished at 16:35.11  5th July       2021                               

