********************************************************************************
*                       GENERAL UTILITY LATTICE PROGRAM                        *
*                                 Julian Gale                                  *
*                       Curtin Institute for Computation                       *
*                    School of Molecular and Life Sciences                     *
*                    Curtin University, Western Australia                      *
********************************************************************************
* Version = 5.2.0 * Last modified =  10th September 2020                       *
********************************************************************************
*  optimise     - perform optimisation run                                     *
*  conp         - constant pressure calculation                                *
*  property     - calculate properties for final geometry                      *
*  defect       - perform defect calculation after bulk run                    *
*  compare      - compare initial and final structures                         *
********************************************************************************

  Job Started  at 16:34.58  5th July       2021                               

  Number of CPUs =     1


  Total number of configurations input =      1

********************************************************************************
*  Input for Configuration =   1                                               *
********************************************************************************

  Formula = ClONa3                                                      

  Number of irreducible atoms/shells =       5


  Total number atoms/shells =       7

  Dimensionality = 3               :  Bulk   


  Symmetry :

  Crystal family                   :  Cubic       
  Crystal class  (Groth - 1921)    :  Cubic Hexakisoctahedral              

  Space group (centrosymmetric)    :  P M 3 M         

  Patterson group                  :  P m -3 m 

  Cartesian lattice vectors (Angstroms) :

        4.504000    0.000000    0.000000
        0.000000    4.504000    0.000000
        0.000000    0.000000    4.504000

  Cell parameters (Angstroms/Degrees):

  a =       4.5040    alpha =  90.0000
  b =       4.5040    beta  =  90.0000
  c =       4.5040    gamma =  90.0000

  Initial cell volume =          91.368216 Angs**3

  Temperature of configuration =   0.00     K 

  Pressure of configuration =         0.000 GPa 

  Fractional coordinates of asymmetric unit :

--------------------------------------------------------------------------------
   No.  Atomic       x           y          z         Charge      Occupancy
        Label      (Frac)      (Frac)     (Frac)        (e)         (Frac)  
--------------------------------------------------------------------------------
      1 Cl    c    0.000000    0.000000    0.000000     0.61500    1.000000    
      2 O     c    0.500000    0.500000    0.500000     0.48900    1.000000    
      3 Na    c    0.500000    0.500000    0.000000     0.67000    1.000000    
      4 Cl    s    0.000000    0.000000    0.000000    -1.28500    1.000000    
      5 O     s    0.500000    0.500000    0.500000    -1.82900    1.000000    
--------------------------------------------------------------------------------


  Constraints : 

--------------------------------------------------------------------------------
  Constraint no.      Unconstrained     Constrained    Coefficient    Offset
                         Variable         Variable
--------------------------------------------------------------------------------
           1              Strain 1        Strain 2       1.00000      0.0000
           2              Strain 1        Strain 3       1.00000      0.0000
--------------------------------------------------------------------------------


********************************************************************************
*  General input information                                                   *
********************************************************************************

  Species output for all configurations : 

--------------------------------------------------------------------------------
  Species    Type    Atomic    Atomic    Charge       Radii (Angs)     Library
                     Number     Mass       (e)     Cova   Ionic  VDW   Symbol
--------------------------------------------------------------------------------
    Na       Core       11      22.99   0.670000   0.970  0.000  2.300          
    O        Core        8      16.00   0.489000   0.730  0.000  1.360          
    O        Shell       8       0.00  -1.829000   0.730  0.000  1.360          
    Cl       Core       17      35.45   0.615000   0.990  0.000  1.650          
    Cl       Shell      17       0.00  -1.285000   0.990  0.000  1.650          
--------------------------------------------------------------------------------


  Lattice summation method               =    Ewald          (3-D)
                                         =    Parry          (2-D)
                                         =    Saunders et al (1-D)
  Accuracy factor for lattice sums       =   12.000


  Analytic derivatives to be used

  Time limit = Infinity

  Maximum range for interatomic potentials =    100000.000000 Angstroms

  General interatomic potentials :

--------------------------------------------------------------------------------
Atom  Types   Potential      Parameter       Value         Units   Cutoffs(Ang)
  1     2                                                            Min /  Max 
--------------------------------------------------------------------------------
O    c O    s Spring (c-s)  Spring k 2       34.450000    eV*Ang^-2 0.000  0.800
                            Spring k 4       0.0000000    eV*Ang^-4 
--------------------------------------------------------------------------------
Cl   c Cl   s Spring (c-s)  Spring k 2       28.250000    eV*Ang^-2 0.000  0.800
                            Spring k 4       0.0000000    eV*Ang^-4 
--------------------------------------------------------------------------------
Na   c Na   c Buckingham    Buckingham A     996.28210    eV        0.000 12.000
                            Buckingham rho  0.28830000    Ang       
                            Buckingham C     0.0000000    eV*Ang^6  
--------------------------------------------------------------------------------
Na   c O    s Buckingham    Buckingham A     12439.222    eV        0.000 12.000
                            Buckingham rho  0.20150000    Ang       
                            Buckingham C     0.0000000    eV*Ang^6  
--------------------------------------------------------------------------------
Na   c Cl   s Buckingham    Buckingham A     20907.738    eV        0.000 12.000
                            Buckingham rho  0.21660000    Ang       
                            Buckingham C     0.0000000    eV*Ang^6  
--------------------------------------------------------------------------------
O    s O    s Buckingham    Buckingham A     35546.853    eV        0.000 12.000
                            Buckingham rho  0.12056000    Ang       
                            Buckingham C     13.190000    eV*Ang^6  
--------------------------------------------------------------------------------
O    s Cl   s Buckingham    Buckingham A     47777.071    eV        0.000 12.000
                            Buckingham rho  0.24370000    Ang       
                            Buckingham C     62.200000    eV*Ang^6  
--------------------------------------------------------------------------------
Cl   s Cl   s Buckingham    Buckingham A     35155.254    eV        0.000 12.000
                            Buckingham rho  0.21360000    Ang       
                            Buckingham C     14.530000    eV*Ang^6  
--------------------------------------------------------------------------------

********************************************************************************
*  Output for configuration   1                                                *
********************************************************************************


  Components of energy : 

--------------------------------------------------------------------------------
  Interatomic potentials     =           1.21745275 eV    
  Monopole - monopole (real) =          -4.50527050 eV    
  Monopole - monopole (recip)=         -13.25862634 eV    
  Monopole - monopole (total)=         -17.76389683 eV    
--------------------------------------------------------------------------------
  Total lattice energy       =         -16.54644409 eV    
--------------------------------------------------------------------------------
  Total lattice energy       =           -1596.4789 kJ/(mole unit cells)
--------------------------------------------------------------------------------


  Number of variables =        1

  Maximum number of calculations  =          1000
  Maximum Hessian update interval =            10
  Maximum step size               =   1.000000000
  Maximum parameter tolerance     =   0.000010000
  Maximum function  tolerance     =   0.000010000
  Maximum gradient  tolerance     =   0.001000000
  Maximum gradient  component     =   0.010000000

  Symmetry constrained optimisation

  Symmetry used for second derivatives

  Cell parameters to be optimised using strains

  Newton-Raphson optimiser to be used

  BFGS hessian update to be used

  Lower half triangular hessian to be used

  Start of bulk optimisation :

  Cycle:      0 Energy:       -16.546444  Gnorm:      2.744113  CPU:    0.016
  ** Hessian calculated **
  Cycle:      1 Energy:       -16.570356  Gnorm:      0.030142  CPU:    0.021
  Cycle:      2 Energy:       -16.570358  Gnorm:      0.003103  CPU:    0.025


  **** Optimisation achieved ****


  Final energy =     -16.57035847 eV
  Final Gnorm  =       0.00000012

  Components of energy : 

--------------------------------------------------------------------------------
  Interatomic potentials     =           1.49654868 eV    
  Monopole - monopole (real) =          -4.58211982 eV    
  Monopole - monopole (recip)=         -13.48478733 eV    
  Monopole - monopole (total)=         -18.06690714 eV    
--------------------------------------------------------------------------------
  Total lattice energy       =         -16.57035847 eV    
--------------------------------------------------------------------------------
  Total lattice energy       =           -1598.7863 kJ/(mole unit cells)
--------------------------------------------------------------------------------

  Final asymmetric unit coordinates :

--------------------------------------------------------------------------------
   No.  Atomic        x           y           z         Radius
        Label       (Frac)      (Frac)      (Frac)       (Angs) 
--------------------------------------------------------------------------------
     1  Cl    c     0.000000    0.000000    0.000000    0.000000
     2  O     c     0.500000    0.500000    0.500000    0.000000
     3  Na    c     0.500000    0.500000    0.000000    0.000000
     4  Cl    s     0.000000    0.000000    0.000000    0.000000
     5  O     s     0.500000    0.500000    0.500000    0.000000
--------------------------------------------------------------------------------

  Final Cartesian lattice vectors (Angstroms) :

        4.428461    0.000000    0.000000
        0.000000    4.428461    0.000000
        0.000000    0.000000    4.428461


  Final cell parameters and derivatives :

--------------------------------------------------------------------------------
       a            4.428461 Angstrom     dE/de1(xx)     0.000000 eV/strain
       b            4.428461 Angstrom     dE/de2(yy)     0.000000 eV/strain
       c            4.428461 Angstrom     dE/de3(zz)     0.000000 eV/strain
       alpha       90.000000 Degrees      dE/de4(yz)     0.000000 eV/strain
       beta        90.000000 Degrees      dE/de5(xz)     0.000000 eV/strain
       gamma       90.000000 Degrees      dE/de6(xy)     0.000000 eV/strain
--------------------------------------------------------------------------------

  Primitive cell volume =            86.847723 Angs**3

  Density of cell =      2.302482 g/cm**3

  Non-primitive cell volume =            86.847723 Angs**3


  Final internal derivatives :

--------------------------------------------------------------------------------
   No.  Atomic          a             b             c           Radius
        Label          (eV)          (eV)          (eV)        (eV/Angs)
--------------------------------------------------------------------------------
      1 Cl    c       0.000000      0.000000      0.000000      0.000000
      2 O     c       0.000000      0.000000      0.000000      0.000000
      3 Na    c       0.000000      0.000000      0.000000      0.000000
      4 Cl    s       0.000000      0.000000      0.000000      0.000000
      5 O     s       0.000000      0.000000      0.000000      0.000000
--------------------------------------------------------------------------------
  Maximum abs         0.000000      0.000000      0.000000      0.000000
--------------------------------------------------------------------------------

  Comparison of initial and final structures : 

--------------------------------------------------------------------------------
  Parameter   Initial value   Final value   Difference    Units      Percent
--------------------------------------------------------------------------------
    Volume        91.368216     86.847723    -4.520493    Angs**3     -4.95
    a              4.504000      4.428461    -0.075539    Angstroms   -1.68
    b              4.504000      4.428461    -0.075539    Angstroms   -1.68
    c              4.504000      4.428461    -0.075539    Angstroms   -1.68
    alpha         90.000000     90.000000     0.000000    Degrees      0.00
    beta          90.000000     90.000000     0.000000    Degrees      0.00
    gamma         90.000000     90.000000     0.000000    Degrees      0.00
      1 x          0.000000      0.000000     0.000000    Fractional   0.00
      1 y          0.000000      0.000000     0.000000    Fractional   0.00
      1 z          0.000000      0.000000     0.000000    Fractional   0.00
      2 x          0.500000      0.500000     0.000000    Fractional   0.00
      2 y          0.500000      0.500000     0.000000    Fractional   0.00
      2 z          0.500000      0.500000     0.000000    Fractional   0.00
      3 x          0.500000      0.500000     0.000000    Fractional   0.00
      3 y          0.500000      0.500000     0.000000    Fractional   0.00
      3 z          0.000000      0.000000     0.000000    Fractional   0.00
      4 x          0.000000      0.000000     0.000000    Fractional   0.00
      4 y          0.000000      0.000000     0.000000    Fractional   0.00
      4 z          0.000000      0.000000     0.000000    Fractional   0.00
      5 x          0.500000      0.500000     0.000000    Fractional   0.00
      5 y          0.500000      0.500000     0.000000    Fractional   0.00
      5 z          0.500000      0.500000     0.000000    Fractional   0.00
--------------------------------------------------------------------------------


  Born effective charge tensors : 

-------------------------------------------------------------------------------
  Atom             x           y             z
-------------------------------------------------------------------------------
    1 Cl    x      -0.6995     -0.0000     -0.0000
            y      -0.0000     -0.6995     -0.0000
            z      -0.0000     -0.0000     -0.6995
-------------------------------------------------------------------------------
    2 O     x      -1.0805      0.0000      0.0000
            y       0.0000     -1.0805      0.0000
            z       0.0000      0.0000     -1.0805
-------------------------------------------------------------------------------
    3 Na    x       0.6486      0.0000     -0.0000
            y       0.0000      0.6486      0.0000
            z      -0.0000      0.0000      0.4827
-------------------------------------------------------------------------------




  Elastic Constant Matrix: (Units=GPa)

-------------------------------------------------------------------------------
  Indices      1         2         3         4         5         6    
-------------------------------------------------------------------------------
       1     77.0757   16.0262   16.0262   -0.0000   -0.0000   -0.0000
       2     16.0262   77.0757   16.0262   -0.0000   -0.0000    0.0000
       3     16.0262   16.0262   77.0757    0.0000    0.0000    0.0000
       4     -0.0000   -0.0000    0.0000   16.0262    0.0000   -0.0000
       5     -0.0000   -0.0000    0.0000    0.0000   16.0262   -0.0000
       6     -0.0000    0.0000    0.0000   -0.0000   -0.0000   16.0262
-------------------------------------------------------------------------------


  Elastic Compliance Matrix: (Units=1/GPa)

-------------------------------------------------------------------------------
  Indices      1         2         3         4         5         6    
-------------------------------------------------------------------------------
       1    0.013975 -0.002406 -0.002406  0.000000  0.000000  0.000000
       2   -0.002406  0.013975 -0.002406  0.000000  0.000000 -0.000000
       3   -0.002406 -0.002406  0.013975 -0.000000 -0.000000 -0.000000
       4    0.000000  0.000000 -0.000000  0.062398 -0.000000  0.000000
       5    0.000000  0.000000 -0.000000 -0.000000  0.062398  0.000000
       6    0.000000 -0.000000 -0.000000  0.000000  0.000000  0.062398
-------------------------------------------------------------------------------

  Mechanical properties :

-------------------------------------------------------------------------------
  Convention :                    Reuss         Voigt         Hill
-------------------------------------------------------------------------------
  Bulk  Modulus (GPa)     =      36.37603      36.37603      36.37603
  Shear Modulus (GPa)     =      19.78520      21.82562      20.80541
-------------------------------------------------------------------------------
  Velocity S-wave (km/s)  =       2.93138       3.07883       3.00601
  Velocity P-wave (km/s)  =       5.22072       5.33268       5.27700
-------------------------------------------------------------------------------
  Compressibility (1/GPa) =    0.02749063
-------------------------------------------------------------------------------
  Stress axis :                     x             y             z
-------------------------------------------------------------------------------
  Youngs Moduli (GPa)     =      71.55833      71.55833      71.55833
-------------------------------------------------------------------------------
  Poissons Ratio (x)      =                     0.17214       0.17214
  Poissons Ratio (y)      =       0.17214                     0.17214
  Poissons Ratio (z)      =       0.17214       0.17214
-------------------------------------------------------------------------------


  Piezoelectric Strain Matrix: (Units=C/m**2)

-------------------------------------------------------------------------------
  Indices      1         2         3         4         5         6    
-------------------------------------------------------------------------------
       x    -0.00000  -0.00000  -0.00000  -0.00000  -0.00000   0.00000
       y     0.00000   0.00000   0.00000  -0.00000  -0.00000  -0.00000
       z     0.00000   0.00000  -0.00000   0.00000  -0.00000  -0.00000
-------------------------------------------------------------------------------


  Piezoelectric Stress Matrix: (Units=10**-11 C/N)

-------------------------------------------------------------------------------
  Indices      1         2         3         4         5         6    
-------------------------------------------------------------------------------
       x    -0.00000  -0.00000  -0.00000  -0.00000  -0.00000   0.00000
       y     0.00000   0.00000   0.00000  -0.00000  -0.00000  -0.00000
       z     0.00000   0.00000  -0.00000   0.00000  -0.00000  -0.00000
-------------------------------------------------------------------------------


  Static dielectric constant tensor : 

-------------------------------------------------------------------------------
              x         y         z
-------------------------------------------------------------------------------
       x     5.77918   0.00000   0.00000
       y     0.00000   5.77918   0.00000
       z     0.00000   0.00000   5.77918
--------------------------------------------------------------------------------

  High frequency dielectric constant tensor : 

-------------------------------------------------------------------------------
              x         y         z
-------------------------------------------------------------------------------
       x     1.30980  -0.00000  -0.00000
       y    -0.00000   1.30980  -0.00000
       z    -0.00000  -0.00000   1.30980
-------------------------------------------------------------------------------

  Static refractive indices : 

-------------------------------------------------------------------------------
    1 =    2.40399      2 =    2.40399      3 =    2.40399
-------------------------------------------------------------------------------

  High frequency refractive indices : 

-------------------------------------------------------------------------------
    1 =    1.14447      2 =    1.14447      3 =    1.14447
-------------------------------------------------------------------------------


  Time to end of optimisation =       0.0356 seconds

********************************************************************************
*  Defect calculation for configuration   1 :                                  *
********************************************************************************

  Total number of defects =      3

  Total charge on defect  =  -0.67

  Defect centre is at   0.5000   0.2500   0.2500  Frac

  Region 1 radius =  12.0000      Number of ions =    575

  Number of symmetry inequivalent region 1 ions  =    331

  Region 2 radius =  16.0000      Number of ions =    818

  Number of symmetry inequivalent region 2a ions =    447

  Region 2a mode = 4 : screened electrostatics due to region 1 
                       neglect correction to region 1 forces from 2a
                       region 2a displacements based on defects only

  Region 2a ions will only interact with defects in region 1

  Vacancies:

--------------------------------------------------------------------------------
    Specification type     Symbol/Number         x          y          z
--------------------------------------------------------------------------------
    Fractional                               0.500000   0.500000   0.000000
    Fractional                               0.500000   0.000000   0.500000
--------------------------------------------------------------------------------

  Interstitials:

--------------------------------------------------------------------------------
    Specification type     Symbol/Number         x          y          z
--------------------------------------------------------------------------------
    Atom/Fractional         Na               0.500000   0.440000   0.060000
--------------------------------------------------------------------------------


  Symmetry reduced region 1 (Relative to defect centre) :

--------------------------------------------------------------------------------
   No.   Atomic       x            y             z       Radius  Multiplicity   
         Label      (Angs)       (Angs)        (Angs)    (Angs)     
--------------------------------------------------------------------------------
     1  Na    c      0.0000       0.8414      -0.8414    0.0000     1    Defect
     2  O     c      0.0000       1.1071 *     1.1071 *  0.0000     1          
     3  Cl    c      2.2142 *    -1.1071 *    -1.1071 *  0.0000     2          
     4  Na    c      2.2142 *     1.1071 *     1.1071 *  0.0000     2          
     5  O     c      0.0000       1.1071 *    -3.3213 *  0.0000     1          
     6  O     c      0.0000      -3.3213 *     1.1071 *  0.0000     1          
     7  Na    c      0.0000       1.1071 *     3.3213 *  0.0000     1          
     8  Na    c      0.0000      -3.3213 *    -1.1071 *  0.0000     1          
     9  Na    c      0.0000      -1.1071 *    -3.3213 *  0.0000     1          
    10  Na    c      0.0000       3.3213 *     1.1071 *  0.0000     1          
    11  Cl    c      2.2142 *    -1.1071 *     3.3213 *  0.0000     2          
    12  Cl    c      2.2142 *     3.3213 *    -1.1071 *  0.0000     2          
    13  Na    c      2.2142 *     1.1071 *    -3.3213 *  0.0000     2          
    14  Na    c      2.2142 *    -3.3213 *     1.1071 *  0.0000     2          
    15  O     c      4.4285 *     1.1071 *     1.1071 *  0.0000     2          
    16  Na    c      4.4285 *     1.1071 *    -1.1071 *  0.0000     2          
    17  Na    c      4.4285 *    -1.1071 *     1.1071 *  0.0000     2          
    18  O     c      0.0000      -3.3213 *    -3.3213 *  0.0000     1          
    19  Na    c      0.0000      -3.3213 *     3.3213 *  0.0000     1          
    20  Na    c      0.0000       3.3213 *    -3.3213 *  0.0000     1          
    21  Cl    c      2.2142 *     3.3213 *     3.3213 *  0.0000     2          
    22  Na    c      2.2142 *    -3.3213 *    -3.3213 *  0.0000     2          
    23  O     c      4.4285 *     1.1071 *    -3.3213 *  0.0000     2          
    24  Na    c      4.4285 *     1.1071 *     3.3213 *  0.0000     2          
    25  Na    c      4.4285 *    -1.1071 *    -3.3213 *  0.0000     2          
    26  O     c      4.4285 *    -3.3213 *     1.1071 *  0.0000     2          
    27  Na    c      4.4285 *    -3.3213 *    -1.1071 *  0.0000     2          
    28  Na    c      4.4285 *     3.3213 *     1.1071 *  0.0000     2          
    29  O     c      0.0000       1.1071 *     5.5356 *  0.0000     1          
    30  O     c      0.0000       5.5356 *     1.1071 *  0.0000     1          
    31  Na    c      0.0000       1.1071 *    -5.5356 *  0.0000     1          
    32  Na    c      0.0000       5.5356 *    -1.1071 *  0.0000     1          
    33  Na    c      0.0000      -1.1071 *     5.5356 *  0.0000     1          
    34  Na    c      0.0000      -5.5356 *     1.1071 *  0.0000     1          
    35  Cl    c      2.2142 *    -1.1071 *    -5.5356 *  0.0000     2          
    36  Cl    c      2.2142 *    -5.5356 *    -1.1071 *  0.0000     2          
    37  Na    c      2.2142 *     1.1071 *     5.5356 *  0.0000     2          
    38  Na    c      2.2142 *     5.5356 *     1.1071 *  0.0000     2          
    39  O     c      0.0000       5.5356 *    -3.3213 *  0.0000     1          
    40  O     c      0.0000      -3.3213 *     5.5356 *  0.0000     1          
    41  O     c      4.4285 *    -3.3213 *    -3.3213 *  0.0000     2          
    42  Na    c      0.0000       5.5356 *     3.3213 *  0.0000     1          
    43  Na    c      0.0000      -3.3213 *    -5.5356 *  0.0000     1          
    44  Na    c      4.4285 *    -3.3213 *     3.3213 *  0.0000     2          
    45  Na    c      0.0000       3.3213 *     5.5356 *  0.0000     1          
    46  Na    c      0.0000      -5.5356 *    -3.3213 *  0.0000     1          
    47  Na    c      4.4285 *     3.3213 *    -3.3213 *  0.0000     2          
    48  Cl    c      2.2142 *     3.3213 *    -5.5356 *  0.0000     2          
    49  Cl    c      6.6427 *    -1.1071 *    -1.1071 *  0.0000     2          
    50  Na    c      2.2142 *    -3.3213 *     5.5356 *  0.0000     2          
    51  Na    c      6.6427 *     1.1071 *     1.1071 *  0.0000     2          
    52  Cl    c      2.2142 *    -5.5356 *     3.3213 *  0.0000     2          
    53  Na    c      2.2142 *     5.5356 *    -3.3213 *  0.0000     2          
    54  O     c      4.4285 *     1.1071 *     5.5356 *  0.0000     2          
    55  O     c      4.4285 *     5.5356 *     1.1071 *  0.0000     2          
    56  Na    c      4.4285 *     1.1071 *    -5.5356 *  0.0000     2          
    57  Na    c      4.4285 *     5.5356 *    -1.1071 *  0.0000     2          
    58  Na    c      4.4285 *    -1.1071 *     5.5356 *  0.0000     2          
    59  Na    c      4.4285 *    -5.5356 *     1.1071 *  0.0000     2          
    60  Cl    c      6.6427 *     3.3213 *    -1.1071 *  0.0000     2          
    61  Na    c      6.6427 *    -3.3213 *     1.1071 *  0.0000     2          
    62  Cl    c      6.6427 *    -1.1071 *     3.3213 *  0.0000     2          
    63  Na    c      6.6427 *     1.1071 *    -3.3213 *  0.0000     2          
    64  O     c      0.0000       1.1071 *    -7.7498 *  0.0000     1          
    65  O     c      0.0000      -7.7498 *     1.1071 *  0.0000     1          
    66  Na    c      0.0000       1.1071 *     7.7498 *  0.0000     1          
    67  Na    c      0.0000      -7.7498 *    -1.1071 *  0.0000     1          
    68  Na    c      0.0000      -1.1071 *    -7.7498 *  0.0000     1          
    69  Na    c      0.0000       7.7498 *     1.1071 *  0.0000     1          
    70  O     c      4.4285 *    -3.3213 *     5.5356 *  0.0000     2          
    71  Na    c      4.4285 *    -3.3213 *    -5.5356 *  0.0000     2          
    72  Na    c      4.4285 *     3.3213 *     5.5356 *  0.0000     2          
    73  O     c      0.0000       5.5356 *     5.5356 *  0.0000     1          
    74  O     c      4.4285 *     5.5356 *    -3.3213 *  0.0000     2          
    75  Na    c      0.0000       5.5356 *    -5.5356 *  0.0000     1          
    76  Na    c      4.4285 *     5.5356 *     3.3213 *  0.0000     2          
    77  Na    c      0.0000      -5.5356 *     5.5356 *  0.0000     1          
    78  Na    c      4.4285 *    -5.5356 *    -3.3213 *  0.0000     2          
    79  Cl    c      2.2142 *    -1.1071 *     7.7498 *  0.0000     2          
    80  Cl    c      2.2142 *     7.7498 *    -1.1071 *  0.0000     2          
    81  Na    c      2.2142 *     1.1071 *    -7.7498 *  0.0000     2          
    82  Na    c      2.2142 *    -7.7498 *     1.1071 *  0.0000     2          
    83  Cl    c      6.6427 *     3.3213 *     3.3213 *  0.0000     2          
    84  Na    c      6.6427 *    -3.3213 *    -3.3213 *  0.0000     2          
    85  Cl    c      2.2142 *    -5.5356 *    -5.5356 *  0.0000     2          
    86  Na    c      2.2142 *     5.5356 *     5.5356 *  0.0000     2          
    87  O     c      0.0000      -3.3213 *    -7.7498 *  0.0000     1          
    88  O     c      0.0000      -7.7498 *    -3.3213 *  0.0000     1          
    89  Na    c      0.0000      -3.3213 *     7.7498 *  0.0000     1          
    90  Na    c      0.0000      -7.7498 *     3.3213 *  0.0000     1          
    91  Na    c      0.0000       3.3213 *    -7.7498 *  0.0000     1          
    92  Na    c      0.0000       7.7498 *    -3.3213 *  0.0000     1          
    93  Cl    c      2.2142 *     3.3213 *     7.7498 *  0.0000     2          
    94  Cl    c      2.2142 *     7.7498 *     3.3213 *  0.0000     2          
    95  Na    c      2.2142 *    -3.3213 *    -7.7498 *  0.0000     2          
    96  Na    c      2.2142 *    -7.7498 *    -3.3213 *  0.0000     2          
    97  Cl    c      6.6427 *    -5.5356 *    -1.1071 *  0.0000     2          
    98  Na    c      6.6427 *     5.5356 *     1.1071 *  0.0000     2          
    99  Cl    c      6.6427 *    -1.1071 *    -5.5356 *  0.0000     2          
   100  Na    c      6.6427 *     1.1071 *     5.5356 *  0.0000     2          
   101  O     c      4.4285 *     1.1071 *    -7.7498 *  0.0000     2          
   102  O     c      4.4285 *    -7.7498 *     1.1071 *  0.0000     2          
   103  O     c      8.8569 *     1.1071 *     1.1071 *  0.0000     2          
   104  Na    c      4.4285 *     1.1071 *     7.7498 *  0.0000     2          
   105  Na    c      4.4285 *    -7.7498 *    -1.1071 *  0.0000     2          
   106  Na    c      8.8569 *     1.1071 *    -1.1071 *  0.0000     2          
   107  Na    c      4.4285 *    -1.1071 *    -7.7498 *  0.0000     2          
   108  Na    c      4.4285 *     7.7498 *     1.1071 *  0.0000     2          
   109  Na    c      8.8569 *    -1.1071 *     1.1071 *  0.0000     2          
   110  O     c      4.4285 *     5.5356 *     5.5356 *  0.0000     2          
   111  Na    c      4.4285 *     5.5356 *    -5.5356 *  0.0000     2          
   112  Na    c      4.4285 *    -5.5356 *     5.5356 *  0.0000     2          
   113  Cl    c      6.6427 *    -5.5356 *     3.3213 *  0.0000     2          
   114  Na    c      6.6427 *     5.5356 *    -3.3213 *  0.0000     2          
   115  Cl    c      6.6427 *     3.3213 *    -5.5356 *  0.0000     2          
   116  Na    c      6.6427 *    -3.3213 *     5.5356 *  0.0000     2          
   117  O     c      4.4285 *    -3.3213 *    -7.7498 *  0.0000     2          
   118  O     c      4.4285 *    -7.7498 *    -3.3213 *  0.0000     2          
   119  O     c      8.8569 *     1.1071 *    -3.3213 *  0.0000     2          
   120  O     c      8.8569 *    -3.3213 *     1.1071 *  0.0000     2          
   121  Na    c      4.4285 *    -3.3213 *     7.7498 *  0.0000     2          
   122  Na    c      4.4285 *    -7.7498 *     3.3213 *  0.0000     2          
   123  Na    c      8.8569 *     1.1071 *     3.3213 *  0.0000     2          
   124  Na    c      8.8569 *    -3.3213 *    -1.1071 *  0.0000     2          
   125  Na    c      4.4285 *     3.3213 *    -7.7498 *  0.0000     2          
   126  Na    c      4.4285 *     7.7498 *    -3.3213 *  0.0000     2          
   127  Na    c      8.8569 *    -1.1071 *    -3.3213 *  0.0000     2          
   128  Na    c      8.8569 *     3.3213 *     1.1071 *  0.0000     2          
   129  O     c      0.0000       5.5356 *    -7.7498 *  0.0000     1          
   130  O     c      0.0000      -7.7498 *     5.5356 *  0.0000     1          
   131  Na    c      0.0000       5.5356 *     7.7498 *  0.0000     1          
   132  Na    c      0.0000      -7.7498 *    -5.5356 *  0.0000     1          
   133  Na    c      0.0000       7.7498 *     5.5356 *  0.0000     1          
   134  Na    c      0.0000      -5.5356 *    -7.7498 *  0.0000     1          
   135  Cl    c      2.2142 *     7.7498 *    -5.5356 *  0.0000     2          
   136  Cl    c      2.2142 *    -5.5356 *     7.7498 *  0.0000     2          
   137  Na    c      2.2142 *     5.5356 *    -7.7498 *  0.0000     2          
   138  Na    c      2.2142 *    -7.7498 *     5.5356 *  0.0000     2          
   139  O     c      8.8569 *    -3.3213 *    -3.3213 *  0.0000     2          
   140  Na    c      8.8569 *    -3.3213 *     3.3213 *  0.0000     2          
   141  Na    c      8.8569 *     3.3213 *    -3.3213 *  0.0000     2          
   142  O     c      0.0000       1.1071 *     9.9640 *  0.0000     1          
   143  O     c      0.0000       9.9640 *     1.1071 *  0.0000     1          
   144  Na    c      0.0000       1.1071 *    -9.9640 *  0.0000     1          
   145  Na    c      0.0000       9.9640 *    -1.1071 *  0.0000     1          
   146  Na    c      0.0000      -1.1071 *     9.9640 *  0.0000     1          
   147  Na    c      0.0000      -9.9640 *     1.1071 *  0.0000     1          
   148  Cl    c      2.2142 *    -1.1071 *    -9.9640 *  0.0000     2          
   149  Cl    c      2.2142 *    -9.9640 *    -1.1071 *  0.0000     2          
   150  Cl    c      6.6427 *    -1.1071 *     7.7498 *  0.0000     2          
   151  Cl    c      6.6427 *     7.7498 *    -1.1071 *  0.0000     2          
   152  Na    c      2.2142 *     1.1071 *     9.9640 *  0.0000     2          
   153  Na    c      2.2142 *     9.9640 *     1.1071 *  0.0000     2          
   154  Na    c      6.6427 *     1.1071 *    -7.7498 *  0.0000     2          
   155  Na    c      6.6427 *    -7.7498 *     1.1071 *  0.0000     2          
   156  Cl    c      6.6427 *    -5.5356 *    -5.5356 *  0.0000     2          
   157  Na    c      6.6427 *     5.5356 *     5.5356 *  0.0000     2          
   158  O     c      0.0000       9.9640 *    -3.3213 *  0.0000     1          
   159  O     c      0.0000      -3.3213 *     9.9640 *  0.0000     1          
   160  O     c      4.4285 *     5.5356 *    -7.7498 *  0.0000     2          
   161  O     c      4.4285 *    -7.7498 *     5.5356 *  0.0000     2          
   162  O     c      8.8569 *     1.1071 *     5.5356 *  0.0000     2          
   163  O     c      8.8569 *     5.5356 *     1.1071 *  0.0000     2          
   164  Na    c      0.0000       9.9640 *     3.3213 *  0.0000     1          
   165  Na    c      0.0000      -3.3213 *    -9.9640 *  0.0000     1          
   166  Na    c      4.4285 *     5.5356 *     7.7498 *  0.0000     2          
   167  Na    c      4.4285 *    -7.7498 *    -5.5356 *  0.0000     2          
   168  Na    c      8.8569 *     1.1071 *    -5.5356 *  0.0000     2          
   169  Na    c      8.8569 *     5.5356 *    -1.1071 *  0.0000     2          
   170  Na    c      0.0000       3.3213 *     9.9640 *  0.0000     1          
   171  Na    c      0.0000      -9.9640 *    -3.3213 *  0.0000     1          
   172  Na    c      4.4285 *     7.7498 *     5.5356 *  0.0000     2          
   173  Na    c      4.4285 *    -5.5356 *    -7.7498 *  0.0000     2          
   174  Na    c      8.8569 *    -1.1071 *     5.5356 *  0.0000     2          
   175  Na    c      8.8569 *    -5.5356 *     1.1071 *  0.0000     2          
   176  Cl    c      2.2142 *     3.3213 *    -9.9640 *  0.0000     2          
   177  Cl    c      2.2142 *    -9.9640 *     3.3213 *  0.0000     2          
   178  Cl    c      6.6427 *     3.3213 *     7.7498 *  0.0000     2          
   179  Cl    c      6.6427 *     7.7498 *     3.3213 *  0.0000     2          
   180  Na    c      2.2142 *     9.9640 *    -3.3213 *  0.0000     2          
   181  Na    c      2.2142 *    -3.3213 *     9.9640 *  0.0000     2          
   182  Na    c      6.6427 *    -3.3213 *    -7.7498 *  0.0000     2          
   183  Na    c      6.6427 *    -7.7498 *    -3.3213 *  0.0000     2          
   184  O     c      0.0000      -7.7498 *    -7.7498 *  0.0000     1          
   185  Na    c      0.0000      -7.7498 *     7.7498 *  0.0000     1          
   186  Na    c      0.0000       7.7498 *    -7.7498 *  0.0000     1          
   187  O     c      4.4285 *     1.1071 *     9.9640 *  0.0000     2          
   188  O     c      4.4285 *     9.9640 *     1.1071 *  0.0000     2          
   189  O     c      8.8569 *     5.5356 *    -3.3213 *  0.0000     2          
   190  O     c      8.8569 *    -3.3213 *     5.5356 *  0.0000     2          
   191  Na    c      4.4285 *     1.1071 *    -9.9640 *  0.0000     2          
   192  Na    c      4.4285 *     9.9640 *    -1.1071 *  0.0000     2          
   193  Na    c      8.8569 *     5.5356 *     3.3213 *  0.0000     2          
   194  Na    c      8.8569 *    -3.3213 *    -5.5356 *  0.0000     2          
   195  Na    c      4.4285 *    -1.1071 *     9.9640 *  0.0000     2          
   196  Na    c      4.4285 *    -9.9640 *     1.1071 *  0.0000     2          
   197  Na    c      8.8569 *     3.3213 *     5.5356 *  0.0000     2          
   198  Na    c      8.8569 *    -5.5356 *    -3.3213 *  0.0000     2          
   199  Cl    c      2.2142 *     7.7498 *     7.7498 *  0.0000     2          
   200  Na    c      2.2142 *    -7.7498 *    -7.7498 *  0.0000     2          
   201  Cl    c     11.0712 *    -1.1071 *    -1.1071 *  0.0000     2          
   202  Na    c     11.0712 *     1.1071 *     1.1071 *  0.0000     2          
   203  O     c      0.0000       5.5356 *     9.9640 *  0.0000     1          
   204  O     c      0.0000       9.9640 *     5.5356 *  0.0000     1          
   205  O     c      4.4285 *     9.9640 *    -3.3213 *  0.0000     2          
   206  O     c      4.4285 *    -3.3213 *     9.9640 *  0.0000     2          
   207  Na    c      0.0000       5.5356 *    -9.9640 *  0.0000     1          
   208  Na    c      0.0000       9.9640 *    -5.5356 *  0.0000     1          
   209  Na    c      4.4285 *     9.9640 *     3.3213 *  0.0000     2          
   210  Na    c      4.4285 *    -3.3213 *    -9.9640 *  0.0000     2          
   211  Na    c      0.0000      -5.5356 *     9.9640 *  0.0000     1          
   212  Na    c      0.0000      -9.9640 *     5.5356 *  0.0000     1          
   213  Na    c      4.4285 *     3.3213 *     9.9640 *  0.0000     2          
   214  Na    c      4.4285 *    -9.9640 *    -3.3213 *  0.0000     2          
   215  Cl    c      2.2142 *    -5.5356 *    -9.9640 *  0.0000     2          
   216  Cl    c      2.2142 *    -9.9640 *    -5.5356 *  0.0000     2          
   217  Cl    c      6.6427 *     7.7498 *    -5.5356 *  0.0000     2          
   218  Cl    c      6.6427 *    -5.5356 *     7.7498 *  0.0000     2          
   219  Na    c      2.2142 *     5.5356 *     9.9640 *  0.0000     2          
   220  Na    c      2.2142 *     9.9640 *     5.5356 *  0.0000     2          
   221  Na    c      6.6427 *     5.5356 *    -7.7498 *  0.0000     2          
   222  Na    c      6.6427 *    -7.7498 *     5.5356 *  0.0000     2          
   223  Cl    c     11.0712 *    -1.1071 *     3.3213 *  0.0000     2          
   224  Cl    c     11.0712 *     3.3213 *    -1.1071 *  0.0000     2          
   225  Na    c     11.0712 *     1.1071 *    -3.3213 *  0.0000     2          
   226  Na    c     11.0712 *    -3.3213 *     1.1071 *  0.0000     2          
   227  O     c      4.4285 *    -7.7498 *    -7.7498 *  0.0000     2          
   228  O     c      8.8569 *     1.1071 *    -7.7498 *  0.0000     2          
   229  O     c      8.8569 *    -7.7498 *     1.1071 *  0.0000     2          
   230  Na    c      4.4285 *    -7.7498 *     7.7498 *  0.0000     2          
   231  Na    c      8.8569 *     1.1071 *     7.7498 *  0.0000     2          
   232  Na    c      8.8569 *    -7.7498 *    -1.1071 *  0.0000     2          
   233  Na    c      4.4285 *     7.7498 *    -7.7498 *  0.0000     2          
   234  Na    c      8.8569 *    -1.1071 *    -7.7498 *  0.0000     2          
   235  Na    c      8.8569 *     7.7498 *     1.1071 *  0.0000     2          
   236  O     c      8.8569 *     5.5356 *     5.5356 *  0.0000     2          
   237  Na    c      8.8569 *     5.5356 *    -5.5356 *  0.0000     2          
   238  Na    c      8.8569 *    -5.5356 *     5.5356 *  0.0000     2          
   239  O     s      0.0000       1.1071 *     1.1071 *  0.0000     1          
   240  Cl    s      2.2142 *    -1.1071 *    -1.1071 *  0.0000     2          
   241  O     s      0.0000       1.1071 *    -3.3213 *  0.0000     1          
   242  O     s      0.0000      -3.3213 *     1.1071 *  0.0000     1          
   243  Cl    s      2.2142 *    -1.1071 *     3.3213 *  0.0000     2          
   244  Cl    s      2.2142 *     3.3213 *    -1.1071 *  0.0000     2          
   245  O     s      4.4285 *     1.1071 *     1.1071 *  0.0000     2          
   246  O     s      0.0000      -3.3213 *    -3.3213 *  0.0000     1          
   247  Cl    s      2.2142 *     3.3213 *     3.3213 *  0.0000     2          
   248  O     s      4.4285 *     1.1071 *    -3.3213 *  0.0000     2          
   249  O     s      4.4285 *    -3.3213 *     1.1071 *  0.0000     2          
   250  O     s      0.0000       1.1071 *     5.5356 *  0.0000     1          
   251  O     s      0.0000       5.5356 *     1.1071 *  0.0000     1          
   252  Cl    s      2.2142 *    -1.1071 *    -5.5356 *  0.0000     2          
   253  Cl    s      2.2142 *    -5.5356 *    -1.1071 *  0.0000     2          
   254  O     s      0.0000       5.5356 *    -3.3213 *  0.0000     1          
   255  O     s      0.0000      -3.3213 *     5.5356 *  0.0000     1          
   256  O     s      4.4285 *    -3.3213 *    -3.3213 *  0.0000     2          
   257  Cl    s      2.2142 *     3.3213 *    -5.5356 *  0.0000     2          
   258  Cl    s      6.6427 *    -1.1071 *    -1.1071 *  0.0000     2          
   259  Cl    s      2.2142 *    -5.5356 *     3.3213 *  0.0000     2          
   260  O     s      4.4285 *     1.1071 *     5.5356 *  0.0000     2          
   261  O     s      4.4285 *     5.5356 *     1.1071 *  0.0000     2          
   262  Cl    s      6.6427 *     3.3213 *    -1.1071 *  0.0000     2          
   263  Cl    s      6.6427 *    -1.1071 *     3.3213 *  0.0000     2          
   264  O     s      0.0000       1.1071 *    -7.7498 *  0.0000     1          
   265  O     s      0.0000      -7.7498 *     1.1071 *  0.0000     1          
   266  O     s      4.4285 *    -3.3213 *     5.5356 *  0.0000     2          
   267  O     s      0.0000       5.5356 *     5.5356 *  0.0000     1          
   268  O     s      4.4285 *     5.5356 *    -3.3213 *  0.0000     2          
   269  Cl    s      2.2142 *    -1.1071 *     7.7498 *  0.0000     2          
   270  Cl    s      2.2142 *     7.7498 *    -1.1071 *  0.0000     2          
   271  Cl    s      6.6427 *     3.3213 *     3.3213 *  0.0000     2          
   272  Cl    s      2.2142 *    -5.5356 *    -5.5356 *  0.0000     2          
   273  O     s      0.0000      -3.3213 *    -7.7498 *  0.0000     1          
   274  O     s      0.0000      -7.7498 *    -3.3213 *  0.0000     1          
   275  Cl    s      2.2142 *     3.3213 *     7.7498 *  0.0000     2          
   276  Cl    s      2.2142 *     7.7498 *     3.3213 *  0.0000     2          
   277  Cl    s      6.6427 *    -5.5356 *    -1.1071 *  0.0000     2          
   278  Cl    s      6.6427 *    -1.1071 *    -5.5356 *  0.0000     2          
   279  O     s      4.4285 *     1.1071 *    -7.7498 *  0.0000     2          
   280  O     s      4.4285 *    -7.7498 *     1.1071 *  0.0000     2          
   281  O     s      8.8569 *     1.1071 *     1.1071 *  0.0000     2          
   282  O     s      4.4285 *     5.5356 *     5.5356 *  0.0000     2          
   283  Cl    s      6.6427 *    -5.5356 *     3.3213 *  0.0000     2          
   284  Cl    s      6.6427 *     3.3213 *    -5.5356 *  0.0000     2          
   285  O     s      4.4285 *    -3.3213 *    -7.7498 *  0.0000     2          
   286  O     s      4.4285 *    -7.7498 *    -3.3213 *  0.0000     2          
   287  O     s      8.8569 *     1.1071 *    -3.3213 *  0.0000     2          
   288  O     s      8.8569 *    -3.3213 *     1.1071 *  0.0000     2          
   289  O     s      0.0000       5.5356 *    -7.7498 *  0.0000     1          
   290  O     s      0.0000      -7.7498 *     5.5356 *  0.0000     1          
   291  Cl    s      2.2142 *     7.7498 *    -5.5356 *  0.0000     2          
   292  Cl    s      2.2142 *    -5.5356 *     7.7498 *  0.0000     2          
   293  O     s      8.8569 *    -3.3213 *    -3.3213 *  0.0000     2          
   294  O     s      0.0000       1.1071 *     9.9640 *  0.0000     1          
   295  O     s      0.0000       9.9640 *     1.1071 *  0.0000     1          
   296  Cl    s      2.2142 *    -1.1071 *    -9.9640 *  0.0000     2          
   297  Cl    s      2.2142 *    -9.9640 *    -1.1071 *  0.0000     2          
   298  Cl    s      6.6427 *    -1.1071 *     7.7498 *  0.0000     2          
   299  Cl    s      6.6427 *     7.7498 *    -1.1071 *  0.0000     2          
   300  Cl    s      6.6427 *    -5.5356 *    -5.5356 *  0.0000     2          
   301  O     s      0.0000       9.9640 *    -3.3213 *  0.0000     1          
   302  O     s      0.0000      -3.3213 *     9.9640 *  0.0000     1          
   303  O     s      4.4285 *     5.5356 *    -7.7498 *  0.0000     2          
   304  O     s      4.4285 *    -7.7498 *     5.5356 *  0.0000     2          
   305  O     s      8.8569 *     1.1071 *     5.5356 *  0.0000     2          
   306  O     s      8.8569 *     5.5356 *     1.1071 *  0.0000     2          
   307  Cl    s      2.2142 *     3.3213 *    -9.9640 *  0.0000     2          
   308  Cl    s      2.2142 *    -9.9640 *     3.3213 *  0.0000     2          
   309  Cl    s      6.6427 *     3.3213 *     7.7498 *  0.0000     2          
   310  Cl    s      6.6427 *     7.7498 *     3.3213 *  0.0000     2          
   311  O     s      0.0000      -7.7498 *    -7.7498 *  0.0000     1          
   312  O     s      4.4285 *     1.1071 *     9.9640 *  0.0000     2          
   313  O     s      4.4285 *     9.9640 *     1.1071 *  0.0000     2          
   314  O     s      8.8569 *     5.5356 *    -3.3213 *  0.0000     2          
   315  O     s      8.8569 *    -3.3213 *     5.5356 *  0.0000     2          
   316  Cl    s      2.2142 *     7.7498 *     7.7498 *  0.0000     2          
   317  Cl    s     11.0712 *    -1.1071 *    -1.1071 *  0.0000     2          
   318  O     s      0.0000       5.5356 *     9.9640 *  0.0000     1          
   319  O     s      0.0000       9.9640 *     5.5356 *  0.0000     1          
   320  O     s      4.4285 *     9.9640 *    -3.3213 *  0.0000     2          
   321  O     s      4.4285 *    -3.3213 *     9.9640 *  0.0000     2          
   322  Cl    s      2.2142 *    -5.5356 *    -9.9640 *  0.0000     2          
   323  Cl    s      2.2142 *    -9.9640 *    -5.5356 *  0.0000     2          
   324  Cl    s      6.6427 *     7.7498 *    -5.5356 *  0.0000     2          
   325  Cl    s      6.6427 *    -5.5356 *     7.7498 *  0.0000     2          
   326  Cl    s     11.0712 *    -1.1071 *     3.3213 *  0.0000     2          
   327  Cl    s     11.0712 *     3.3213 *    -1.1071 *  0.0000     2          
   328  O     s      4.4285 *    -7.7498 *    -7.7498 *  0.0000     2          
   329  O     s      8.8569 *     1.1071 *    -7.7498 *  0.0000     2          
   330  O     s      8.8569 *    -7.7498 *     1.1071 *  0.0000     2          
   331  O     s      8.8569 *     5.5356 *     5.5356 *  0.0000     2          
--------------------------------------------------------------------------------

  Components of defect energy : 

--------------------------------------------------------------------------------
  Region 1 - region 1                   =      4.12644627 eV
  Region 1 - region 2a (unrelaxed)      =     -0.00790548 eV
  Region 1 - 2a (relaxed - correction)  =     -0.11807829 eV
  Region 1 (Total)                      =      4.00046249 eV
  Region 2a                             =      0.05901787 eV
  Region 2b                             =     -0.16682856 eV
--------------------------------------------------------------------------------
  Total defect energy                   =      3.89265180 eV
--------------------------------------------------------------------------------

  Largest displacement in region 2 =   0.0194 Angstroms


  Number of variables =      904

  Maximum number of calculations  =        1000
  Maximum Hessian update interval =          10
  Maximum step size               =   1.0000000
  Maximum parameter tolerance     =   0.0000100
  Maximum function  tolerance     =   0.0000100
  Maximum gradient  tolerance     =   0.0010000

  Symmetry adapted optimisation

  Symmetry to be used for second derivatives

  Newton-Raphson optimiser to be used

  BFGS hessian update to be used

  Lower half triangular hessian to be used

  Start of defect optimisation :

  Cycle:      0 Defect Energy:   3.892652  Gnorm:     0.008447  CPU:    3.430
  ** Hessian calculated **
  Cycle:      1 Defect Energy:   3.646001  Gnorm:     0.007743  CPU:   10.339
  Cycle:      2 Defect Energy:   3.280853  Gnorm:     0.006313  CPU:   15.599
  Cycle:      3 Defect Energy:   2.696358  Gnorm:     0.002983  CPU:   21.013
  Cycle:      4 Defect Energy:   2.672414  Gnorm:     0.002723  CPU:   22.123
  ** Hessian calculated **
  Cycle:      5 Defect Energy:   2.589959  Gnorm:     0.001908  CPU:   25.054
  Cycle:      6 Defect Energy:   2.548785  Gnorm:     0.001339  CPU:   26.072
  Cycle:      7 Defect Energy:   2.527507  Gnorm:     0.000935  CPU:   30.281
  Cycle:      8 Defect Energy:   2.515957  Gnorm:     0.000645  CPU:   31.711
  Cycle:      9 Defect Energy:   2.508630  Gnorm:     0.000423  CPU:   32.913
  Cycle:     10 Defect Energy:   2.502263  Gnorm:     0.000240  CPU:   34.473
  Cycle:     11 Defect Energy:   2.494856  Gnorm:     0.000131  CPU:   35.936
  Cycle:     12 Defect Energy:   2.486844  Gnorm:     0.000329  CPU:   37.384
  Cycle:     13 Defect Energy:   2.483320  Gnorm:     0.000378  CPU:   38.745
  Cycle:     14 Defect Energy:   2.480531  Gnorm:     0.000386  CPU:   40.044
  ** Hessian calculated **
  Cycle:     15 Defect Energy:   2.475582  Gnorm:     0.000270  CPU:   43.891
  Cycle:     16 Defect Energy:   2.473308  Gnorm:     0.000188  CPU:   45.289
  Cycle:     17 Defect Energy:   2.472254  Gnorm:     0.000129  CPU:   46.539
  Cycle:     18 Defect Energy:   2.471746  Gnorm:     0.000090  CPU:   47.701
  Cycle:     19 Defect Energy:   2.471488  Gnorm:     0.000062  CPU:   48.896
  Cycle:     20 Defect Energy:   2.471356  Gnorm:     0.000043  CPU:   50.086
  Cycle:     21 Defect Energy:   2.471285  Gnorm:     0.000030  CPU:   51.330
  Cycle:     22 Defect Energy:   2.471247  Gnorm:     0.000021  CPU:   52.456
  Cycle:     23 Defect Energy:   2.471226  Gnorm:     0.000015  CPU:   53.599
  Cycle:     24 Defect Energy:   2.471214  Gnorm:     0.000010  CPU:   54.731
  ** Hessian calculated **


  **** Optimisation achieved ****


  Final defect energy  =        2.47120677
  Final defect Gnorm   =        0.00000721

  Components of defect energy : 

--------------------------------------------------------------------------------
  Region 1 - region 1                   =      3.05163209 eV
  Region 1 - region 2a (unrelaxed)      =     -0.36649915 eV
  Region 1 - 2a (relaxed - correction)  =     -0.09522064 eV
  Region 1 (Total)                      =      2.58991230 eV
  Region 2a                             =      0.04762224 eV
  Region 2b                             =     -0.16632777 eV
--------------------------------------------------------------------------------
  Total defect energy                   =      2.47120677 eV
--------------------------------------------------------------------------------

  Largest displacement in region 2 =   0.0194 Angstroms

  Final coordinates of region 1 :

--------------------------------------------------------------------------------
   No.  Atomic        x           y           z          Radius      Charge
        Label       (Angs)      (Angs)      (Angs)       (Angs)       (e) 
--------------------------------------------------------------------------------
     1  Na    c     2.214230    1.948523    0.265708    0.000000    0.670000
     2  O     c     2.214230    2.328137    2.369153    0.000000    0.489000
     3  Cl    c     4.555140    0.005556   -0.068502    0.000000    0.615000
     4  Cl    c    -0.126679    0.005556   -0.068502    0.000000    0.615000
     5  Na    c     4.373615    1.942151    2.327556    0.000000    0.670000
     6  Na    c     0.054846    1.942151    2.327556    0.000000    0.670000
     7  O     c     2.214230    2.199123   -2.096072    0.000000    0.489000
     8  O     c     2.214230   -2.296090    2.247699    0.000000    0.489000
     9  Na    c     2.214230    1.803125    4.456997    0.000000    0.670000
    10  Na    c     2.214230   -1.973048    0.088918    0.000000    0.670000
    11  Na    c     2.214230    0.008014   -2.272526    0.000000    0.670000
    12  Na    c     2.214230    4.472890    2.403489    0.000000    0.670000
    13  Cl    c     4.552812    0.000164    4.591368    0.000000    0.615000
    14  Cl    c    -0.124351    0.000164    4.591368    0.000000    0.615000
    15  Cl    c     4.511961    4.524690   -0.045411    0.000000    0.615000
    16  Cl    c    -0.083500    4.524690   -0.045411    0.000000    0.615000
    17  Na    c     4.418455    2.193920   -2.102467    0.000000    0.670000
    18  Na    c     0.010006    2.193920   -2.102467    0.000000    0.670000
    19  Na    c     4.361353   -1.889472    2.240571    0.000000    0.670000
    20  Na    c     0.067108   -1.889472    2.240571    0.000000    0.670000
    21  O     c     6.619193    2.205897    2.235570    0.000000    0.489000
    22  O     c    -2.190732    2.205897    2.235570    0.000000    0.489000
    23  Na    c     6.579886    2.333154    0.025474    0.000000    0.670000
    24  Na    c    -2.151425    2.333154    0.025474    0.000000    0.670000
    25  Na    c     6.818661    0.004717    2.088700    0.000000    0.670000
    26  Na    c    -2.390200    0.004717    2.088700    0.000000    0.670000
    27  O     c     2.214230   -2.197597   -2.165825    0.000000    0.489000
    28  Na    c     2.214230   -1.876214    4.390921    0.000000    0.670000
    29  Na    c     2.214230    4.397646   -1.953675    0.000000    0.670000
    30  Cl    c     4.507410    4.551400    4.520848    0.000000    0.615000
    31  Cl    c    -0.078949    4.551400    4.520848    0.000000    0.615000
    32  Na    c     4.425132   -2.192229   -2.177980    0.000000    0.670000
    33  Na    c     0.003329   -2.192229   -2.177980    0.000000    0.670000
    34  O     c     6.640594    2.221763   -2.196840    0.000000    0.489000
    35  O     c    -2.212133    2.221763   -2.196840    0.000000    0.489000
    36  Na    c     6.656824    2.097297    4.444968    0.000000    0.670000
    37  Na    c    -2.228363    2.097297    4.444968    0.000000    0.670000
    38  Na    c     6.660322    0.002865   -2.085493    0.000000    0.670000
    39  Na    c    -2.231861    0.002865   -2.085493    0.000000    0.670000
    40  O     c     6.611000   -2.195709    2.219260    0.000000    0.489000
    41  O     c    -2.182540   -2.195709    2.219260    0.000000    0.489000
    42  Na    c     6.568413   -2.323901    0.010358    0.000000    0.670000
    43  Na    c    -2.139953   -2.323901    0.010358    0.000000    0.670000
    44  Na    c     6.424474    4.411747    2.327067    0.000000    0.670000
    45  Na    c    -1.996013    4.411747    2.327067    0.000000    0.670000
    46  O     c     2.214230    2.200560    6.658957    0.000000    0.489000
    47  O     c     2.214230    6.691702    2.238075    0.000000    0.489000
    48  Na    c     2.214230    2.338061   -4.350048    0.000000    0.670000
    49  Na    c     2.214230    6.636924    0.032208    0.000000    0.670000
    50  Na    c     2.214230   -0.003752    6.927441    0.000000    0.670000
    51  Na    c     2.214230   -4.445463    2.284398    0.000000    0.670000
    52  Cl    c     4.426907   -0.001079   -4.435346    0.000000    0.615000
    53  Cl    c     0.001554   -0.001079   -4.435346    0.000000    0.615000
    54  Cl    c     4.502460   -4.516971   -0.076909    0.000000    0.615000
    55  Cl    c    -0.073999   -4.516971   -0.076909    0.000000    0.615000
    56  Na    c     4.430318    2.235599    6.620204    0.000000    0.670000
    57  Na    c    -0.001857    2.235599    6.620204    0.000000    0.670000
    58  Na    c     4.424186    6.697587    2.207368    0.000000    0.670000
    59  Na    c     0.004275    6.697587    2.207368    0.000000    0.670000
    60  O     c     2.214230    6.622708   -2.185068    0.000000    0.489000
    61  O     c     2.214230   -2.199591    6.631606    0.000000    0.489000
    62  O     c     6.645022   -2.216279   -2.208743    0.000000    0.489000
    63  O     c    -2.216561   -2.216279   -2.208743    0.000000    0.489000
    64  Na    c     2.214230    6.793587    4.443762    0.000000    0.670000
    65  Na    c     2.214230   -2.322133   -4.389412    0.000000    0.670000
    66  Na    c     6.631236   -2.105655    4.431723    0.000000    0.670000
    67  Na    c    -2.202776   -2.105655    4.431723    0.000000    0.670000
    68  Na    c     2.214230    4.408156    6.381903    0.000000    0.670000
    69  Na    c     2.214230   -4.406080   -2.025912    0.000000    0.670000
    70  Na    c     6.613626    4.430261   -2.301125    0.000000    0.670000
    71  Na    c    -2.185165    4.430261   -2.301125    0.000000    0.670000
    72  Cl    c     4.440516    4.435303   -4.447420    0.000000    0.615000
    73  Cl    c    -0.012056    4.435303   -4.447420    0.000000    0.615000
    74  Cl    c     8.901093    0.003082   -0.013449    0.000000    0.615000
    75  Cl    c    -4.472632    0.003082   -0.013449    0.000000    0.615000
    76  Na    c     4.426764   -2.228337    6.595869    0.000000    0.670000
    77  Na    c     0.001697   -2.228337    6.595869    0.000000    0.670000
    78  Na    c     8.835520    2.381243    2.214171    0.000000    0.670000
    79  Na    c    -4.407059    2.381243    2.214171    0.000000    0.670000
    80  Cl    c     4.492913   -4.533646    4.513132    0.000000    0.615000
    81  Cl    c    -0.064452   -4.533646    4.513132    0.000000    0.615000
    82  Na    c     4.429554    6.628462   -2.186708    0.000000    0.670000
    83  Na    c    -0.001093    6.628462   -2.186708    0.000000    0.670000
    84  O     c     6.652104    2.220919    6.659801    0.000000    0.489000
    85  O     c    -2.223643    2.220919    6.659801    0.000000    0.489000
    86  O     c     6.639440    6.632170    2.219789    0.000000    0.489000
    87  O     c    -2.210979    6.632170    2.219789    0.000000    0.489000
    88  Na    c     6.613599    2.121300   -4.408213    0.000000    0.670000
    89  Na    c    -2.185138    2.121300   -4.408213    0.000000    0.670000
    90  Na    c     6.658832    6.538242    0.002809    0.000000    0.670000
    91  Na    c    -2.230371    6.538242    0.002809    0.000000    0.670000
    92  Na    c     6.605041    0.000816    6.739732    0.000000    0.670000
    93  Na    c    -2.176581    0.000816    6.739732    0.000000    0.670000
    94  Na    c     6.413130   -4.402262    2.305299    0.000000    0.670000
    95  Na    c    -1.984669   -4.402262    2.305299    0.000000    0.670000
    96  Cl    c     8.897397    4.435200   -0.007574    0.000000    0.615000
    97  Cl    c    -4.468936    4.435200   -0.007574    0.000000    0.615000
    98  Na    c     8.828620   -2.377399    2.204423    0.000000    0.670000
    99  Na    c    -4.400160   -2.377399    2.204423    0.000000    0.670000
   100  Cl    c     8.884110    0.004620    4.447739    0.000000    0.615000
   101  Cl    c    -4.455649    0.004620    4.447739    0.000000    0.615000
   102  Na    c     8.849608    2.235041   -2.185385    0.000000    0.670000
   103  Na    c    -4.421147    2.235041   -2.185385    0.000000    0.670000
   104  O     c     2.214230    2.215875   -6.600024    0.000000    0.489000
   105  O     c     2.214230   -6.673327    2.216995    0.000000    0.489000
   106  Na    c     2.214230    2.408043    8.858026    0.000000    0.670000
   107  Na    c     2.214230   -6.651095    0.010548    0.000000    0.670000
   108  Na    c     2.214230    0.001920   -6.498677    0.000000    0.670000
   109  Na    c     2.214230    8.887863    2.169615    0.000000    0.670000
   110  O     c     6.648536   -2.217469    6.652840    0.000000    0.489000
   111  O     c    -2.220075   -2.217469    6.652840    0.000000    0.489000
   112  Na    c     6.641253   -2.121442   -4.418152    0.000000    0.670000
   113  Na    c    -2.212792   -2.121442   -4.418152    0.000000    0.670000
   114  Na    c     6.665007    4.432659    6.558372    0.000000    0.670000
   115  Na    c    -2.236546    4.432659    6.558372    0.000000    0.670000
   116  O     c     2.214230    6.633130    6.649288    0.000000    0.489000
   117  O     c     6.649885    6.647589   -2.218435    0.000000    0.489000
   118  O     c    -2.221424    6.647589   -2.218435    0.000000    0.489000
   119  Na    c     2.214230    6.516798   -4.399330    0.000000    0.670000
   120  Na    c     6.621984    6.706482    4.434035    0.000000    0.670000
   121  Na    c    -2.193524    6.706482    4.434035    0.000000    0.670000
   122  Na    c     2.214230   -4.409338    6.414436    0.000000    0.670000
   123  Na    c     6.618770   -4.427565   -2.294616    0.000000    0.670000
   124  Na    c    -2.190309   -4.427565   -2.294616    0.000000    0.670000
   125  Cl    c     4.452263   -0.001071    8.903596    0.000000    0.615000
   126  Cl    c    -0.023802   -0.001071    8.903596    0.000000    0.615000
   127  Cl    c     4.427887    8.891202    0.002825    0.000000    0.615000
   128  Cl    c     0.000574    8.891202    0.002825    0.000000    0.615000
   129  Na    c     4.423784    2.207574   -6.599795    0.000000    0.670000
   130  Na    c     0.004677    2.207574   -6.599795    0.000000    0.670000
   131  Na    c     4.421148   -6.691439    2.196802    0.000000    0.670000
   132  Na    c     0.007313   -6.691439    2.196802    0.000000    0.670000
   133  Cl    c     8.892729    4.434101    4.445549    0.000000    0.615000
   134  Cl    c    -4.464269    4.434101    4.445549    0.000000    0.615000
   135  Na    c     8.852763   -2.230347   -2.177839    0.000000    0.670000
   136  Na    c    -4.424302   -2.230347   -2.177839    0.000000    0.670000
   137  Cl    c     4.437889   -4.433668   -4.457868    0.000000    0.615000
   138  Cl    c    -0.009428   -4.433668   -4.457868    0.000000    0.615000
   139  Na    c     4.431991    6.601437    6.659155    0.000000    0.670000
   140  Na    c    -0.003530    6.601437    6.659155    0.000000    0.670000
   141  O     c     2.214230   -2.214179   -6.619529    0.000000    0.489000
   142  O     c     2.214230   -6.632277   -2.204920    0.000000    0.489000
   143  Na    c     2.214230   -2.395802    8.845086    0.000000    0.670000
   144  Na    c     2.214230   -6.716088    4.425615    0.000000    0.670000
   145  Na    c     2.214230    4.422013   -6.687587    0.000000    0.670000
   146  Na    c     2.214230    8.840612   -2.226448    0.000000    0.670000
   147  Cl    c     4.445876    4.443361    8.907132    0.000000    0.615000
   148  Cl    c    -0.017415    4.443361    8.907132    0.000000    0.615000
   149  Cl    c     4.431525    8.892058    4.434314    0.000000    0.615000
   150  Cl    c    -0.003064    8.892058    4.434314    0.000000    0.615000
   151  Na    c     4.426541   -2.207716   -6.611348    0.000000    0.670000
   152  Na    c     0.001920   -2.207716   -6.611348    0.000000    0.670000
   153  Na    c     4.429360   -6.625789   -2.195177    0.000000    0.670000
   154  Na    c    -0.000899   -6.625789   -2.195177    0.000000    0.670000
   155  Cl    c     8.895969   -4.431493   -0.014401    0.000000    0.615000
   156  Cl    c    -4.467508   -4.431493   -0.014401    0.000000    0.615000
   157  Na    c     8.848241    6.519704    2.234233    0.000000    0.670000
   158  Na    c    -4.419780    6.519704    2.234233    0.000000    0.670000
   159  Cl    c     8.872841    0.002544   -4.444960    0.000000    0.615000
   160  Cl    c    -4.444380    0.002544   -4.444960    0.000000    0.615000
   161  Na    c     8.859035    2.193865    6.656853    0.000000    0.670000
   162  Na    c    -4.430574    2.193865    6.656853    0.000000    0.670000
   163  O     c     6.638767    2.211953   -6.632208    0.000000    0.489000
   164  O     c    -2.210306    2.211953   -6.632208    0.000000    0.489000
   165  O     c     6.633947   -6.624575    2.216393    0.000000    0.489000
   166  O     c    -2.205486   -6.624575    2.216393    0.000000    0.489000
   167  O     c    11.057134    2.213527    2.216615    0.000000    0.489000
   168  O     c    -6.628673    2.213527    2.216615    0.000000    0.489000
   169  Na    c     6.631131    2.284479    8.863671    0.000000    0.670000
   170  Na    c    -2.202670    2.284479    8.863671    0.000000    0.670000
   171  Na    c     6.661450   -6.552395   -0.000297    0.000000    0.670000
   172  Na    c    -2.232989   -6.552395   -0.000297    0.000000    0.670000
   173  Na    c    11.056394    2.162020    0.003865    0.000000    0.670000
   174  Na    c    -6.627933    2.162020    0.003865    0.000000    0.670000
   175  Na    c     6.648515    0.001290   -6.699333    0.000000    0.670000
   176  Na    c    -2.220054    0.001290   -6.699333    0.000000    0.670000
   177  Na    c     6.691266    8.845883    2.151617    0.000000    0.670000
   178  Na    c    -2.262805    8.845883    2.151617    0.000000    0.670000
   179  Na    c    10.918496   -0.001126    2.248541    0.000000    0.670000
   180  Na    c    -6.490036   -0.001126    2.248541    0.000000    0.670000
   181  O     c     6.652986    6.651584    6.650557    0.000000    0.489000
   182  O     c    -2.224525    6.651584    6.650557    0.000000    0.489000
   183  Na    c     6.632873    6.700630   -4.426669    0.000000    0.670000
   184  Na    c    -2.204413    6.700630   -4.426669    0.000000    0.670000
   185  Na    c     6.650975   -4.429065    6.573468    0.000000    0.670000
   186  Na    c    -2.222514   -4.429065    6.573468    0.000000    0.670000
   187  Cl    c     8.892440   -4.430537    4.441683    0.000000    0.615000
   188  Cl    c    -4.463979   -4.430537    4.441683    0.000000    0.615000
   189  Na    c     8.858649    6.629383   -2.218725    0.000000    0.670000
   190  Na    c    -4.430189    6.629383   -2.218725    0.000000    0.670000
   191  Cl    c     8.875927    4.444752   -4.440039    0.000000    0.615000
   192  Cl    c    -4.447466    4.444752   -4.440039    0.000000    0.615000
   193  Na    c     8.855327   -2.195394    6.648149    0.000000    0.670000
   194  Na    c    -4.426866   -2.195394    6.648149    0.000000    0.670000
   195  O     c     6.641342   -2.210400   -6.638723    0.000000    0.489000
   196  O     c    -2.212881   -2.210400   -6.638723    0.000000    0.489000
   197  O     c     6.647831   -6.643992   -2.223025    0.000000    0.489000
   198  O     c    -2.219371   -6.643992   -2.223025    0.000000    0.489000
   199  O     c    11.069855    2.214247   -2.211328    0.000000    0.489000
   200  O     c    -6.641394    2.214247   -2.211328    0.000000    0.489000
   201  O     c    11.053323   -2.215259    2.216607    0.000000    0.489000
   202  O     c    -6.624862   -2.215259    2.216607    0.000000    0.489000
   203  Na    c     6.622152   -2.272956    8.858948    0.000000    0.670000
   204  Na    c    -2.193691   -2.272956    8.858948    0.000000    0.670000
   205  Na    c     6.621149   -6.673111    4.429670    0.000000    0.670000
   206  Na    c    -2.192688   -6.673111    4.429670    0.000000    0.670000
   207  Na    c    11.051865    2.229793    4.430419    0.000000    0.670000
   208  Na    c    -6.623404    2.229793    4.430419    0.000000    0.670000
   209  Na    c    11.065860   -2.173236    0.003211    0.000000    0.670000
   210  Na    c    -6.637399   -2.173236    0.003211    0.000000    0.670000
   211  Na    c     6.632866    4.427500   -6.581372    0.000000    0.670000
   212  Na    c    -2.204406    4.427500   -6.581372    0.000000    0.670000
   213  Na    c     6.646850    8.856617   -2.160752    0.000000    0.670000
   214  Na    c    -2.218389    8.856617   -2.160752    0.000000    0.670000
   215  Na    c    11.046254   -0.000068   -2.251315    0.000000    0.670000
   216  Na    c    -6.617793   -0.000068   -2.251315    0.000000    0.670000
   217  Na    c    11.153833    4.422357    2.186258    0.000000    0.670000
   218  Na    c    -6.725372    4.422357    2.186258    0.000000    0.670000
   219  O     c     2.214230    6.633856   -6.629225    0.000000    0.489000
   220  O     c     2.214230   -6.632273    6.637753    0.000000    0.489000
   221  Na    c     2.214230    6.516700    8.854235    0.000000    0.670000
   222  Na    c     2.214230   -6.560858   -4.417003    0.000000    0.670000
   223  Na    c     2.214230    8.848291    6.734679    0.000000    0.670000
   224  Na    c     2.214230   -4.424854   -6.685807    0.000000    0.670000
   225  Cl    c     4.437156    8.875835   -4.435350    0.000000    0.615000
   226  Cl    c    -0.008695    8.875835   -4.435350    0.000000    0.615000
   227  Cl    c     4.442976   -4.433973    8.900407    0.000000    0.615000
   228  Cl    c    -0.014515   -4.433973    8.900407    0.000000    0.615000
   229  Na    c     4.426280    6.636904   -6.628938    0.000000    0.670000
   230  Na    c     0.002181    6.636904   -6.628938    0.000000    0.670000
   231  Na    c     4.429714   -6.615998    6.650858    0.000000    0.670000
   232  Na    c    -0.001253   -6.615998    6.650858    0.000000    0.670000
   233  O     c    11.072121   -2.213195   -2.213244    0.000000    0.489000
   234  O     c    -6.643661   -2.213195   -2.213244    0.000000    0.489000
   235  Na    c    11.046168   -2.227078    4.429461    0.000000    0.670000
   236  Na    c    -6.617707   -2.227078    4.429461    0.000000    0.670000
   237  Na    c    11.075542    4.427826   -2.176276    0.000000    0.670000
   238  Na    c    -6.647081    4.427826   -2.176276    0.000000    0.670000
   239  O     c     2.214230    2.222393   11.070864    0.000000    0.489000
   240  O     c     2.214230   11.084961    2.213392    0.000000    0.489000
   241  Na    c     2.214230    2.163218   -8.834868    0.000000    0.670000
   242  Na    c     2.214230   11.081007   -0.004500    0.000000    0.670000
   243  Na    c     2.214230   -0.001122   10.974124    0.000000    0.670000
   244  Na    c     2.214230   -8.874423    2.201638    0.000000    0.670000
   245  Cl    c     4.429272    0.001871   -8.875359    0.000000    0.615000
   246  Cl    c    -0.000811    0.001871   -8.875359    0.000000    0.615000
   247  Cl    c     4.429495   -8.889955   -0.003117    0.000000    0.615000
   248  Cl    c    -0.001034   -8.889955   -0.003117    0.000000    0.615000
   249  Cl    c     8.879665    0.004103    8.873649    0.000000    0.615000
   250  Cl    c    -4.451204    0.004103    8.873649    0.000000    0.615000
   251  Cl    c     8.870760    8.879419   -0.008154    0.000000    0.615000
   252  Cl    c    -4.442299    8.879419   -0.008154    0.000000    0.615000
   253  Na    c     4.427855    2.180777   11.065662    0.000000    0.670000
   254  Na    c     0.000605    2.180777   11.065662    0.000000    0.670000
   255  Na    c     4.432607   11.060570    2.225933    0.000000    0.670000
   256  Na    c    -0.004146   11.060570    2.225933    0.000000    0.670000
   257  Na    c     8.852377    2.222931   -6.625731    0.000000    0.670000
   258  Na    c    -4.423916    2.222931   -6.625731    0.000000    0.670000
   259  Na    c     8.846737   -6.545490    2.235368    0.000000    0.670000
   260  Na    c    -4.418276   -6.545490    2.235368    0.000000    0.670000
   261  Cl    c     8.874248   -4.438726   -4.445549    0.000000    0.615000
   262  Cl    c    -4.445787   -4.438726   -4.445549    0.000000    0.615000
   263  Na    c     8.861162    6.653849    6.637196    0.000000    0.670000
   264  Na    c    -4.432702    6.653849    6.637196    0.000000    0.670000
   265  O     c     2.214230   11.067915   -2.218439    0.000000    0.489000
   266  O     c     2.214230   -2.222982   11.065167    0.000000    0.489000
   267  O     c     6.641606    6.646742   -6.641619    0.000000    0.489000
   268  O     c    -2.213145    6.646742   -6.641619    0.000000    0.489000
   269  O     c     6.650185   -6.647955    6.646171    0.000000    0.489000
   270  O     c    -2.221724   -6.647955    6.646171    0.000000    0.489000
   271  O     c    11.075034    2.213934    6.645533    0.000000    0.489000
   272  O     c    -6.646573    2.213934    6.645533    0.000000    0.489000
   273  O     c    11.070430    6.633674    2.215664    0.000000    0.489000
   274  O     c    -6.641969    6.633674    2.215664    0.000000    0.489000
   275  Na    c     2.214230   11.041181    4.432424    0.000000    0.670000
   276  Na    c     2.214230   -2.161273   -8.841935    0.000000    0.670000
   277  Na    c     6.658857    6.598745    8.857265    0.000000    0.670000
   278  Na    c    -2.230396    6.598745    8.857265    0.000000    0.670000
   279  Na    c     6.636147   -6.689345   -4.430153    0.000000    0.670000
   280  Na    c    -2.207686   -6.689345   -4.430153    0.000000    0.670000
   281  Na    c    11.059598    2.238363   -4.424304    0.000000    0.670000
   282  Na    c    -6.631137    2.238363   -4.424304    0.000000    0.670000
   283  Na    c    11.049944    6.664163    0.003225    0.000000    0.670000
   284  Na    c    -6.621483    6.664163    0.003225    0.000000    0.670000
   285  Na    c     2.214230    4.431417   11.149090    0.000000    0.670000
   286  Na    c     2.214230   -8.848279   -2.229668    0.000000    0.670000
   287  Na    c     6.628014    8.857568    6.683709    0.000000    0.670000
   288  Na    c    -2.199553    8.857568    6.683709    0.000000    0.670000
   289  Na    c     6.637411   -4.426937   -6.586959    0.000000    0.670000
   290  Na    c    -2.208950   -4.426937   -6.586959    0.000000    0.670000
   291  Na    c    11.074741   -0.000155    6.631780    0.000000    0.670000
   292  Na    c    -6.646280   -0.000155    6.631780    0.000000    0.670000
   293  Na    c    11.137929   -4.426351    2.197186    0.000000    0.670000
   294  Na    c    -6.709468   -4.426351    2.197186    0.000000    0.670000
   295  Cl    c     4.426295    4.431763   -8.871249    0.000000    0.615000
   296  Cl    c     0.002166    4.431763   -8.871249    0.000000    0.615000
   297  Cl    c     4.433236   -8.885824    4.428170    0.000000    0.615000
   298  Cl    c    -0.004775   -8.885824    4.428170    0.000000    0.615000
   299  Cl    c     8.879866    4.439462    8.876583    0.000000    0.615000
   300  Cl    c    -4.451405    4.439462    8.876583    0.000000    0.615000
   301  Cl    c     8.871775    8.874732    4.434654    0.000000    0.615000
   302  Cl    c    -4.443314    8.874732    4.434654    0.000000    0.615000
   303  Na    c     4.427942   11.050871   -2.218134    0.000000    0.670000
   304  Na    c     0.000519   11.050871   -2.218134    0.000000    0.670000
   305  Na    c     4.428403   -2.190926   11.065328    0.000000    0.670000
   306  Na    c     0.000058   -2.190926   11.065328    0.000000    0.670000
   307  Na    c     8.854043   -2.220648   -6.637161    0.000000    0.670000
   308  Na    c    -4.425582   -2.220648   -6.637161    0.000000    0.670000
   309  Na    c     8.855832   -6.632547   -2.224342    0.000000    0.670000
   310  Na    c    -4.427371   -6.632547   -2.224342    0.000000    0.670000
   311  O     c     2.214230   -6.639799   -6.642700    0.000000    0.489000
   312  Na    c     2.214230   -6.556986    8.848140    0.000000    0.670000
   313  Na    c     2.214230    8.847604   -6.585773    0.000000    0.670000
   314  O     c     6.645083    2.217725   11.077163    0.000000    0.489000
   315  O     c    -2.216622    2.217725   11.077163    0.000000    0.489000
   316  O     c     6.647930   11.069009    2.210117    0.000000    0.489000
   317  O     c    -2.219469   11.069009    2.210117    0.000000    0.489000
   318  O     c    11.074255    6.644721   -2.212151    0.000000    0.489000
   319  O     c    -6.645794    6.644721   -2.212151    0.000000    0.489000
   320  O     c    11.073933   -2.213408    6.644736    0.000000    0.489000
[...]
    251 y          6.642691      6.693845     0.051154    Cartesian    0.77
    251 z          2.214230      2.238104     0.023874    Cartesian    1.08
    252 x          4.428461      4.426989    -0.001472    Cartesian   -0.03
    252 y          0.000000     -0.001219    -0.001219    Cartesian    0.00
    252 z         -4.428461     -4.437010    -0.008549    Cartesian    0.19
    253 x          4.428461      4.506038     0.077578    Cartesian    1.75
    253 y         -4.428461     -4.520321    -0.091860    Cartesian    2.07
    253 z          0.000000     -0.080366    -0.080366    Cartesian    0.00
    254 x          2.214230      2.214230     0.000000    Cartesian    0.00
    254 y          6.642691      6.623293    -0.019398    Cartesian   -0.29
    254 z         -2.214230     -2.184104     0.030127    Cartesian   -1.36
    255 x          2.214230      2.214230     0.000000    Cartesian    0.00
    255 y         -2.214230     -2.199269     0.014962    Cartesian   -0.68
    255 z          6.642691      6.633821    -0.008870    Cartesian   -0.13
    256 x          6.642691      6.645171     0.002479    Cartesian    0.04
    256 y         -2.214230     -2.216785    -0.002554    Cartesian    0.12
    256 z         -2.214230     -2.208825     0.005406    Cartesian   -0.24
    257 x          4.428461      4.440984     0.012523    Cartesian    0.28
    257 y          4.428461      4.435884     0.007423    Cartesian    0.17
    257 z         -4.428461     -4.448981    -0.020520    Cartesian    0.46
    258 x          8.856922      8.902198     0.045276    Cartesian    0.51
    258 y          0.000000      0.003203     0.003203    Cartesian    0.00
    258 z          0.000000     -0.013165    -0.013165    Cartesian    0.00
    259 x          4.428461      4.496127     0.067666    Cartesian    1.53
    259 y         -4.428461     -4.537486    -0.109025    Cartesian    2.46
    259 z          4.428461      4.516237     0.087776    Cartesian    1.98
    260 x          6.642691      6.652632     0.009941    Cartesian    0.15
    260 y          2.214230      2.220913     0.006683    Cartesian    0.30
    260 z          6.642691      6.660158     0.017467    Cartesian    0.26
    261 x          6.642691      6.638826    -0.003865    Cartesian   -0.06
    261 y          6.642691      6.632780    -0.009912    Cartesian   -0.15
    261 z          2.214230      2.220171     0.005940    Cartesian    0.27
    262 x          8.856922      8.898742     0.041821    Cartesian    0.47
    262 y          4.428461      4.435404     0.006943    Cartesian    0.16
    262 z          0.000000     -0.007426    -0.007426    Cartesian    0.00
    263 x          8.856922      8.885370     0.028448    Cartesian    0.32
    263 y          0.000000      0.004893     0.004893    Cartesian    0.00
    263 z          4.428461      4.447756     0.019295    Cartesian    0.44
    264 x          2.214230      2.214230     0.000000    Cartesian    0.00
    264 y          2.214230      2.216581     0.002351    Cartesian    0.11
    264 z         -6.642691     -6.600793     0.041898    Cartesian   -0.63
    265 x          2.214230      2.214230     0.000000    Cartesian    0.00
    265 y         -6.642691     -6.675383    -0.032692    Cartesian    0.49
    265 z          2.214230      2.216873     0.002643    Cartesian    0.12
    266 x          6.642691      6.648896     0.006204    Cartesian    0.09
    266 y         -2.214230     -2.217475    -0.003244    Cartesian    0.15
    266 z          6.642691      6.653443     0.010751    Cartesian    0.16
    267 x          2.214230      2.214230     0.000000    Cartesian    0.00
    267 y          6.642691      6.634318    -0.008374    Cartesian   -0.13
    267 z          6.642691      6.648697     0.006006    Cartesian    0.09
    268 x          6.642691      6.650254     0.007563    Cartesian    0.11
    268 y          6.642691      6.647595     0.004903    Cartesian    0.07
    268 z         -2.214230     -2.219220    -0.004990    Cartesian    0.23
    269 x          4.428461      4.452419     0.023958    Cartesian    0.54
    269 y          0.000000     -0.001093    -0.001093    Cartesian    0.00
    269 z          8.856922      8.904482     0.047561    Cartesian    0.54
    270 x          4.428461      4.427664    -0.000797    Cartesian   -0.02
    270 y          8.856922      8.892373     0.035452    Cartesian    0.40
    270 z          0.000000      0.003128     0.003128    Cartesian    0.00
    271 x          8.856922      8.894172     0.037250    Cartesian    0.42
    271 y          4.428461      4.434278     0.005817    Cartesian    0.13
    271 z          4.428461      4.445586     0.017125    Cartesian    0.39
    272 x          4.428461      4.438283     0.009822    Cartesian    0.22
    272 y         -4.428461     -4.434013    -0.005552    Cartesian    0.13
    272 z         -4.428461     -4.459337    -0.030876    Cartesian    0.70
    273 x          2.214230      2.214230     0.000000    Cartesian    0.00
    273 y         -2.214230     -2.214841    -0.000611    Cartesian    0.03
    273 z         -6.642691     -6.619637     0.023054    Cartesian   -0.35
    274 x          2.214230      2.214230     0.000000    Cartesian    0.00
    274 y         -6.642691     -6.632839     0.009852    Cartesian   -0.15
    274 z         -2.214230     -2.204101     0.010129    Cartesian   -0.46
    275 x          4.428461      4.445886     0.017425    Cartesian    0.39
    275 y          4.428461      4.443740     0.015279    Cartesian    0.35
    275 z          8.856922      8.909053     0.052131    Cartesian    0.59
    276 x          4.428461      4.431301     0.002840    Cartesian    0.06
    276 y          8.856922      8.892759     0.035837    Cartesian    0.40
    276 z          4.428461      4.434203     0.005743    Cartesian    0.13
    277 x          8.856922      8.897491     0.040570    Cartesian    0.46
    277 y         -4.428461     -4.431495    -0.003034    Cartesian    0.07
    277 z          0.000000     -0.014550    -0.014550    Cartesian    0.00
    278 x          8.856922      8.873563     0.016641    Cartesian    0.19
    278 y          0.000000      0.002485     0.002485    Cartesian    0.00
    278 z         -4.428461     -4.445909    -0.017448    Cartesian    0.39
    279 x          6.642691      6.638688    -0.004003    Cartesian   -0.06
    279 y          2.214230      2.211433    -0.002797    Cartesian   -0.13
    279 z         -6.642691     -6.632562     0.010129    Cartesian   -0.15
    280 x          6.642691      6.633053    -0.009639    Cartesian   -0.15
    280 y         -6.642691     -6.625203     0.017489    Cartesian   -0.26
    280 z          2.214230      2.216913     0.002682    Cartesian    0.12
    281 x         11.071152     11.057354    -0.013799    Cartesian   -0.12
    281 y          2.214230      2.214339     0.000109    Cartesian    0.00
    281 z          2.214230      2.216584     0.002354    Cartesian    0.11
    282 x          6.642691      6.653484     0.010793    Cartesian    0.16
    282 y          6.642691      6.652112     0.009421    Cartesian    0.14
    282 z          6.642691      6.650739     0.008048    Cartesian    0.12
    283 x          8.856922      8.894104     0.037182    Cartesian    0.42
    283 y         -4.428461     -4.430586    -0.002125    Cartesian    0.05
    283 z          4.428461      4.441838     0.013378    Cartesian    0.30
    284 x          8.856922      8.876752     0.019831    Cartesian    0.22
    284 y          4.428461      4.445444     0.016983    Cartesian    0.38
    284 z         -4.428461     -4.440699    -0.012238    Cartesian    0.28
    285 x          6.642691      6.641426    -0.001266    Cartesian   -0.02
    285 y         -2.214230     -2.209873     0.004358    Cartesian   -0.20
    285 z         -6.642691     -6.639083     0.003609    Cartesian   -0.05
    286 x          6.642691      6.648178     0.005487    Cartesian    0.08
    286 y         -6.642691     -6.644037    -0.001346    Cartesian    0.02
    286 z         -2.214230     -2.223934    -0.009703    Cartesian    0.44
    287 x         11.071152     11.070098    -0.001054    Cartesian   -0.01
    287 y          2.214230      2.214206    -0.000024    Cartesian   -0.00
    287 z         -2.214230     -2.211340     0.002891    Cartesian   -0.13
    288 x         11.071152     11.053622    -0.017530    Cartesian   -0.16
    288 y         -2.214230     -2.215955    -0.001725    Cartesian    0.08
    288 z          2.214230      2.216685     0.002455    Cartesian    0.11
    289 x          2.214230      2.214230     0.000000    Cartesian    0.00
    289 y          6.642691      6.633319    -0.009373    Cartesian   -0.14
    289 z         -6.642691     -6.630009     0.012683    Cartesian   -0.19
    290 x          2.214230      2.214230     0.000000    Cartesian    0.00
    290 y         -6.642691     -6.633103     0.009588    Cartesian   -0.14
    290 z          6.642691      6.637053    -0.005638    Cartesian   -0.08
    291 x          4.428461      4.437617     0.009156    Cartesian    0.21
    291 y          8.856922      8.876746     0.019824    Cartesian    0.22
    291 z         -4.428461     -4.436026    -0.007565    Cartesian    0.17
    292 x          4.428461      4.443086     0.014625    Cartesian    0.33
    292 y         -4.428461     -4.433757    -0.005296    Cartesian    0.12
    292 z          8.856922      8.902254     0.045333    Cartesian    0.51
    293 x         11.071152     11.072184     0.001032    Cartesian    0.01
    293 y         -2.214230     -2.213176     0.001054    Cartesian   -0.05
    293 z         -2.214230     -2.213370     0.000861    Cartesian   -0.04
    294 x          2.214230      2.214230     0.000000    Cartesian    0.00
    294 y          2.214230      2.223792     0.009562    Cartesian    0.43
    294 z         11.071152     11.071120    -0.000032    Cartesian   -0.00
    295 x          2.214230      2.214230     0.000000    Cartesian    0.00
    295 y         11.071152     11.084244     0.013092    Cartesian    0.12
    295 z          2.214230      2.213167    -0.001064    Cartesian   -0.05
    296 x          4.428461      4.429384     0.000923    Cartesian    0.02
    296 y          0.000000      0.001863     0.001863    Cartesian    0.00
    296 z         -8.856922     -8.876392    -0.019470    Cartesian    0.22
    297 x          4.428461      4.429368     0.000907    Cartesian    0.02
    297 y         -8.856922     -8.891053    -0.034131    Cartesian    0.39
    297 z          0.000000     -0.003048    -0.003048    Cartesian    0.00
    298 x          8.856922      8.880452     0.023530    Cartesian    0.27
    298 y          0.000000      0.004335     0.004335    Cartesian    0.00
    298 z          8.856922      8.874017     0.017095    Cartesian    0.19
    299 x          8.856922      8.871152     0.014230    Cartesian    0.16
    299 y          8.856922      8.880565     0.023644    Cartesian    0.27
    299 z          0.000000     -0.008386    -0.008386    Cartesian    0.00
    300 x          8.856922      8.874888     0.017967    Cartesian    0.20
    300 y         -4.428461     -4.439124    -0.010664    Cartesian    0.24
    300 z         -4.428461     -4.446218    -0.017757    Cartesian    0.40
    301 x          2.214230      2.214230     0.000000    Cartesian    0.00
    301 y         11.071152     11.068356    -0.002796    Cartesian   -0.03
    301 z         -2.214230     -2.218738    -0.004507    Cartesian    0.20
    302 x          2.214230      2.214230     0.000000    Cartesian    0.00
    302 y         -2.214230     -2.224310    -0.010080    Cartesian    0.46
    302 z         11.071152     11.065378    -0.005775    Cartesian   -0.05
    303 x          6.642691      6.641640    -0.001051    Cartesian   -0.02
    303 y          6.642691      6.647373     0.004682    Cartesian    0.07
    303 z         -6.642691     -6.641233     0.001458    Cartesian   -0.02
    304 x          6.642691      6.650677     0.007985    Cartesian    0.12
    304 y         -6.642691     -6.648330    -0.005638    Cartesian    0.08
    304 z          6.642691      6.646162     0.003471    Cartesian    0.05
    305 x         11.071152     11.075069     0.003916    Cartesian    0.04
    305 y          2.214230      2.213866    -0.000365    Cartesian   -0.02
    305 z          6.642691      6.645722     0.003031    Cartesian    0.05
    306 x         11.071152     11.071122    -0.000030    Cartesian   -0.00
    306 y          6.642691      6.633123    -0.009569    Cartesian   -0.14
    306 z          2.214230      2.215597     0.001366    Cartesian    0.06
    307 x          4.428461      4.426309    -0.002152    Cartesian   -0.05
    307 y          4.428461      4.431963     0.003502    Cartesian    0.08
    307 z         -8.856922     -8.871918    -0.014996    Cartesian    0.17
    308 x          4.428461      4.433227     0.004766    Cartesian    0.11
    308 y         -8.856922     -8.886308    -0.029386    Cartesian    0.33
    308 z          4.428461      4.428017    -0.000444    Cartesian   -0.01
    309 x          8.856922      8.880532     0.023610    Cartesian    0.27
    309 y          4.428461      4.439789     0.011328    Cartesian    0.26
    309 z          8.856922      8.877236     0.020314    Cartesian    0.23
    310 x          8.856922      8.872335     0.015413    Cartesian    0.17
    310 y          8.856922      8.875602     0.018680    Cartesian    0.21
    310 z          4.428461      4.434882     0.006421    Cartesian    0.14
    311 x          2.214230      2.214230     0.000000    Cartesian    0.00
    311 y         -6.642691     -6.639283     0.003408    Cartesian   -0.05
    311 z         -6.642691     -6.643564    -0.000872    Cartesian    0.01
    312 x          6.642691      6.645215     0.002524    Cartesian    0.04
    312 y          2.214230      2.218223     0.003992    Cartesian    0.18
    312 z         11.071152     11.077277     0.006125    Cartesian    0.06
    313 x          6.642691      6.648386     0.005695    Cartesian    0.09
    313 y         11.071152     11.069331    -0.001821    Cartesian   -0.02
    313 z          2.214230      2.209651    -0.004580    Cartesian   -0.21
    314 x         11.071152     11.074314     0.003162    Cartesian    0.03
    314 y          6.642691      6.644922     0.002231    Cartesian    0.03
    314 z         -2.214230     -2.212131     0.002100    Cartesian   -0.09
    315 x         11.071152     11.074072     0.002920    Cartesian    0.03
    315 y         -2.214230     -2.213373     0.000857    Cartesian   -0.04
    315 z          6.642691      6.644829     0.002137    Cartesian    0.03
    316 x          4.428461      4.436836     0.008375    Cartesian    0.19
    316 y          8.856922      8.882708     0.025787    Cartesian    0.29
    316 z          8.856922      8.872323     0.015401    Cartesian    0.17
    317 x         13.285383     13.319446     0.034063    Cartesian    0.26
    317 y          0.000000      0.001350     0.001350    Cartesian    0.00
    317 z          0.000000      0.000721     0.000721    Cartesian    0.00
    318 x          2.214230      2.214230     0.000000    Cartesian    0.00
    318 y          6.642691      6.641210    -0.001482    Cartesian   -0.02
    318 z         11.071152     11.075568     0.004416    Cartesian    0.04
    319 x          2.214230      2.214230     0.000000    Cartesian    0.00
    319 y         11.071152     11.069296    -0.001857    Cartesian   -0.02
    319 z          6.642691      6.649180     0.006489    Cartesian    0.10
    320 x          6.642691      6.644135     0.001444    Cartesian    0.02
    320 y         11.071152     11.075927     0.004775    Cartesian    0.04
    320 z         -2.214230     -2.213807     0.000423    Cartesian   -0.02
    321 x          6.642691      6.646467     0.003776    Cartesian    0.06
    321 y         -2.214230     -2.217181    -0.002950    Cartesian    0.13
    321 z         11.071152     11.074909     0.003757    Cartesian    0.03
    322 x          4.428461      4.428389    -0.000072    Cartesian   -0.00
    322 y         -4.428461     -4.434982    -0.006522    Cartesian    0.15
    322 z         -8.856922     -8.877756    -0.020835    Cartesian    0.24
    323 x          4.428461      4.441446     0.012985    Cartesian    0.29
    323 y         -8.856922     -8.879102    -0.022180    Cartesian    0.25
    323 z         -4.428461     -4.445684    -0.017223    Cartesian    0.39
    324 x          8.856922      8.870133     0.013211    Cartesian    0.15
    324 y          8.856922      8.872817     0.015895    Cartesian    0.18
    324 z         -4.428461     -4.444210    -0.015749    Cartesian    0.36
    325 x          8.856922      8.879295     0.022373    Cartesian    0.25
    325 y         -4.428461     -4.437748    -0.009287    Cartesian    0.21
    325 z          8.856922      8.881883     0.024961    Cartesian    0.28
    326 x         13.285383     13.319686     0.034304    Cartesian    0.26
    326 y          0.000000     -0.000595    -0.000595    Cartesian    0.00
    326 z          4.428461      4.431399     0.002938    Cartesian    0.07
    327 x         13.285383     13.306426     0.021044    Cartesian    0.16
    327 y          4.428461      4.436747     0.008286    Cartesian    0.19
    327 z          0.000000      0.001806     0.001806    Cartesian    0.00
    328 x          6.642691      6.644199     0.001508    Cartesian    0.02
    328 y         -6.642691     -6.647211    -0.004520    Cartesian    0.07
    328 z         -6.642691     -6.644361    -0.001670    Cartesian    0.03
    329 x         11.071152     11.072611     0.001459    Cartesian    0.01
    329 y          2.214230      2.217976     0.003745    Cartesian    0.17
    329 z         -6.642691     -6.643287    -0.000596    Cartesian    0.01
    330 x         11.071152     11.074731     0.003579    Cartesian    0.03
    330 y         -6.642691     -6.640374     0.002318    Cartesian   -0.03
    330 z          2.214230      2.215348     0.001118    Cartesian    0.05
    331 x         11.071152     11.076515     0.005363    Cartesian    0.05
    331 y          6.642691      6.645917     0.003226    Cartesian    0.05
    331 z          6.642691      6.645586     0.002895    Cartesian    0.04
--------------------------------------------------------------------------------


  Time to end of optimisation  =       57.6217 seconds


  Peak dynamic memory used =     101.61 MB 


  Timing analysis for GULP :

--------------------------------------------------------------------------------
  Task / Subroutine                                          Time (Seconds)
--------------------------------------------------------------------------------
  Calculation of reciprocal space energy and derivatives          0.0008
  Calculation of reciprocal space energy using symmetry           0.0015
  Calculation of real space energy and derivatives                0.0044
  Calculation of real space energy using symmetry                 0.0136
  Calculation for region 1 energy and derivatives (2-b)          32.9377
  Calculation for region 2a energy                               21.4606
  Calculation for region 2b energy                                0.0084
  Calculation and manipulation of Hessian matrix                  0.1327
  Calculation of matrix inversion                                 2.7680
  Symmetry generation of equivalent positions                     0.0052
--------------------------------------------------------------------------------
  Total CPU time                                                 57.6219
--------------------------------------------------------------------------------


  Dump file written as Na3OCl.grs


  Job Finished at 16:36.06  5th July       2021                               

