********************************************************************************
*                       GENERAL UTILITY LATTICE PROGRAM                        *
*                                 Julian Gale                                  *
*                       Curtin Institute for Computation                       *
*                    School of Molecular and Life Sciences                     *
*                    Curtin University, Western Australia                      *
********************************************************************************
* Version = 5.2.0 * Last modified =  10th September 2020                       *
********************************************************************************
*  optimise     - perform optimisation run                                     *
*  conp         - constant pressure calculation                                *
*  property     - calculate properties for final geometry                      *
*  defect       - perform defect calculation after bulk run                    *
*  compare      - compare initial and final structures                         *
********************************************************************************

  Job Started  at 16:36.01  5th July       2021                               

  Number of CPUs =     1


  Total number of configurations input =      1

********************************************************************************
*  Input for Configuration =   1                                               *
********************************************************************************

  Formula = ClONa3                                                      

  Number of irreducible atoms/shells =       5


  Total number atoms/shells =       7

  Dimensionality = 3               :  Bulk   


  Symmetry :

  Crystal family                   :  Cubic       
  Crystal class  (Groth - 1921)    :  Cubic Hexakisoctahedral              

  Space group (centrosymmetric)    :  P M 3 M         

  Patterson group                  :  P m -3 m 

  Cartesian lattice vectors (Angstroms) :

        4.504000    0.000000    0.000000
        0.000000    4.504000    0.000000
        0.000000    0.000000    4.504000

  Cell parameters (Angstroms/Degrees):

  a =       4.5040    alpha =  90.0000
  b =       4.5040    beta  =  90.0000
  c =       4.5040    gamma =  90.0000

  Initial cell volume =          91.368216 Angs**3

  Temperature of configuration =   0.00     K 

  Pressure of configuration =         0.000 GPa 

  Fractional coordinates of asymmetric unit :

--------------------------------------------------------------------------------
   No.  Atomic       x           y          z         Charge      Occupancy
        Label      (Frac)      (Frac)     (Frac)        (e)         (Frac)  
--------------------------------------------------------------------------------
      1 Cl    c    0.000000    0.000000    0.000000     0.61500    1.000000    
      2 O     c    0.500000    0.500000    0.500000     0.48900    1.000000    
      3 Na    c    0.500000    0.500000    0.000000     0.67000    1.000000    
      4 Cl    s    0.000000    0.000000    0.000000    -1.28500    1.000000    
      5 O     s    0.500000    0.500000    0.500000    -1.82900    1.000000    
--------------------------------------------------------------------------------


  Constraints : 

--------------------------------------------------------------------------------
  Constraint no.      Unconstrained     Constrained    Coefficient    Offset
                         Variable         Variable
--------------------------------------------------------------------------------
           1              Strain 1        Strain 2       1.00000      0.0000
           2              Strain 1        Strain 3       1.00000      0.0000
--------------------------------------------------------------------------------


********************************************************************************
*  General input information                                                   *
********************************************************************************

  Species output for all configurations : 

--------------------------------------------------------------------------------
  Species    Type    Atomic    Atomic    Charge       Radii (Angs)     Library
                     Number     Mass       (e)     Cova   Ionic  VDW   Symbol
--------------------------------------------------------------------------------
    Na       Core       11      22.99   0.670000   0.970  0.000  2.300          
    O        Core        8      16.00   0.489000   0.730  0.000  1.360          
    O        Shell       8       0.00  -1.829000   0.730  0.000  1.360          
    Cl       Core       17      35.45   0.615000   0.990  0.000  1.650          
    Cl       Shell      17       0.00  -1.285000   0.990  0.000  1.650          
--------------------------------------------------------------------------------


  Lattice summation method               =    Ewald          (3-D)
                                         =    Parry          (2-D)
                                         =    Saunders et al (1-D)
  Accuracy factor for lattice sums       =   12.000


  Analytic derivatives to be used

  Time limit = Infinity

  Maximum range for interatomic potentials =    100000.000000 Angstroms

  General interatomic potentials :

--------------------------------------------------------------------------------
Atom  Types   Potential      Parameter       Value         Units   Cutoffs(Ang)
  1     2                                                            Min /  Max 
--------------------------------------------------------------------------------
O    c O    s Spring (c-s)  Spring k 2       34.450000    eV*Ang^-2 0.000  0.800
                            Spring k 4       0.0000000    eV*Ang^-4 
--------------------------------------------------------------------------------
Cl   c Cl   s Spring (c-s)  Spring k 2       28.250000    eV*Ang^-2 0.000  0.800
                            Spring k 4       0.0000000    eV*Ang^-4 
--------------------------------------------------------------------------------
Na   c Na   c Buckingham    Buckingham A     996.28210    eV        0.000 12.000
                            Buckingham rho  0.28830000    Ang       
                            Buckingham C     0.0000000    eV*Ang^6  
--------------------------------------------------------------------------------
Na   c O    s Buckingham    Buckingham A     12439.222    eV        0.000 12.000
                            Buckingham rho  0.20150000    Ang       
                            Buckingham C     0.0000000    eV*Ang^6  
--------------------------------------------------------------------------------
Na   c Cl   s Buckingham    Buckingham A     20907.738    eV        0.000 12.000
                            Buckingham rho  0.21660000    Ang       
                            Buckingham C     0.0000000    eV*Ang^6  
--------------------------------------------------------------------------------
O    s O    s Buckingham    Buckingham A     35546.853    eV        0.000 12.000
                            Buckingham rho  0.12056000    Ang       
                            Buckingham C     13.190000    eV*Ang^6  
--------------------------------------------------------------------------------
O    s Cl   s Buckingham    Buckingham A     47777.071    eV        0.000 12.000
                            Buckingham rho  0.24370000    Ang       
                            Buckingham C     62.200000    eV*Ang^6  
--------------------------------------------------------------------------------
Cl   s Cl   s Buckingham    Buckingham A     35155.254    eV        0.000 12.000
                            Buckingham rho  0.21360000    Ang       
                            Buckingham C     14.530000    eV*Ang^6  
--------------------------------------------------------------------------------

********************************************************************************
*  Output for configuration   1                                                *
********************************************************************************


  Components of energy : 

--------------------------------------------------------------------------------
  Interatomic potentials     =           1.21745275 eV    
  Monopole - monopole (real) =          -4.50527050 eV    
  Monopole - monopole (recip)=         -13.25862634 eV    
  Monopole - monopole (total)=         -17.76389683 eV    
--------------------------------------------------------------------------------
  Total lattice energy       =         -16.54644409 eV    
--------------------------------------------------------------------------------
  Total lattice energy       =           -1596.4789 kJ/(mole unit cells)
--------------------------------------------------------------------------------


  Number of variables =        1

  Maximum number of calculations  =          1000
  Maximum Hessian update interval =            10
  Maximum step size               =   1.000000000
  Maximum parameter tolerance     =   0.000010000
  Maximum function  tolerance     =   0.000010000
  Maximum gradient  tolerance     =   0.001000000
  Maximum gradient  component     =   0.010000000

  Symmetry constrained optimisation

  Symmetry used for second derivatives

  Cell parameters to be optimised using strains

  Newton-Raphson optimiser to be used

  BFGS hessian update to be used

  Lower half triangular hessian to be used

  Start of bulk optimisation :

  Cycle:      0 Energy:       -16.546444  Gnorm:      2.744113  CPU:    0.020
  ** Hessian calculated **
  Cycle:      1 Energy:       -16.570356  Gnorm:      0.030142  CPU:    0.026
  Cycle:      2 Energy:       -16.570358  Gnorm:      0.003103  CPU:    0.030


  **** Optimisation achieved ****


  Final energy =     -16.57035847 eV
  Final Gnorm  =       0.00000012

  Components of energy : 

--------------------------------------------------------------------------------
  Interatomic potentials     =           1.49654868 eV    
  Monopole - monopole (real) =          -4.58211982 eV    
  Monopole - monopole (recip)=         -13.48478733 eV    
  Monopole - monopole (total)=         -18.06690714 eV    
--------------------------------------------------------------------------------
  Total lattice energy       =         -16.57035847 eV    
--------------------------------------------------------------------------------
  Total lattice energy       =           -1598.7863 kJ/(mole unit cells)
--------------------------------------------------------------------------------

  Final asymmetric unit coordinates :

--------------------------------------------------------------------------------
   No.  Atomic        x           y           z         Radius
        Label       (Frac)      (Frac)      (Frac)       (Angs) 
--------------------------------------------------------------------------------
     1  Cl    c     0.000000    0.000000    0.000000    0.000000
     2  O     c     0.500000    0.500000    0.500000    0.000000
     3  Na    c     0.500000    0.500000    0.000000    0.000000
     4  Cl    s     0.000000    0.000000    0.000000    0.000000
     5  O     s     0.500000    0.500000    0.500000    0.000000
--------------------------------------------------------------------------------

  Final Cartesian lattice vectors (Angstroms) :

        4.428461    0.000000    0.000000
        0.000000    4.428461    0.000000
        0.000000    0.000000    4.428461


  Final cell parameters and derivatives :

--------------------------------------------------------------------------------
       a            4.428461 Angstrom     dE/de1(xx)     0.000000 eV/strain
       b            4.428461 Angstrom     dE/de2(yy)     0.000000 eV/strain
       c            4.428461 Angstrom     dE/de3(zz)     0.000000 eV/strain
       alpha       90.000000 Degrees      dE/de4(yz)     0.000000 eV/strain
       beta        90.000000 Degrees      dE/de5(xz)     0.000000 eV/strain
       gamma       90.000000 Degrees      dE/de6(xy)     0.000000 eV/strain
--------------------------------------------------------------------------------

  Primitive cell volume =            86.847723 Angs**3

  Density of cell =      2.302482 g/cm**3

  Non-primitive cell volume =            86.847723 Angs**3


  Final internal derivatives :

--------------------------------------------------------------------------------
   No.  Atomic          a             b             c           Radius
        Label          (eV)          (eV)          (eV)        (eV/Angs)
--------------------------------------------------------------------------------
      1 Cl    c       0.000000      0.000000      0.000000      0.000000
      2 O     c       0.000000      0.000000      0.000000      0.000000
      3 Na    c       0.000000      0.000000      0.000000      0.000000
      4 Cl    s       0.000000      0.000000      0.000000      0.000000
      5 O     s       0.000000      0.000000      0.000000      0.000000
--------------------------------------------------------------------------------
  Maximum abs         0.000000      0.000000      0.000000      0.000000
--------------------------------------------------------------------------------

  Comparison of initial and final structures : 

--------------------------------------------------------------------------------
  Parameter   Initial value   Final value   Difference    Units      Percent
--------------------------------------------------------------------------------
    Volume        91.368216     86.847723    -4.520493    Angs**3     -4.95
    a              4.504000      4.428461    -0.075539    Angstroms   -1.68
    b              4.504000      4.428461    -0.075539    Angstroms   -1.68
    c              4.504000      4.428461    -0.075539    Angstroms   -1.68
    alpha         90.000000     90.000000     0.000000    Degrees      0.00
    beta          90.000000     90.000000     0.000000    Degrees      0.00
    gamma         90.000000     90.000000     0.000000    Degrees      0.00
      1 x          0.000000      0.000000     0.000000    Fractional   0.00
      1 y          0.000000      0.000000     0.000000    Fractional   0.00
      1 z          0.000000      0.000000     0.000000    Fractional   0.00
      2 x          0.500000      0.500000     0.000000    Fractional   0.00
      2 y          0.500000      0.500000     0.000000    Fractional   0.00
      2 z          0.500000      0.500000     0.000000    Fractional   0.00
      3 x          0.500000      0.500000     0.000000    Fractional   0.00
      3 y          0.500000      0.500000     0.000000    Fractional   0.00
      3 z          0.000000      0.000000     0.000000    Fractional   0.00
      4 x          0.000000      0.000000     0.000000    Fractional   0.00
      4 y          0.000000      0.000000     0.000000    Fractional   0.00
      4 z          0.000000      0.000000     0.000000    Fractional   0.00
      5 x          0.500000      0.500000     0.000000    Fractional   0.00
      5 y          0.500000      0.500000     0.000000    Fractional   0.00
      5 z          0.500000      0.500000     0.000000    Fractional   0.00
--------------------------------------------------------------------------------


  Born effective charge tensors : 

-------------------------------------------------------------------------------
  Atom             x           y             z
-------------------------------------------------------------------------------
    1 Cl    x      -0.6995     -0.0000     -0.0000
            y      -0.0000     -0.6995     -0.0000
            z      -0.0000     -0.0000     -0.6995
-------------------------------------------------------------------------------
    2 O     x      -1.0805      0.0000      0.0000
            y       0.0000     -1.0805      0.0000
            z       0.0000      0.0000     -1.0805
-------------------------------------------------------------------------------
    3 Na    x       0.6486      0.0000     -0.0000
            y       0.0000      0.6486      0.0000
            z      -0.0000      0.0000      0.4827
-------------------------------------------------------------------------------




  Elastic Constant Matrix: (Units=GPa)

-------------------------------------------------------------------------------
  Indices      1         2         3         4         5         6    
-------------------------------------------------------------------------------
       1     77.0757   16.0262   16.0262   -0.0000   -0.0000   -0.0000
       2     16.0262   77.0757   16.0262   -0.0000   -0.0000    0.0000
       3     16.0262   16.0262   77.0757    0.0000    0.0000    0.0000
       4     -0.0000   -0.0000    0.0000   16.0262    0.0000   -0.0000
       5     -0.0000   -0.0000    0.0000    0.0000   16.0262   -0.0000
       6     -0.0000    0.0000    0.0000   -0.0000   -0.0000   16.0262
-------------------------------------------------------------------------------


  Elastic Compliance Matrix: (Units=1/GPa)

-------------------------------------------------------------------------------
  Indices      1         2         3         4         5         6    
-------------------------------------------------------------------------------
       1    0.013975 -0.002406 -0.002406  0.000000  0.000000  0.000000
       2   -0.002406  0.013975 -0.002406  0.000000  0.000000 -0.000000
       3   -0.002406 -0.002406  0.013975 -0.000000 -0.000000 -0.000000
       4    0.000000  0.000000 -0.000000  0.062398 -0.000000  0.000000
       5    0.000000  0.000000 -0.000000 -0.000000  0.062398  0.000000
       6    0.000000 -0.000000 -0.000000  0.000000  0.000000  0.062398
-------------------------------------------------------------------------------

  Mechanical properties :

-------------------------------------------------------------------------------
  Convention :                    Reuss         Voigt         Hill
-------------------------------------------------------------------------------
  Bulk  Modulus (GPa)     =      36.37603      36.37603      36.37603
  Shear Modulus (GPa)     =      19.78520      21.82562      20.80541
-------------------------------------------------------------------------------
  Velocity S-wave (km/s)  =       2.93138       3.07883       3.00601
  Velocity P-wave (km/s)  =       5.22072       5.33268       5.27700
-------------------------------------------------------------------------------
  Compressibility (1/GPa) =    0.02749063
-------------------------------------------------------------------------------
  Stress axis :                     x             y             z
-------------------------------------------------------------------------------
  Youngs Moduli (GPa)     =      71.55833      71.55833      71.55833
-------------------------------------------------------------------------------
  Poissons Ratio (x)      =                     0.17214       0.17214
  Poissons Ratio (y)      =       0.17214                     0.17214
  Poissons Ratio (z)      =       0.17214       0.17214
-------------------------------------------------------------------------------


  Piezoelectric Strain Matrix: (Units=C/m**2)

-------------------------------------------------------------------------------
  Indices      1         2         3         4         5         6    
-------------------------------------------------------------------------------
       x    -0.00000  -0.00000  -0.00000  -0.00000  -0.00000   0.00000
       y     0.00000   0.00000   0.00000  -0.00000  -0.00000  -0.00000
       z     0.00000   0.00000  -0.00000   0.00000  -0.00000  -0.00000
-------------------------------------------------------------------------------


  Piezoelectric Stress Matrix: (Units=10**-11 C/N)

-------------------------------------------------------------------------------
  Indices      1         2         3         4         5         6    
-------------------------------------------------------------------------------
       x    -0.00000  -0.00000  -0.00000  -0.00000  -0.00000   0.00000
       y     0.00000   0.00000   0.00000  -0.00000  -0.00000  -0.00000
       z     0.00000   0.00000  -0.00000   0.00000  -0.00000  -0.00000
-------------------------------------------------------------------------------


  Static dielectric constant tensor : 

-------------------------------------------------------------------------------
              x         y         z
-------------------------------------------------------------------------------
       x     5.77918   0.00000   0.00000
       y     0.00000   5.77918   0.00000
       z     0.00000   0.00000   5.77918
--------------------------------------------------------------------------------

  High frequency dielectric constant tensor : 

-------------------------------------------------------------------------------
              x         y         z
-------------------------------------------------------------------------------
       x     1.30980  -0.00000  -0.00000
       y    -0.00000   1.30980  -0.00000
       z    -0.00000  -0.00000   1.30980
-------------------------------------------------------------------------------

  Static refractive indices : 

-------------------------------------------------------------------------------
    1 =    2.40399      2 =    2.40399      3 =    2.40399
-------------------------------------------------------------------------------

  High frequency refractive indices : 

-------------------------------------------------------------------------------
    1 =    1.14447      2 =    1.14447      3 =    1.14447
-------------------------------------------------------------------------------


  Time to end of optimisation =       0.0775 seconds

********************************************************************************
*  Defect calculation for configuration   1 :                                  *
********************************************************************************

  Total number of defects =      3

  Total charge on defect  =  -0.67

  Defect centre is at   0.5000   0.2500   0.2500  Frac

  Region 1 radius =  12.0000      Number of ions =    575

  Number of symmetry inequivalent region 1 ions  =    331

  Region 2 radius =  16.0000      Number of ions =    818

  Number of symmetry inequivalent region 2a ions =    447

  Region 2a mode = 4 : screened electrostatics due to region 1 
                       neglect correction to region 1 forces from 2a
                       region 2a displacements based on defects only

  Region 2a ions will only interact with defects in region 1

  Vacancies:

--------------------------------------------------------------------------------
    Specification type     Symbol/Number         x          y          z
--------------------------------------------------------------------------------
    Fractional                               0.500000   0.500000   0.000000
    Fractional                               0.500000   0.000000   0.500000
--------------------------------------------------------------------------------

  Interstitials:

--------------------------------------------------------------------------------
    Specification type     Symbol/Number         x          y          z
--------------------------------------------------------------------------------
    Atom/Fractional         Na               0.500000   0.500000   0.000000
--------------------------------------------------------------------------------


  Symmetry reduced region 1 (Relative to defect centre) :

--------------------------------------------------------------------------------
   No.   Atomic       x            y             z       Radius  Multiplicity   
         Label      (Angs)       (Angs)        (Angs)    (Angs)     
--------------------------------------------------------------------------------
     1  O     c      0.0000       1.1071 *     1.1071 *  0.0000     1          
     2  Na    c      0.0000       1.1071      -1.1071    0.0000     1          
     3  Cl    c      2.2142 *    -1.1071 *    -1.1071 *  0.0000     2          
     4  Na    c      2.2142 *     1.1071 *     1.1071 *  0.0000     2          
     5  O     c      0.0000       1.1071 *    -3.3213 *  0.0000     1          
     6  O     c      0.0000      -3.3213 *     1.1071 *  0.0000     1          
     7  Na    c      0.0000       1.1071 *     3.3213 *  0.0000     1          
     8  Na    c      0.0000      -3.3213 *    -1.1071 *  0.0000     1          
     9  Na    c      0.0000      -1.1071 *    -3.3213 *  0.0000     1          
    10  Na    c      0.0000       3.3213 *     1.1071 *  0.0000     1          
    11  Cl    c      2.2142 *    -1.1071 *     3.3213 *  0.0000     2          
    12  Cl    c      2.2142 *     3.3213 *    -1.1071 *  0.0000     2          
    13  Na    c      2.2142 *     1.1071 *    -3.3213 *  0.0000     2          
    14  Na    c      2.2142 *    -3.3213 *     1.1071 *  0.0000     2          
    15  O     c      4.4285 *     1.1071 *     1.1071 *  0.0000     2          
    16  Na    c      4.4285 *     1.1071 *    -1.1071 *  0.0000     2          
    17  Na    c      4.4285 *    -1.1071 *     1.1071 *  0.0000     2          
    18  O     c      0.0000      -3.3213 *    -3.3213 *  0.0000     1          
    19  Na    c      0.0000      -3.3213 *     3.3213 *  0.0000     1          
    20  Na    c      0.0000       3.3213 *    -3.3213 *  0.0000     1          
    21  Cl    c      2.2142 *     3.3213 *     3.3213 *  0.0000     2          
    22  Na    c      2.2142 *    -3.3213 *    -3.3213 *  0.0000     2          
    23  O     c      4.4285 *     1.1071 *    -3.3213 *  0.0000     2          
    24  Na    c      4.4285 *     1.1071 *     3.3213 *  0.0000     2          
    25  Na    c      4.4285 *    -1.1071 *    -3.3213 *  0.0000     2          
    26  O     c      4.4285 *    -3.3213 *     1.1071 *  0.0000     2          
    27  Na    c      4.4285 *    -3.3213 *    -1.1071 *  0.0000     2          
    28  Na    c      4.4285 *     3.3213 *     1.1071 *  0.0000     2          
    29  O     c      0.0000       1.1071 *     5.5356 *  0.0000     1          
    30  O     c      0.0000       5.5356 *     1.1071 *  0.0000     1          
    31  Na    c      0.0000       1.1071 *    -5.5356 *  0.0000     1          
    32  Na    c      0.0000       5.5356 *    -1.1071 *  0.0000     1          
    33  Na    c      0.0000      -1.1071 *     5.5356 *  0.0000     1          
    34  Na    c      0.0000      -5.5356 *     1.1071 *  0.0000     1          
    35  Cl    c      2.2142 *    -1.1071 *    -5.5356 *  0.0000     2          
    36  Cl    c      2.2142 *    -5.5356 *    -1.1071 *  0.0000     2          
    37  Na    c      2.2142 *     1.1071 *     5.5356 *  0.0000     2          
    38  Na    c      2.2142 *     5.5356 *     1.1071 *  0.0000     2          
    39  O     c      0.0000       5.5356 *    -3.3213 *  0.0000     1          
    40  O     c      0.0000      -3.3213 *     5.5356 *  0.0000     1          
    41  O     c      4.4285 *    -3.3213 *    -3.3213 *  0.0000     2          
    42  Na    c      0.0000       5.5356 *     3.3213 *  0.0000     1          
    43  Na    c      0.0000      -3.3213 *    -5.5356 *  0.0000     1          
    44  Na    c      4.4285 *    -3.3213 *     3.3213 *  0.0000     2          
    45  Na    c      0.0000       3.3213 *     5.5356 *  0.0000     1          
    46  Na    c      0.0000      -5.5356 *    -3.3213 *  0.0000     1          
    47  Na    c      4.4285 *     3.3213 *    -3.3213 *  0.0000     2          
    48  Cl    c      2.2142 *     3.3213 *    -5.5356 *  0.0000     2          
    49  Cl    c      6.6427 *    -1.1071 *    -1.1071 *  0.0000     2          
    50  Na    c      2.2142 *    -3.3213 *     5.5356 *  0.0000     2          
    51  Na    c      6.6427 *     1.1071 *     1.1071 *  0.0000     2          
    52  Cl    c      2.2142 *    -5.5356 *     3.3213 *  0.0000     2          
    53  Na    c      2.2142 *     5.5356 *    -3.3213 *  0.0000     2          
    54  O     c      4.4285 *     1.1071 *     5.5356 *  0.0000     2          
    55  O     c      4.4285 *     5.5356 *     1.1071 *  0.0000     2          
    56  Na    c      4.4285 *     1.1071 *    -5.5356 *  0.0000     2          
    57  Na    c      4.4285 *     5.5356 *    -1.1071 *  0.0000     2          
    58  Na    c      4.4285 *    -1.1071 *     5.5356 *  0.0000     2          
    59  Na    c      4.4285 *    -5.5356 *     1.1071 *  0.0000     2          
    60  Cl    c      6.6427 *     3.3213 *    -1.1071 *  0.0000     2          
    61  Na    c      6.6427 *    -3.3213 *     1.1071 *  0.0000     2          
    62  Cl    c      6.6427 *    -1.1071 *     3.3213 *  0.0000     2          
    63  Na    c      6.6427 *     1.1071 *    -3.3213 *  0.0000     2          
    64  O     c      0.0000       1.1071 *    -7.7498 *  0.0000     1          
    65  O     c      0.0000      -7.7498 *     1.1071 *  0.0000     1          
    66  Na    c      0.0000       1.1071 *     7.7498 *  0.0000     1          
    67  Na    c      0.0000      -7.7498 *    -1.1071 *  0.0000     1          
    68  Na    c      0.0000      -1.1071 *    -7.7498 *  0.0000     1          
    69  Na    c      0.0000       7.7498 *     1.1071 *  0.0000     1          
    70  O     c      4.4285 *    -3.3213 *     5.5356 *  0.0000     2          
    71  Na    c      4.4285 *    -3.3213 *    -5.5356 *  0.0000     2          
    72  Na    c      4.4285 *     3.3213 *     5.5356 *  0.0000     2          
    73  O     c      0.0000       5.5356 *     5.5356 *  0.0000     1          
    74  O     c      4.4285 *     5.5356 *    -3.3213 *  0.0000     2          
    75  Na    c      0.0000       5.5356 *    -5.5356 *  0.0000     1          
    76  Na    c      4.4285 *     5.5356 *     3.3213 *  0.0000     2          
    77  Na    c      0.0000      -5.5356 *     5.5356 *  0.0000     1          
    78  Na    c      4.4285 *    -5.5356 *    -3.3213 *  0.0000     2          
    79  Cl    c      2.2142 *    -1.1071 *     7.7498 *  0.0000     2          
    80  Cl    c      2.2142 *     7.7498 *    -1.1071 *  0.0000     2          
    81  Na    c      2.2142 *     1.1071 *    -7.7498 *  0.0000     2          
    82  Na    c      2.2142 *    -7.7498 *     1.1071 *  0.0000     2          
    83  Cl    c      6.6427 *     3.3213 *     3.3213 *  0.0000     2          
    84  Na    c      6.6427 *    -3.3213 *    -3.3213 *  0.0000     2          
    85  Cl    c      2.2142 *    -5.5356 *    -5.5356 *  0.0000     2          
    86  Na    c      2.2142 *     5.5356 *     5.5356 *  0.0000     2          
    87  O     c      0.0000      -3.3213 *    -7.7498 *  0.0000     1          
    88  O     c      0.0000      -7.7498 *    -3.3213 *  0.0000     1          
    89  Na    c      0.0000      -3.3213 *     7.7498 *  0.0000     1          
    90  Na    c      0.0000      -7.7498 *     3.3213 *  0.0000     1          
    91  Na    c      0.0000       3.3213 *    -7.7498 *  0.0000     1          
    92  Na    c      0.0000       7.7498 *    -3.3213 *  0.0000     1          
    93  Cl    c      2.2142 *     3.3213 *     7.7498 *  0.0000     2          
    94  Cl    c      2.2142 *     7.7498 *     3.3213 *  0.0000     2          
    95  Na    c      2.2142 *    -3.3213 *    -7.7498 *  0.0000     2          
    96  Na    c      2.2142 *    -7.7498 *    -3.3213 *  0.0000     2          
    97  Cl    c      6.6427 *    -5.5356 *    -1.1071 *  0.0000     2          
    98  Na    c      6.6427 *     5.5356 *     1.1071 *  0.0000     2          
    99  Cl    c      6.6427 *    -1.1071 *    -5.5356 *  0.0000     2          
   100  Na    c      6.6427 *     1.1071 *     5.5356 *  0.0000     2          
   101  O     c      4.4285 *     1.1071 *    -7.7498 *  0.0000     2          
   102  O     c      4.4285 *    -7.7498 *     1.1071 *  0.0000     2          
   103  O     c      8.8569 *     1.1071 *     1.1071 *  0.0000     2          
   104  Na    c      4.4285 *     1.1071 *     7.7498 *  0.0000     2          
   105  Na    c      4.4285 *    -7.7498 *    -1.1071 *  0.0000     2          
   106  Na    c      8.8569 *     1.1071 *    -1.1071 *  0.0000     2          
   107  Na    c      4.4285 *    -1.1071 *    -7.7498 *  0.0000     2          
   108  Na    c      4.4285 *     7.7498 *     1.1071 *  0.0000     2          
   109  Na    c      8.8569 *    -1.1071 *     1.1071 *  0.0000     2          
   110  O     c      4.4285 *     5.5356 *     5.5356 *  0.0000     2          
   111  Na    c      4.4285 *     5.5356 *    -5.5356 *  0.0000     2          
   112  Na    c      4.4285 *    -5.5356 *     5.5356 *  0.0000     2          
   113  Cl    c      6.6427 *    -5.5356 *     3.3213 *  0.0000     2          
   114  Na    c      6.6427 *     5.5356 *    -3.3213 *  0.0000     2          
   115  Cl    c      6.6427 *     3.3213 *    -5.5356 *  0.0000     2          
   116  Na    c      6.6427 *    -3.3213 *     5.5356 *  0.0000     2          
   117  O     c      4.4285 *    -3.3213 *    -7.7498 *  0.0000     2          
   118  O     c      4.4285 *    -7.7498 *    -3.3213 *  0.0000     2          
   119  O     c      8.8569 *     1.1071 *    -3.3213 *  0.0000     2          
   120  O     c      8.8569 *    -3.3213 *     1.1071 *  0.0000     2          
   121  Na    c      4.4285 *    -3.3213 *     7.7498 *  0.0000     2          
   122  Na    c      4.4285 *    -7.7498 *     3.3213 *  0.0000     2          
   123  Na    c      8.8569 *     1.1071 *     3.3213 *  0.0000     2          
   124  Na    c      8.8569 *    -3.3213 *    -1.1071 *  0.0000     2          
   125  Na    c      4.4285 *     3.3213 *    -7.7498 *  0.0000     2          
   126  Na    c      4.4285 *     7.7498 *    -3.3213 *  0.0000     2          
   127  Na    c      8.8569 *    -1.1071 *    -3.3213 *  0.0000     2          
   128  Na    c      8.8569 *     3.3213 *     1.1071 *  0.0000     2          
   129  O     c      0.0000       5.5356 *    -7.7498 *  0.0000     1          
   130  O     c      0.0000      -7.7498 *     5.5356 *  0.0000     1          
   131  Na    c      0.0000       5.5356 *     7.7498 *  0.0000     1          
   132  Na    c      0.0000      -7.7498 *    -5.5356 *  0.0000     1          
   133  Na    c      0.0000       7.7498 *     5.5356 *  0.0000     1          
   134  Na    c      0.0000      -5.5356 *    -7.7498 *  0.0000     1          
   135  Cl    c      2.2142 *     7.7498 *    -5.5356 *  0.0000     2          
   136  Cl    c      2.2142 *    -5.5356 *     7.7498 *  0.0000     2          
   137  Na    c      2.2142 *     5.5356 *    -7.7498 *  0.0000     2          
   138  Na    c      2.2142 *    -7.7498 *     5.5356 *  0.0000     2          
   139  O     c      8.8569 *    -3.3213 *    -3.3213 *  0.0000     2          
   140  Na    c      8.8569 *    -3.3213 *     3.3213 *  0.0000     2          
   141  Na    c      8.8569 *     3.3213 *    -3.3213 *  0.0000     2          
   142  O     c      0.0000       1.1071 *     9.9640 *  0.0000     1          
   143  O     c      0.0000       9.9640 *     1.1071 *  0.0000     1          
   144  Na    c      0.0000       1.1071 *    -9.9640 *  0.0000     1          
   145  Na    c      0.0000       9.9640 *    -1.1071 *  0.0000     1          
   146  Na    c      0.0000      -1.1071 *     9.9640 *  0.0000     1          
   147  Na    c      0.0000      -9.9640 *     1.1071 *  0.0000     1          
   148  Cl    c      2.2142 *    -1.1071 *    -9.9640 *  0.0000     2          
   149  Cl    c      2.2142 *    -9.9640 *    -1.1071 *  0.0000     2          
   150  Cl    c      6.6427 *    -1.1071 *     7.7498 *  0.0000     2          
   151  Cl    c      6.6427 *     7.7498 *    -1.1071 *  0.0000     2          
   152  Na    c      2.2142 *     1.1071 *     9.9640 *  0.0000     2          
   153  Na    c      2.2142 *     9.9640 *     1.1071 *  0.0000     2          
   154  Na    c      6.6427 *     1.1071 *    -7.7498 *  0.0000     2          
   155  Na    c      6.6427 *    -7.7498 *     1.1071 *  0.0000     2          
   156  Cl    c      6.6427 *    -5.5356 *    -5.5356 *  0.0000     2          
   157  Na    c      6.6427 *     5.5356 *     5.5356 *  0.0000     2          
   158  O     c      0.0000       9.9640 *    -3.3213 *  0.0000     1          
   159  O     c      0.0000      -3.3213 *     9.9640 *  0.0000     1          
   160  O     c      4.4285 *     5.5356 *    -7.7498 *  0.0000     2          
   161  O     c      4.4285 *    -7.7498 *     5.5356 *  0.0000     2          
   162  O     c      8.8569 *     1.1071 *     5.5356 *  0.0000     2          
   163  O     c      8.8569 *     5.5356 *     1.1071 *  0.0000     2          
   164  Na    c      0.0000       9.9640 *     3.3213 *  0.0000     1          
   165  Na    c      0.0000      -3.3213 *    -9.9640 *  0.0000     1          
   166  Na    c      4.4285 *     5.5356 *     7.7498 *  0.0000     2          
   167  Na    c      4.4285 *    -7.7498 *    -5.5356 *  0.0000     2          
   168  Na    c      8.8569 *     1.1071 *    -5.5356 *  0.0000     2          
   169  Na    c      8.8569 *     5.5356 *    -1.1071 *  0.0000     2          
   170  Na    c      0.0000       3.3213 *     9.9640 *  0.0000     1          
   171  Na    c      0.0000      -9.9640 *    -3.3213 *  0.0000     1          
   172  Na    c      4.4285 *     7.7498 *     5.5356 *  0.0000     2          
   173  Na    c      4.4285 *    -5.5356 *    -7.7498 *  0.0000     2          
   174  Na    c      8.8569 *    -1.1071 *     5.5356 *  0.0000     2          
   175  Na    c      8.8569 *    -5.5356 *     1.1071 *  0.0000     2          
   176  Cl    c      2.2142 *     3.3213 *    -9.9640 *  0.0000     2          
   177  Cl    c      2.2142 *    -9.9640 *     3.3213 *  0.0000     2          
   178  Cl    c      6.6427 *     3.3213 *     7.7498 *  0.0000     2          
   179  Cl    c      6.6427 *     7.7498 *     3.3213 *  0.0000     2          
   180  Na    c      2.2142 *     9.9640 *    -3.3213 *  0.0000     2          
   181  Na    c      2.2142 *    -3.3213 *     9.9640 *  0.0000     2          
   182  Na    c      6.6427 *    -3.3213 *    -7.7498 *  0.0000     2          
   183  Na    c      6.6427 *    -7.7498 *    -3.3213 *  0.0000     2          
   184  O     c      0.0000      -7.7498 *    -7.7498 *  0.0000     1          
   185  Na    c      0.0000      -7.7498 *     7.7498 *  0.0000     1          
   186  Na    c      0.0000       7.7498 *    -7.7498 *  0.0000     1          
   187  O     c      4.4285 *     1.1071 *     9.9640 *  0.0000     2          
   188  O     c      4.4285 *     9.9640 *     1.1071 *  0.0000     2          
   189  O     c      8.8569 *     5.5356 *    -3.3213 *  0.0000     2          
   190  O     c      8.8569 *    -3.3213 *     5.5356 *  0.0000     2          
   191  Na    c      4.4285 *     1.1071 *    -9.9640 *  0.0000     2          
   192  Na    c      4.4285 *     9.9640 *    -1.1071 *  0.0000     2          
   193  Na    c      8.8569 *     5.5356 *     3.3213 *  0.0000     2          
   194  Na    c      8.8569 *    -3.3213 *    -5.5356 *  0.0000     2          
   195  Na    c      4.4285 *    -1.1071 *     9.9640 *  0.0000     2          
   196  Na    c      4.4285 *    -9.9640 *     1.1071 *  0.0000     2          
   197  Na    c      8.8569 *     3.3213 *     5.5356 *  0.0000     2          
   198  Na    c      8.8569 *    -5.5356 *    -3.3213 *  0.0000     2          
   199  Cl    c      2.2142 *     7.7498 *     7.7498 *  0.0000     2          
   200  Na    c      2.2142 *    -7.7498 *    -7.7498 *  0.0000     2          
   201  Cl    c     11.0712 *    -1.1071 *    -1.1071 *  0.0000     2          
   202  Na    c     11.0712 *     1.1071 *     1.1071 *  0.0000     2          
   203  O     c      0.0000       5.5356 *     9.9640 *  0.0000     1          
   204  O     c      0.0000       9.9640 *     5.5356 *  0.0000     1          
   205  O     c      4.4285 *     9.9640 *    -3.3213 *  0.0000     2          
   206  O     c      4.4285 *    -3.3213 *     9.9640 *  0.0000     2          
   207  Na    c      0.0000       5.5356 *    -9.9640 *  0.0000     1          
   208  Na    c      0.0000       9.9640 *    -5.5356 *  0.0000     1          
   209  Na    c      4.4285 *     9.9640 *     3.3213 *  0.0000     2          
   210  Na    c      4.4285 *    -3.3213 *    -9.9640 *  0.0000     2          
   211  Na    c      0.0000      -5.5356 *     9.9640 *  0.0000     1          
   212  Na    c      0.0000      -9.9640 *     5.5356 *  0.0000     1          
   213  Na    c      4.4285 *     3.3213 *     9.9640 *  0.0000     2          
   214  Na    c      4.4285 *    -9.9640 *    -3.3213 *  0.0000     2          
   215  Cl    c      2.2142 *    -5.5356 *    -9.9640 *  0.0000     2          
   216  Cl    c      2.2142 *    -9.9640 *    -5.5356 *  0.0000     2          
   217  Cl    c      6.6427 *     7.7498 *    -5.5356 *  0.0000     2          
   218  Cl    c      6.6427 *    -5.5356 *     7.7498 *  0.0000     2          
   219  Na    c      2.2142 *     5.5356 *     9.9640 *  0.0000     2          
   220  Na    c      2.2142 *     9.9640 *     5.5356 *  0.0000     2          
   221  Na    c      6.6427 *     5.5356 *    -7.7498 *  0.0000     2          
   222  Na    c      6.6427 *    -7.7498 *     5.5356 *  0.0000     2          
   223  Cl    c     11.0712 *    -1.1071 *     3.3213 *  0.0000     2          
   224  Cl    c     11.0712 *     3.3213 *    -1.1071 *  0.0000     2          
   225  Na    c     11.0712 *     1.1071 *    -3.3213 *  0.0000     2          
   226  Na    c     11.0712 *    -3.3213 *     1.1071 *  0.0000     2          
   227  O     c      4.4285 *    -7.7498 *    -7.7498 *  0.0000     2          
   228  O     c      8.8569 *     1.1071 *    -7.7498 *  0.0000     2          
   229  O     c      8.8569 *    -7.7498 *     1.1071 *  0.0000     2          
   230  Na    c      4.4285 *    -7.7498 *     7.7498 *  0.0000     2          
   231  Na    c      8.8569 *     1.1071 *     7.7498 *  0.0000     2          
   232  Na    c      8.8569 *    -7.7498 *    -1.1071 *  0.0000     2          
   233  Na    c      4.4285 *     7.7498 *    -7.7498 *  0.0000     2          
   234  Na    c      8.8569 *    -1.1071 *    -7.7498 *  0.0000     2          
   235  Na    c      8.8569 *     7.7498 *     1.1071 *  0.0000     2          
   236  O     c      8.8569 *     5.5356 *     5.5356 *  0.0000     2          
   237  Na    c      8.8569 *     5.5356 *    -5.5356 *  0.0000     2          
   238  Na    c      8.8569 *    -5.5356 *     5.5356 *  0.0000     2          
   239  O     s      0.0000       1.1071 *     1.1071 *  0.0000     1          
   240  Cl    s      2.2142 *    -1.1071 *    -1.1071 *  0.0000     2          
   241  O     s      0.0000       1.1071 *    -3.3213 *  0.0000     1          
   242  O     s      0.0000      -3.3213 *     1.1071 *  0.0000     1          
   243  Cl    s      2.2142 *    -1.1071 *     3.3213 *  0.0000     2          
   244  Cl    s      2.2142 *     3.3213 *    -1.1071 *  0.0000     2          
   245  O     s      4.4285 *     1.1071 *     1.1071 *  0.0000     2          
   246  O     s      0.0000      -3.3213 *    -3.3213 *  0.0000     1          
   247  Cl    s      2.2142 *     3.3213 *     3.3213 *  0.0000     2          
   248  O     s      4.4285 *     1.1071 *    -3.3213 *  0.0000     2          
   249  O     s      4.4285 *    -3.3213 *     1.1071 *  0.0000     2          
   250  O     s      0.0000       1.1071 *     5.5356 *  0.0000     1          
   251  O     s      0.0000       5.5356 *     1.1071 *  0.0000     1          
   252  Cl    s      2.2142 *    -1.1071 *    -5.5356 *  0.0000     2          
   253  Cl    s      2.2142 *    -5.5356 *    -1.1071 *  0.0000     2          
   254  O     s      0.0000       5.5356 *    -3.3213 *  0.0000     1          
   255  O     s      0.0000      -3.3213 *     5.5356 *  0.0000     1          
   256  O     s      4.4285 *    -3.3213 *    -3.3213 *  0.0000     2          
   257  Cl    s      2.2142 *     3.3213 *    -5.5356 *  0.0000     2          
   258  Cl    s      6.6427 *    -1.1071 *    -1.1071 *  0.0000     2          
   259  Cl    s      2.2142 *    -5.5356 *     3.3213 *  0.0000     2          
   260  O     s      4.4285 *     1.1071 *     5.5356 *  0.0000     2          
   261  O     s      4.4285 *     5.5356 *     1.1071 *  0.0000     2          
   262  Cl    s      6.6427 *     3.3213 *    -1.1071 *  0.0000     2          
   263  Cl    s      6.6427 *    -1.1071 *     3.3213 *  0.0000     2          
   264  O     s      0.0000       1.1071 *    -7.7498 *  0.0000     1          
   265  O     s      0.0000      -7.7498 *     1.1071 *  0.0000     1          
   266  O     s      4.4285 *    -3.3213 *     5.5356 *  0.0000     2          
   267  O     s      0.0000       5.5356 *     5.5356 *  0.0000     1          
   268  O     s      4.4285 *     5.5356 *    -3.3213 *  0.0000     2          
   269  Cl    s      2.2142 *    -1.1071 *     7.7498 *  0.0000     2          
   270  Cl    s      2.2142 *     7.7498 *    -1.1071 *  0.0000     2          
   271  Cl    s      6.6427 *     3.3213 *     3.3213 *  0.0000     2          
   272  Cl    s      2.2142 *    -5.5356 *    -5.5356 *  0.0000     2          
   273  O     s      0.0000      -3.3213 *    -7.7498 *  0.0000     1          
   274  O     s      0.0000      -7.7498 *    -3.3213 *  0.0000     1          
   275  Cl    s      2.2142 *     3.3213 *     7.7498 *  0.0000     2          
   276  Cl    s      2.2142 *     7.7498 *     3.3213 *  0.0000     2          
   277  Cl    s      6.6427 *    -5.5356 *    -1.1071 *  0.0000     2          
   278  Cl    s      6.6427 *    -1.1071 *    -5.5356 *  0.0000     2          
   279  O     s      4.4285 *     1.1071 *    -7.7498 *  0.0000     2          
   280  O     s      4.4285 *    -7.7498 *     1.1071 *  0.0000     2          
   281  O     s      8.8569 *     1.1071 *     1.1071 *  0.0000     2          
   282  O     s      4.4285 *     5.5356 *     5.5356 *  0.0000     2          
   283  Cl    s      6.6427 *    -5.5356 *     3.3213 *  0.0000     2          
   284  Cl    s      6.6427 *     3.3213 *    -5.5356 *  0.0000     2          
   285  O     s      4.4285 *    -3.3213 *    -7.7498 *  0.0000     2          
   286  O     s      4.4285 *    -7.7498 *    -3.3213 *  0.0000     2          
   287  O     s      8.8569 *     1.1071 *    -3.3213 *  0.0000     2          
   288  O     s      8.8569 *    -3.3213 *     1.1071 *  0.0000     2          
   289  O     s      0.0000       5.5356 *    -7.7498 *  0.0000     1          
   290  O     s      0.0000      -7.7498 *     5.5356 *  0.0000     1          
   291  Cl    s      2.2142 *     7.7498 *    -5.5356 *  0.0000     2          
   292  Cl    s      2.2142 *    -5.5356 *     7.7498 *  0.0000     2          
   293  O     s      8.8569 *    -3.3213 *    -3.3213 *  0.0000     2          
   294  O     s      0.0000       1.1071 *     9.9640 *  0.0000     1          
   295  O     s      0.0000       9.9640 *     1.1071 *  0.0000     1          
   296  Cl    s      2.2142 *    -1.1071 *    -9.9640 *  0.0000     2          
   297  Cl    s      2.2142 *    -9.9640 *    -1.1071 *  0.0000     2          
   298  Cl    s      6.6427 *    -1.1071 *     7.7498 *  0.0000     2          
   299  Cl    s      6.6427 *     7.7498 *    -1.1071 *  0.0000     2          
   300  Cl    s      6.6427 *    -5.5356 *    -5.5356 *  0.0000     2          
   301  O     s      0.0000       9.9640 *    -3.3213 *  0.0000     1          
   302  O     s      0.0000      -3.3213 *     9.9640 *  0.0000     1          
   303  O     s      4.4285 *     5.5356 *    -7.7498 *  0.0000     2          
   304  O     s      4.4285 *    -7.7498 *     5.5356 *  0.0000     2          
   305  O     s      8.8569 *     1.1071 *     5.5356 *  0.0000     2          
   306  O     s      8.8569 *     5.5356 *     1.1071 *  0.0000     2          
   307  Cl    s      2.2142 *     3.3213 *    -9.9640 *  0.0000     2          
   308  Cl    s      2.2142 *    -9.9640 *     3.3213 *  0.0000     2          
   309  Cl    s      6.6427 *     3.3213 *     7.7498 *  0.0000     2          
   310  Cl    s      6.6427 *     7.7498 *     3.3213 *  0.0000     2          
   311  O     s      0.0000      -7.7498 *    -7.7498 *  0.0000     1          
   312  O     s      4.4285 *     1.1071 *     9.9640 *  0.0000     2          
   313  O     s      4.4285 *     9.9640 *     1.1071 *  0.0000     2          
   314  O     s      8.8569 *     5.5356 *    -3.3213 *  0.0000     2          
   315  O     s      8.8569 *    -3.3213 *     5.5356 *  0.0000     2          
   316  Cl    s      2.2142 *     7.7498 *     7.7498 *  0.0000     2          
   317  Cl    s     11.0712 *    -1.1071 *    -1.1071 *  0.0000     2          
   318  O     s      0.0000       5.5356 *     9.9640 *  0.0000     1          
   319  O     s      0.0000       9.9640 *     5.5356 *  0.0000     1          
   320  O     s      4.4285 *     9.9640 *    -3.3213 *  0.0000     2          
   321  O     s      4.4285 *    -3.3213 *     9.9640 *  0.0000     2          
   322  Cl    s      2.2142 *    -5.5356 *    -9.9640 *  0.0000     2          
   323  Cl    s      2.2142 *    -9.9640 *    -5.5356 *  0.0000     2          
   324  Cl    s      6.6427 *     7.7498 *    -5.5356 *  0.0000     2          
   325  Cl    s      6.6427 *    -5.5356 *     7.7498 *  0.0000     2          
   326  Cl    s     11.0712 *    -1.1071 *     3.3213 *  0.0000     2          
   327  Cl    s     11.0712 *     3.3213 *    -1.1071 *  0.0000     2          
   328  O     s      4.4285 *    -7.7498 *    -7.7498 *  0.0000     2          
   329  O     s      8.8569 *     1.1071 *    -7.7498 *  0.0000     2          
   330  O     s      8.8569 *    -7.7498 *     1.1071 *  0.0000     2          
   331  O     s      8.8569 *     5.5356 *     5.5356 *  0.0000     2          
--------------------------------------------------------------------------------

  Components of defect energy : 

--------------------------------------------------------------------------------
  Region 1 - region 1                   =      4.09883794 eV
  Region 1 - region 2a (unrelaxed)      =     -0.00563867 eV
  Region 1 - 2a (relaxed - correction)  =     -0.11928776 eV
  Region 1 (Total)                      =      3.97391150 eV
  Region 2a                             =      0.05962181 eV
  Region 2b                             =     -0.16729056 eV
--------------------------------------------------------------------------------
  Total defect energy                   =      3.86624275 eV
--------------------------------------------------------------------------------

  Largest displacement in region 2 =   0.0200 Angstroms


  Number of variables =      904

  Maximum number of calculations  =        1000
  Maximum Hessian update interval =          10
  Maximum step size               =   1.0000000
  Maximum parameter tolerance     =   0.0000100
  Maximum function  tolerance     =   0.0000100
  Maximum gradient  tolerance     =   0.0010000

  Symmetry adapted optimisation

  Symmetry to be used for second derivatives

  Newton-Raphson optimiser to be used

  BFGS hessian update to be used

  Lower half triangular hessian to be used

  Start of defect optimisation :

  Cycle:      0 Defect Energy:   3.866243  Gnorm:     0.008689  CPU:    2.877
  ** Hessian calculated **
  Cycle:      1 Defect Energy:   3.577953  Gnorm:     0.007860  CPU:   12.448
  Cycle:      2 Defect Energy:   3.277530  Gnorm:     0.006653  CPU:   18.331
  Cycle:      3 Defect Energy:   3.008772  Gnorm:     0.005201  CPU:   24.509
  ** Hessian calculated **
  Cycle:      4 Defect Energy:   2.481386  Gnorm:     0.000209  CPU:   31.154
  ** Hessian calculated **
  Cycle:      5 Defect Energy:   2.473104  Gnorm:     0.000150  CPU:   34.102
  Cycle:      6 Defect Energy:   2.466228  Gnorm:     0.000113  CPU:   35.202
  Cycle:      7 Defect Energy:   2.457739  Gnorm:     0.000112  CPU:   36.005
  Cycle:      8 Defect Energy:   2.448061  Gnorm:     0.000187  CPU:   36.969
  Cycle:      9 Defect Energy:   2.444125  Gnorm:     0.000170  CPU:   37.988
  Cycle:     10 Defect Energy:   2.441125  Gnorm:     0.000118  CPU:   39.048
  Cycle:     11 Defect Energy:   2.439315  Gnorm:     0.000094  CPU:   40.219
  Cycle:     12 Defect Energy:   2.438214  Gnorm:     0.000063  CPU:   43.097
  Cycle:     13 Defect Energy:   2.437588  Gnorm:     0.000047  CPU:   45.754
  Cycle:     14 Defect Energy:   2.437266  Gnorm:     0.000031  CPU:   47.071
  ** Hessian calculated **
  Cycle:     15 Defect Energy:   2.437088  Gnorm:     0.000022  CPU:   50.636
  Cycle:     16 Defect Energy:   2.436997  Gnorm:     0.000015  CPU:   51.234
  Cycle:     17 Defect Energy:   2.436948  Gnorm:     0.000011  CPU:   51.913
  Cycle:     18 Defect Energy:   2.436922  Gnorm:     0.000007  CPU:   52.767
  Cycle:     19 Defect Energy:   2.436909  Gnorm:     0.000005  CPU:   53.934


  **** Optimisation achieved ****


  Final defect energy  =        2.43690202
  Final defect Gnorm   =        0.00000368

  Components of defect energy : 

--------------------------------------------------------------------------------
  Region 1 - region 1                   =      2.99820366 eV
  Region 1 - region 2a (unrelaxed)      =     -0.34721486 eV
  Region 1 - 2a (relaxed - correction)  =     -0.09539138 eV
  Region 1 (Total)                      =      2.55559742 eV
  Region 2a                             =      0.04771035 eV
  Region 2b                             =     -0.16640576 eV
--------------------------------------------------------------------------------
  Total defect energy                   =      2.43690202 eV
--------------------------------------------------------------------------------

  Largest displacement in region 2 =   0.0200 Angstroms

  Final coordinates of region 1 :

--------------------------------------------------------------------------------
   No.  Atomic        x           y           z          Radius      Charge
        Label       (Angs)      (Angs)      (Angs)       (Angs)       (e) 
--------------------------------------------------------------------------------
     1  O     c     2.214230    2.325688    2.198905    0.000000    0.489000
     2  Na    c     2.214230    2.214230   -0.000000    0.000000    0.670000
     3  Cl    c     4.563573    0.002268   -0.135251    0.000000    0.615000
     4  Cl    c    -0.135112    0.002268   -0.135251    0.000000    0.615000
     5  Na    c     4.343612    1.843559    2.169646    0.000000    0.670000
     6  Na    c     0.084849    1.843559    2.169646    0.000000    0.670000
     7  O     c     2.214230    2.223555   -2.231694    0.000000    0.489000
     8  O     c     2.214230   -2.296719    2.222961    0.000000    0.489000
     9  Na    c     2.214230    1.874449    4.348191    0.000000    0.670000
    10  Na    c     2.214230   -1.892019    0.078048    0.000000    0.670000
    11  Na    c     2.214230    0.016904   -2.297915    0.000000    0.670000
    12  Na    c     2.214230    4.464261    2.392371    0.000000    0.670000
    13  Cl    c     4.536234   -0.001963    4.561810    0.000000    0.615000
    14  Cl    c    -0.107773   -0.001963    4.561810    0.000000    0.615000
    15  Cl    c     4.488395    4.508120   -0.115113    0.000000    0.615000
    16  Cl    c    -0.059934    4.508120   -0.115113    0.000000    0.615000
    17  Na    c     4.429842    2.192359   -2.213344    0.000000    0.670000
    18  Na    c    -0.001381    2.192359   -2.213344    0.000000    0.670000
    19  Na    c     4.362367   -1.893953    2.225266    0.000000    0.670000
    20  Na    c     0.066094   -1.893953    2.225266    0.000000    0.670000
    21  O     c     6.598885    2.195396    2.202131    0.000000    0.489000
    22  O     c    -2.170424    2.195396    2.202131    0.000000    0.489000
    23  Na    c     6.578168    2.303382   -0.008753    0.000000    0.670000
    24  Na    c    -2.149707    2.303382   -0.008753    0.000000    0.670000
    25  Na    c     6.850414   -0.001334    2.105649    0.000000    0.670000
    26  Na    c    -2.421953   -0.001334    2.105649    0.000000    0.670000
    27  O     c     2.214230   -2.189029   -2.175295    0.000000    0.489000
    28  Na    c     2.214230   -1.922379    4.373179    0.000000    0.670000
    29  Na    c     2.214230    4.430577   -2.215125    0.000000    0.670000
    30  Cl    c     4.485602    4.549468    4.505407    0.000000    0.615000
    31  Cl    c    -0.057141    4.549468    4.505407    0.000000    0.615000
    32  Na    c     4.425968   -2.191462   -2.182110    0.000000    0.670000
    33  Na    c     0.002493   -2.191462   -2.182110    0.000000    0.670000
    34  O     c     6.649390    2.222324   -2.228629    0.000000    0.489000
    35  O     c    -2.220929    2.222324   -2.228629    0.000000    0.489000
    36  Na    c     6.590996    2.119853    4.415443    0.000000    0.670000
    37  Na    c    -2.162535    2.119853    4.415443    0.000000    0.670000
    38  Na    c     6.671763    0.000924   -2.122639    0.000000    0.670000
    39  Na    c    -2.243302    0.000924   -2.122639    0.000000    0.670000
    40  O     c     6.611670   -2.198504    2.210938    0.000000    0.489000
    41  O     c    -2.183209   -2.198504    2.210938    0.000000    0.489000
    42  Na    c     6.572453   -2.301381    0.000617    0.000000    0.670000
    43  Na    c    -2.143992   -2.301381    0.000617    0.000000    0.670000
    44  Na    c     6.362033    4.397173    2.282528    0.000000    0.670000
    45  Na    c    -1.933572    4.397173    2.282528    0.000000    0.670000
    46  O     c     2.214230    2.208270    6.601889    0.000000    0.489000
    47  O     c     2.214230    6.683941    2.214901    0.000000    0.489000
    48  Na    c     2.214230    2.270727   -4.436974    0.000000    0.670000
    49  Na    c     2.214230    6.514631    0.006820    0.000000    0.670000
    50  Na    c     2.214230    0.004142    6.822639    0.000000    0.670000
    51  Na    c     2.214230   -4.445386    2.210426    0.000000    0.670000
    52  Cl    c     4.430203    0.008557   -4.467245    0.000000    0.615000
    53  Cl    c    -0.001742    0.008557   -4.467245    0.000000    0.615000
    54  Cl    c     4.509029   -4.522338   -0.077160    0.000000    0.615000
    55  Cl    c    -0.080569   -4.522338   -0.077160    0.000000    0.615000
    56  Na    c     4.423170    2.233552    6.595503    0.000000    0.670000
    57  Na    c     0.005291    2.233552    6.595503    0.000000    0.670000
    58  Na    c     4.420036    6.724558    2.201276    0.000000    0.670000
    59  Na    c     0.008425    6.724558    2.201276    0.000000    0.670000
    60  O     c     2.214230    6.648638   -2.211331    0.000000    0.489000
    61  O     c     2.214230   -2.199878    6.619757    0.000000    0.489000
    62  O     c     6.647856   -2.219461   -2.219186    0.000000    0.489000
    63  O     c    -2.219396   -2.219461   -2.219186    0.000000    0.489000
    64  Na    c     2.214230    6.802575    4.427600    0.000000    0.670000
    65  Na    c     2.214230   -2.319609   -4.397529    0.000000    0.670000
    66  Na    c     6.620598   -2.128163    4.424802    0.000000    0.670000
    67  Na    c    -2.192137   -2.128163    4.424802    0.000000    0.670000
    68  Na    c     2.214230    4.417031    6.382668    0.000000    0.670000
    69  Na    c     2.214230   -4.398174   -1.996998    0.000000    0.670000
    70  Na    c     6.607528    4.432865   -2.302137    0.000000    0.670000
    71  Na    c    -2.179067    4.432865   -2.302137    0.000000    0.670000
    72  Cl    c     4.428012    4.444142   -4.465547    0.000000    0.615000
    73  Cl    c     0.000449    4.444142   -4.465547    0.000000    0.615000
    74  Cl    c     8.899372    0.000083   -0.026496    0.000000    0.615000
    75  Cl    c    -4.470911    0.000083   -0.026496    0.000000    0.615000
    76  Na    c     4.425483   -2.226123    6.595186    0.000000    0.670000
    77  Na    c     0.002978   -2.226123    6.595186    0.000000    0.670000
    78  Na    c     8.820225    2.403103    2.214272    0.000000    0.670000
    79  Na    c    -4.391764    2.403103    2.214272    0.000000    0.670000
    80  Cl    c     4.495455   -4.528759    4.511062    0.000000    0.615000
    81  Cl    c    -0.066994   -4.528759    4.511062    0.000000    0.615000
    82  Na    c     4.431079    6.652865   -2.194182    0.000000    0.670000
    83  Na    c    -0.002618    6.652865   -2.194182    0.000000    0.670000
    84  O     c     6.643497    2.220301    6.639289    0.000000    0.489000
    85  O     c    -2.215037    2.220301    6.639289    0.000000    0.489000
    86  O     c     6.631548    6.619236    2.208777    0.000000    0.489000
    87  O     c    -2.203087    6.619236    2.208777    0.000000    0.489000
    88  Na    c     6.644416    2.130632   -4.433395    0.000000    0.670000
    89  Na    c    -2.215955    2.130632   -4.433395    0.000000    0.670000
    90  Na    c     6.657928    6.543583   -0.006411    0.000000    0.670000
    91  Na    c    -2.229467    6.543583   -0.006411    0.000000    0.670000
    92  Na    c     6.606132    0.001720    6.705240    0.000000    0.670000
    93  Na    c    -2.177672    0.001720    6.705240    0.000000    0.670000
    94  Na    c     6.403968   -4.404756    2.281718    0.000000    0.670000
    95  Na    c    -1.975507   -4.404756    2.281718    0.000000    0.670000
    96  Cl    c     8.895088    4.434696   -0.021437    0.000000    0.615000
    97  Cl    c    -4.466627    4.434696   -0.021437    0.000000    0.615000
    98  Na    c     8.828297   -2.398630    2.203806    0.000000    0.670000
    99  Na    c    -4.399836   -2.398630    2.203806    0.000000    0.670000
   100  Cl    c     8.875475    0.003080    4.438531    0.000000    0.615000
   101  Cl    c    -4.447014    0.003080    4.438531    0.000000    0.615000
   102  Na    c     8.854916    2.244627   -2.197913    0.000000    0.670000
   103  Na    c    -4.426455    2.244627   -2.197913    0.000000    0.670000
   104  O     c     2.214230    2.215420   -6.647603    0.000000    0.489000
   105  O     c     2.214230   -6.673972    2.210587    0.000000    0.489000
   106  Na    c     2.214230    2.367457    8.828120    0.000000    0.670000
   107  Na    c     2.214230   -6.688822    0.004937    0.000000    0.670000
   108  Na    c     2.214230   -0.003982   -6.564281    0.000000    0.670000
   109  Na    c     2.214230    8.881435    2.099326    0.000000    0.670000
   110  O     c     6.646639   -2.216616    6.647240    0.000000    0.489000
   111  O     c    -2.218178   -2.216616    6.647240    0.000000    0.489000
   112  Na    c     6.641667   -2.141081   -4.425703    0.000000    0.670000
   113  Na    c    -2.213206   -2.141081   -4.425703    0.000000    0.670000
   114  Na    c     6.658699    4.430612    6.569143    0.000000    0.670000
   115  Na    c    -2.230238    4.430612    6.569143    0.000000    0.670000
   116  O     c     2.214230    6.640161    6.639084    0.000000    0.489000
   117  O     c     6.651175    6.650483   -2.225558    0.000000    0.489000
   118  O     c    -2.222714    6.650483   -2.225558    0.000000    0.489000
   119  Na    c     2.214230    6.649638   -4.424061    0.000000    0.670000
   120  Na    c     6.625801    6.675639    4.425434    0.000000    0.670000
   121  Na    c    -2.197340    6.675639    4.425434    0.000000    0.670000
   122  Na    c     2.214230   -4.408971    6.446351    0.000000    0.670000
   123  Na    c     6.619396   -4.429794   -2.283375    0.000000    0.670000
   124  Na    c    -2.190935   -4.429794   -2.283375    0.000000    0.670000
   125  Cl    c     4.441363    0.004308    8.885815    0.000000    0.615000
   126  Cl    c    -0.012902    0.004308    8.885815    0.000000    0.615000
   127  Cl    c     4.435794    8.894964   -0.003864    0.000000    0.615000
   128  Cl    c    -0.007333    8.894964   -0.003864    0.000000    0.615000
   129  Na    c     4.428539    2.210564   -6.637784    0.000000    0.670000
   130  Na    c    -0.000078    2.210564   -6.637784    0.000000    0.670000
   131  Na    c     4.421199   -6.697324    2.198288    0.000000    0.670000
   132  Na    c     0.007261   -6.697324    2.198288    0.000000    0.670000
   133  Cl    c     8.890702    4.435385    4.442550    0.000000    0.615000
   134  Cl    c    -4.462241    4.435385    4.442550    0.000000    0.615000
   135  Na    c     8.854629   -2.236798   -2.183093    0.000000    0.670000
   136  Na    c    -4.426168   -2.236798   -2.183093    0.000000    0.670000
   137  Cl    c     4.442574   -4.433317   -4.466392    0.000000    0.615000
   138  Cl    c    -0.014113   -4.433317   -4.466392    0.000000    0.615000
   139  Na    c     4.430739    6.606096    6.647026    0.000000    0.670000
   140  Na    c    -0.002278    6.606096    6.647026    0.000000    0.670000
   141  O     c     2.214230   -2.219045   -6.628256    0.000000    0.489000
   142  O     c     2.214230   -6.628648   -2.207033    0.000000    0.489000
   143  Na    c     2.214230   -2.343233    8.838137    0.000000    0.670000
   144  Na    c     2.214230   -6.672220    4.420181    0.000000    0.670000
   145  Na    c     2.214230    4.430326   -6.658027    0.000000    0.670000
   146  Na    c     2.214230    8.854860   -2.149787    0.000000    0.670000
   147  Cl    c     4.442482    4.441197    8.894111    0.000000    0.615000
   148  Cl    c    -0.014021    4.441197    8.894111    0.000000    0.615000
   149  Cl    c     4.436246    8.887331    4.424806    0.000000    0.615000
   150  Cl    c    -0.007785    8.887331    4.424806    0.000000    0.615000
   151  Na    c     4.426875   -2.211322   -6.613333    0.000000    0.670000
   152  Na    c     0.001586   -2.211322   -6.613333    0.000000    0.670000
   153  Na    c     4.429084   -6.620973   -2.198980    0.000000    0.670000
   154  Na    c    -0.000623   -6.620973   -2.198980    0.000000    0.670000
   155  Cl    c     8.897433   -4.433330   -0.017167    0.000000    0.615000
   156  Cl    c    -4.468973   -4.433330   -0.017167    0.000000    0.615000
   157  Na    c     8.842399    6.490289    2.227984    0.000000    0.670000
   158  Na    c    -4.413938    6.490289    2.227984    0.000000    0.670000
   159  Cl    c     8.874247    0.003590   -4.453316    0.000000    0.615000
   160  Cl    c    -4.445786    0.003590   -4.453316    0.000000    0.615000
   161  Na    c     8.851323    2.195188    6.617309    0.000000    0.670000
   162  Na    c    -4.422862    2.195188    6.617309    0.000000    0.670000
   163  O     c     6.643743    2.213238   -6.647815    0.000000    0.489000
   164  O     c    -2.215283    2.213238   -6.647815    0.000000    0.489000
   165  O     c     6.634235   -6.626008    2.215247    0.000000    0.489000
   166  O     c    -2.205774   -6.626008    2.215247    0.000000    0.489000
   167  O     c    11.048396    2.213412    2.212865    0.000000    0.489000
   168  O     c    -6.619935    2.213412    2.212865    0.000000    0.489000
   169  Na    c     6.633545    2.265664    8.850616    0.000000    0.670000
   170  Na    c    -2.205084    2.265664    8.850616    0.000000    0.670000
   171  Na    c     6.659933   -6.566309   -0.001790    0.000000    0.670000
   172  Na    c    -2.231472   -6.566309   -0.001790    0.000000    0.670000
   173  Na    c    11.045781    2.159274    0.001286    0.000000    0.670000
   174  Na    c    -6.617320    2.159274    0.001286    0.000000    0.670000
   175  Na    c     6.643303   -0.000529   -6.698586    0.000000    0.670000
   176  Na    c    -2.214842   -0.000529   -6.698586    0.000000    0.670000
   177  Na    c     6.706071    8.838980    2.160196    0.000000    0.670000
   178  Na    c    -2.277611    8.838980    2.160196    0.000000    0.670000
   179  Na    c    10.899300   -0.000926    2.245009    0.000000    0.670000
   180  Na    c    -6.470839   -0.000926    2.245009    0.000000    0.670000
   181  O     c     6.651032    6.649101    6.644807    0.000000    0.489000
   182  O     c    -2.222571    6.649101    6.644807    0.000000    0.489000
   183  Na    c     6.631400    6.697564   -4.431991    0.000000    0.670000
   184  Na    c    -2.202940    6.697564   -4.431991    0.000000    0.670000
   185  Na    c     6.646576   -4.428757    6.584486    0.000000    0.670000
   186  Na    c    -2.218115   -4.428757    6.584486    0.000000    0.670000
   187  Cl    c     8.893323   -4.430932    4.441081    0.000000    0.615000
   188  Cl    c    -4.464862   -4.430932    4.441081    0.000000    0.615000
   189  Na    c     8.859899    6.623139   -2.224567    0.000000    0.670000
   190  Na    c    -4.431438    6.623139   -2.224567    0.000000    0.670000
   191  Cl    c     8.876356    4.443488   -4.449116    0.000000    0.615000
   192  Cl    c    -4.447895    4.443488   -4.449116    0.000000    0.615000
   193  Na    c     8.853732   -2.196654    6.642865    0.000000    0.670000
   194  Na    c    -4.425271   -2.196654    6.642865    0.000000    0.670000
   195  O     c     6.641835   -2.212723   -6.643805    0.000000    0.489000
   196  O     c    -2.213374   -2.212723   -6.643805    0.000000    0.489000
   197  O     c     6.647911   -6.645592   -2.224644    0.000000    0.489000
   198  O     c    -2.219450   -6.645592   -2.224644    0.000000    0.489000
   199  O     c    11.072336    2.214284   -2.214078    0.000000    0.489000
   200  O     c    -6.643875    2.214284   -2.214078    0.000000    0.489000
   201  O     c    11.051566   -2.215130    2.215161    0.000000    0.489000
   202  O     c    -6.623105   -2.215130    2.215161    0.000000    0.489000
   203  Na    c     6.623458   -2.258505    8.855434    0.000000    0.670000
   204  Na    c    -2.194998   -2.258505    8.855434    0.000000    0.670000
   205  Na    c     6.624794   -6.662083    4.429010    0.000000    0.670000
   206  Na    c    -2.196333   -6.662083    4.429010    0.000000    0.670000
   207  Na    c    11.055145    2.227165    4.425633    0.000000    0.670000
   208  Na    c    -6.626684    2.227165    4.425633    0.000000    0.670000
   209  Na    c    11.064297   -2.172335    0.001802    0.000000    0.670000
   210  Na    c    -6.635836   -2.172335    0.001802    0.000000    0.670000
   211  Na    c     6.638996    4.428729   -6.594407    0.000000    0.670000
   212  Na    c    -2.210535    4.428729   -6.594407    0.000000    0.670000
   213  Na    c     6.657712    8.858622   -2.166295    0.000000    0.670000
   214  Na    c    -2.229251    8.858622   -2.166295    0.000000    0.670000
   215  Na    c    11.043732   -0.000562   -2.254316    0.000000    0.670000
   216  Na    c    -6.615271   -0.000562   -2.254316    0.000000    0.670000
   217  Na    c    11.162974    4.420235    2.183805    0.000000    0.670000
   218  Na    c    -6.734513    4.420235    2.183805    0.000000    0.670000
   219  O     c     2.214230    6.644557   -6.645048    0.000000    0.489000
   220  O     c     2.214230   -6.632330    6.635459    0.000000    0.489000
   221  Na    c     2.214230    6.524090    8.847977    0.000000    0.670000
   222  Na    c     2.214230   -6.546438   -4.417077    0.000000    0.670000
   223  Na    c     2.214230    8.850724    6.733585    0.000000    0.670000
   224  Na    c     2.214230   -4.427632   -6.687383    0.000000    0.670000
   225  Cl    c     4.435690    8.874298   -4.445088    0.000000    0.615000
   226  Cl    c    -0.007229    8.874298   -4.445088    0.000000    0.615000
   227  Cl    c     4.441498   -4.431407    8.895308    0.000000    0.615000
   228  Cl    c    -0.013037   -4.431407    8.895308    0.000000    0.615000
   229  Na    c     4.427563    6.633191   -6.639485    0.000000    0.670000
   230  Na    c     0.000898    6.633191   -6.639485    0.000000    0.670000
   231  Na    c     4.429528   -6.619553    6.645771    0.000000    0.670000
   232  Na    c    -0.001067   -6.619553    6.645771    0.000000    0.670000
   233  O     c    11.072996   -2.213893   -2.214670    0.000000    0.489000
   234  O     c    -6.644535   -2.213893   -2.214670    0.000000    0.489000
   235  Na    c    11.046910   -2.223501    4.428366    0.000000    0.670000
   236  Na    c    -6.618449   -2.223501    4.428366    0.000000    0.670000
   237  Na    c    11.083881    4.427821   -2.174564    0.000000    0.670000
   238  Na    c    -6.655420    4.427821   -2.174564    0.000000    0.670000
   239  O     c     2.214230    2.221880   11.058893    0.000000    0.489000
   240  O     c     2.214230   11.081350    2.208597    0.000000    0.489000
   241  Na    c     2.214230    2.186183   -8.855156    0.000000    0.670000
   242  Na    c     2.214230   11.122853   -0.003573    0.000000    0.670000
   243  Na    c     2.214230    0.001427   10.981745    0.000000    0.670000
   244  Na    c     2.214230   -8.874836    2.222193    0.000000    0.670000
   245  Cl    c     4.431248   -0.001423   -8.879265    0.000000    0.615000
   246  Cl    c    -0.002787   -0.001423   -8.879265    0.000000    0.615000
   247  Cl    c     4.429604   -8.887899   -0.005291    0.000000    0.615000
   248  Cl    c    -0.001143   -8.887899   -0.005291    0.000000    0.615000
   249  Cl    c     8.875789    0.003957    8.870198    0.000000    0.615000
   250  Cl    c    -4.447328    0.003957    8.870198    0.000000    0.615000
   251  Cl    c     8.869333    8.877926   -0.010435    0.000000    0.615000
   252  Cl    c    -4.440873    8.877926   -0.010435    0.000000    0.615000
   253  Na    c     4.427176    2.188346   11.053833    0.000000    0.670000
   254  Na    c     0.001285    2.188346   11.053833    0.000000    0.670000
   255  Na    c     4.433661   11.050971    2.231130    0.000000    0.670000
   256  Na    c    -0.005200   11.050971    2.231130    0.000000    0.670000
   257  Na    c     8.857081    2.218492   -6.640967    0.000000    0.670000
   258  Na    c    -4.428621    2.218492   -6.640967    0.000000    0.670000
   259  Na    c     8.847086   -6.542456    2.234228    0.000000    0.670000
   260  Na    c    -4.418625   -6.542456    2.234228    0.000000    0.670000
   261  Cl    c     8.875670   -4.439364   -4.448366    0.000000    0.615000
   262  Cl    c    -4.447209   -4.439364   -4.448366    0.000000    0.615000
   263  Na    c     8.859600    6.651358    6.638071    0.000000    0.670000
   264  Na    c    -4.431139    6.651358    6.638071    0.000000    0.670000
   265  O     c     2.214230   11.073563   -2.214088    0.000000    0.489000
   266  O     c     2.214230   -2.219139   11.063429    0.000000    0.489000
   267  O     c     6.642655    6.647125   -6.644806    0.000000    0.489000
   268  O     c    -2.214194    6.647125   -6.644806    0.000000    0.489000
   269  O     c     6.649842   -6.647846    6.646200    0.000000    0.489000
   270  O     c    -2.221381   -6.647846    6.646200    0.000000    0.489000
   271  O     c    11.071550    2.213689    6.640757    0.000000    0.489000
   272  O     c    -6.643090    2.213689    6.640757    0.000000    0.489000
   273  O     c    11.067225    6.630465    2.214045    0.000000    0.489000
   274  O     c    -6.638764    6.630465    2.214045    0.000000    0.489000
   275  Na    c     2.214230   11.022342    4.427254    0.000000    0.670000
   276  Na    c     2.214230   -2.179892   -8.847914    0.000000    0.670000
   277  Na    c     6.653529    6.607366    8.854467    0.000000    0.670000
   278  Na    c    -2.225068    6.607366    8.854467    0.000000    0.670000
   279  Na    c     6.637592   -6.683347   -4.431372    0.000000    0.670000
   280  Na    c    -2.209131   -6.683347   -4.431372    0.000000    0.670000
   281  Na    c    11.063480    2.239399   -4.426715    0.000000    0.670000
   282  Na    c    -6.635019    2.239399   -4.426715    0.000000    0.670000
   283  Na    c    11.047155    6.666618    0.002175    0.000000    0.670000
   284  Na    c    -6.618694    6.666618    0.002175    0.000000    0.670000
   285  Na    c     2.214230    4.429043   11.126108    0.000000    0.670000
   286  Na    c     2.214230   -8.847586   -2.244816    0.000000    0.670000
   287  Na    c     6.628773    8.855917    6.668648    0.000000    0.670000
   288  Na    c    -2.200312    8.855917    6.668648    0.000000    0.670000
   289  Na    c     6.638392   -4.428696   -6.596213    0.000000    0.670000
   290  Na    c    -2.209931   -4.428696   -6.596213    0.000000    0.670000
   291  Na    c    11.071389    0.000526    6.635562    0.000000    0.670000
   292  Na    c    -6.642928    0.000526    6.635562    0.000000    0.670000
   293  Na    c    11.146425   -4.426320    2.197295    0.000000    0.670000
   294  Na    c    -6.717964   -4.426320    2.197295    0.000000    0.670000
   295  Cl    c     4.431057    4.436869   -8.879609    0.000000    0.615000
   296  Cl    c    -0.002596    4.436869   -8.879609    0.000000    0.615000
   297  Cl    c     4.432081   -8.887163    4.426249    0.000000    0.615000
   298  Cl    c    -0.003620   -8.887163    4.426249    0.000000    0.615000
   299  Cl    c     8.876261    4.440626    8.873397    0.000000    0.615000
   300  Cl    c    -4.447800    4.440626    8.873397    0.000000    0.615000
   301  Cl    c     8.868072    8.874221    4.430777    0.000000    0.615000
   302  Cl    c    -4.439611    8.874221    4.430777    0.000000    0.615000
   303  Na    c     4.428971   11.053210   -2.223571    0.000000    0.670000
   304  Na    c    -0.000510   11.053210   -2.223571    0.000000    0.670000
   305  Na    c     4.427734   -2.196094   11.063503    0.000000    0.670000
   306  Na    c     0.000727   -2.196094   11.063503    0.000000    0.670000
   307  Na    c     8.854398   -2.218388   -6.639801    0.000000    0.670000
   308  Na    c    -4.425938   -2.218388   -6.639801    0.000000    0.670000
   309  Na    c     8.855857   -6.633591   -2.224999    0.000000    0.670000
   310  Na    c    -4.427396   -6.633591   -2.224999    0.000000    0.670000
   311  O     c     2.214230   -6.640546   -6.642733    0.000000    0.489000
   312  Na    c     2.214230   -6.570931    8.846956    0.000000    0.670000
   313  Na    c     2.214230    8.855131   -6.639445    0.000000    0.670000
   314  O     c     6.644731    2.216762   11.071317    0.000000    0.489000
   315  O     c    -2.216270    2.216762   11.071317    0.000000    0.489000
   316  O     c     6.648815   11.066000    2.210731    0.000000    0.489000
   317  O     c    -2.220354   11.066000    2.210731    0.000000    0.489000
   318  O     c    11.074970    6.644524   -2.213341    0.000000    0.489000
   319  O     c    -6.646510    6.644524   -2.213341    0.000000    0.489000
   320  O     c    11.073232   -2.212572    6.643885    0.000000    0.489000
   321  O     c    -6.644771   -2.212572    6.643885    0.000000    0.489000
   322  Na    c     6.637948    2.241971   -8.857178    0.000000    0.670000
   323  Na    c    -2.209487    2.241971   -8.857178    0.000000    0.670000
   324  Na    c     6.625948   11.084294   -0.000442    0.000000    0.670000
   325  Na    c    -2.197487   11.084294   -0.000442    0.000000    0.670000
   326  Na    c    11.060706    6.626975    4.427938    0.000000    0.670000
[...]
    251 y          6.642691      6.685803     0.043112    Cartesian    0.65
    251 z          2.214230      2.214950     0.000720    Cartesian    0.03
    252 x          4.428461      4.430206     0.001745    Cartesian    0.04
    252 y          0.000000      0.009021     0.009021    Cartesian    0.00
    252 z         -4.428461     -4.468806    -0.040345    Cartesian    0.91
    253 x          4.428461      4.512674     0.084213    Cartesian    1.90
    253 y         -4.428461     -4.525875    -0.097414    Cartesian    2.20
    253 z          0.000000     -0.080447    -0.080447    Cartesian    0.00
    254 x          2.214230      2.214230     0.000000    Cartesian    0.00
    254 y          6.642691      6.648548     0.005857    Cartesian    0.09
    254 z         -2.214230     -2.211296     0.002934    Cartesian   -0.13
    255 x          2.214230      2.214230     0.000000    Cartesian    0.00
    255 y         -2.214230     -2.199523     0.014708    Cartesian   -0.66
    255 z          6.642691      6.621739    -0.020952    Cartesian   -0.32
    256 x          6.642691      6.648187     0.005496    Cartesian    0.08
    256 y         -2.214230     -2.219989    -0.005759    Cartesian    0.26
    256 z         -2.214230     -2.219388    -0.005158    Cartesian    0.23
    257 x          4.428461      4.428173    -0.000288    Cartesian   -0.01
    257 y          4.428461      4.444504     0.016043    Cartesian    0.36
    257 z         -4.428461     -4.466646    -0.038185    Cartesian    0.86
    258 x          8.856922      8.900598     0.043676    Cartesian    0.49
    258 y          0.000000      0.000140     0.000140    Cartesian    0.00
    258 z          0.000000     -0.026213    -0.026213    Cartesian    0.00
    259 x          4.428461      4.498975     0.070515    Cartesian    1.59
    259 y         -4.428461     -4.532563    -0.104102    Cartesian    2.35
    259 z          4.428461      4.514199     0.085738    Cartesian    1.94
    260 x          6.642691      6.643723     0.001032    Cartesian    0.02
    260 y          2.214230      2.220377     0.006147    Cartesian    0.28
    260 z          6.642691      6.639665    -0.003026    Cartesian   -0.05
    261 x          6.642691      6.630632    -0.012059    Cartesian   -0.18
    261 y          6.642691      6.619987    -0.022704    Cartesian   -0.34
    261 z          2.214230      2.208922    -0.005308    Cartesian   -0.24
    262 x          8.856922      8.896526     0.039604    Cartesian    0.45
    262 y          4.428461      4.435025     0.006564    Cartesian    0.15
    262 z          0.000000     -0.021392    -0.021392    Cartesian    0.00
    263 x          8.856922      8.876863     0.019942    Cartesian    0.23
    263 y          0.000000      0.003151     0.003151    Cartesian    0.00
    263 z          4.428461      4.438278     0.009817    Cartesian    0.22
    264 x          2.214230      2.214230     0.000000    Cartesian    0.00
    264 y          2.214230      2.215860     0.001630    Cartesian    0.07
    264 z         -6.642691     -6.647277    -0.004586    Cartesian    0.07
    265 x          2.214230      2.214230     0.000000    Cartesian    0.00
    265 y         -6.642691     -6.676042    -0.033350    Cartesian    0.50
    265 z          2.214230      2.210274    -0.003957    Cartesian   -0.18
    266 x          6.642691      6.646928     0.004237    Cartesian    0.06
    266 y         -2.214230     -2.216633    -0.002402    Cartesian    0.11
    266 z          6.642691      6.647729     0.005038    Cartesian    0.08
    267 x          2.214230      2.214230     0.000000    Cartesian    0.00
    267 y          6.642691      6.641404    -0.001287    Cartesian   -0.02
    267 z          6.642691      6.638681    -0.004010    Cartesian   -0.06
    268 x          6.642691      6.651505     0.008813    Cartesian    0.13
    268 y          6.642691      6.650588     0.007896    Cartesian    0.12
    268 z         -2.214230     -2.226272    -0.012042    Cartesian    0.54
    269 x          4.428461      4.441645     0.013184    Cartesian    0.30
    269 y          0.000000      0.004364     0.004364    Cartesian    0.00
    269 z          8.856922      8.886846     0.029924    Cartesian    0.34
    270 x          4.428461      4.435535     0.007075    Cartesian    0.16
    270 y          8.856922      8.896245     0.039324    Cartesian    0.44
    270 z          0.000000     -0.003665    -0.003665    Cartesian    0.00
    271 x          8.856922      8.892350     0.035428    Cartesian    0.40
    271 y          4.428461      4.435723     0.007262    Cartesian    0.16
    271 z          4.428461      4.442513     0.014052    Cartesian    0.32
    272 x          4.428461      4.443072     0.014611    Cartesian    0.33
    272 y         -4.428461     -4.433689    -0.005228    Cartesian    0.12
    272 z         -4.428461     -4.468132    -0.039672    Cartesian    0.90
    273 x          2.214230      2.214230     0.000000    Cartesian    0.00
    273 y         -2.214230     -2.219654    -0.005424    Cartesian    0.24
    273 z         -6.642691     -6.628741     0.013950    Cartesian   -0.21
    274 x          2.214230      2.214230     0.000000    Cartesian    0.00
    274 y         -6.642691     -6.629561     0.013130    Cartesian   -0.20
    274 z         -2.214230     -2.206112     0.008118    Cartesian   -0.37
    275 x          4.428461      4.442565     0.014105    Cartesian    0.32
    275 y          4.428461      4.441710     0.013249    Cartesian    0.30
    275 z          8.856922      8.895964     0.039042    Cartesian    0.44
    276 x          4.428461      4.436093     0.007632    Cartesian    0.17
    276 y          8.856922      8.887965     0.031043    Cartesian    0.35
    276 z          4.428461      4.424580    -0.003881    Cartesian   -0.09
    277 x          8.856922      8.899068     0.042146    Cartesian    0.48
    277 y         -4.428461     -4.433272    -0.004811    Cartesian    0.11
    277 z          0.000000     -0.017280    -0.017280    Cartesian    0.00
    278 x          8.856922      8.874872     0.017951    Cartesian    0.20
    278 y          0.000000      0.003735     0.003735    Cartesian    0.00
    278 z         -4.428461     -4.454289    -0.025828    Cartesian    0.58
    279 x          6.642691      6.643794     0.001103    Cartesian    0.02
    279 y          2.214230      2.212840    -0.001391    Cartesian   -0.06
    279 z         -6.642691     -6.648088    -0.005397    Cartesian    0.08
    280 x          6.642691      6.633315    -0.009376    Cartesian   -0.14
    280 y         -6.642691     -6.626634     0.016057    Cartesian   -0.24
    280 z          2.214230      2.215687     0.001456    Cartesian    0.07
    281 x         11.071152     11.048862    -0.022290    Cartesian   -0.20
    281 y          2.214230      2.214327     0.000096    Cartesian    0.00
    281 z          2.214230      2.212851    -0.001379    Cartesian   -0.06
    282 x          6.642691      6.651477     0.008786    Cartesian    0.13
    282 y          6.642691      6.649480     0.006789    Cartesian    0.10
    282 z          6.642691      6.645001     0.002309    Cartesian    0.03
    283 x          8.856922      8.895032     0.038110    Cartesian    0.43
    283 y         -4.428461     -4.430906    -0.002445    Cartesian    0.06
    283 z          4.428461      4.441116     0.012655    Cartesian    0.29
    284 x          8.856922      8.877088     0.020167    Cartesian    0.23
    284 y          4.428461      4.444075     0.015615    Cartesian    0.35
    284 z         -4.428461     -4.449873    -0.021412    Cartesian    0.48
    285 x          6.642691      6.641902    -0.000790    Cartesian   -0.01
    285 y         -2.214230     -2.212302     0.001929    Cartesian   -0.09
    285 z         -6.642691     -6.644115    -0.001424    Cartesian    0.02
    286 x          6.642691      6.648269     0.005578    Cartesian    0.08
    286 y         -6.642691     -6.645615    -0.002923    Cartesian    0.04
    286 z         -2.214230     -2.225518    -0.011288    Cartesian    0.51
    287 x         11.071152     11.072454     0.001302    Cartesian    0.01
    287 y          2.214230      2.214300     0.000069    Cartesian    0.00
    287 z         -2.214230     -2.214127     0.000104    Cartesian   -0.00
    288 x         11.071152     11.051817    -0.019335    Cartesian   -0.17
    288 y         -2.214230     -2.215919    -0.001688    Cartesian    0.08
    288 z          2.214230      2.215225     0.000995    Cartesian    0.04
    289 x          2.214230      2.214230     0.000000    Cartesian    0.00
    289 y          6.642691      6.644639     0.001948    Cartesian    0.03
    289 z         -6.642691     -6.645555    -0.002863    Cartesian    0.04
    290 x          2.214230      2.214230     0.000000    Cartesian    0.00
    290 y         -6.642691     -6.632932     0.009759    Cartesian   -0.15
    290 z          6.642691      6.634872    -0.007819    Cartesian   -0.12
    291 x          4.428461      4.436064     0.007603    Cartesian    0.17
    291 y          8.856922      8.874836     0.017914    Cartesian    0.20
    291 z         -4.428461     -4.445934    -0.017473    Cartesian    0.39
    292 x          4.428461      4.441799     0.013338    Cartesian    0.30
    292 y         -4.428461     -4.431337    -0.002876    Cartesian    0.06
    292 z          8.856922      8.897066     0.040144    Cartesian    0.45
    293 x         11.071152     11.073027     0.001875    Cartesian    0.02
    293 y         -2.214230     -2.213916     0.000314    Cartesian   -0.01
    293 z         -2.214230     -2.214835    -0.000604    Cartesian    0.03
    294 x          2.214230      2.214230     0.000000    Cartesian    0.00
    294 y          2.214230      2.223011     0.008781    Cartesian    0.40
    294 z         11.071152     11.059285    -0.011867    Cartesian   -0.11
    295 x          2.214230      2.214230     0.000000    Cartesian    0.00
    295 y         11.071152     11.080850     0.009698    Cartesian    0.09
    295 z          2.214230      2.207806    -0.006424    Cartesian   -0.29
    296 x          4.428461      4.431426     0.002965    Cartesian    0.07
    296 y          0.000000     -0.001423    -0.001423    Cartesian    0.00
    296 z         -8.856922     -8.880114    -0.023192    Cartesian    0.26
    297 x          4.428461      4.429461     0.001000    Cartesian    0.02
    297 y         -8.856922     -8.888774    -0.031852    Cartesian    0.36
    297 z          0.000000     -0.005274    -0.005274    Cartesian    0.00
    298 x          8.856922      8.876602     0.019681    Cartesian    0.22
    298 y          0.000000      0.004103     0.004103    Cartesian    0.00
    298 z          8.856922      8.870699     0.013777    Cartesian    0.16
    299 x          8.856922      8.869666     0.012744    Cartesian    0.14
    299 y          8.856922      8.879087     0.022165    Cartesian    0.25
    299 z          0.000000     -0.010718    -0.010718    Cartesian    0.00
    300 x          8.856922      8.876354     0.019432    Cartesian    0.22
    300 y         -4.428461     -4.439717    -0.011257    Cartesian    0.25
    300 z         -4.428461     -4.449077    -0.020616    Cartesian    0.47
    301 x          2.214230      2.214230     0.000000    Cartesian    0.00
    301 y         11.071152     11.073912     0.002760    Cartesian    0.02
    301 z         -2.214230     -2.213773     0.000457    Cartesian   -0.02
    302 x          2.214230      2.214230     0.000000    Cartesian    0.00
    302 y         -2.214230     -2.220175    -0.005945    Cartesian    0.27
    302 z         11.071152     11.063569    -0.007583    Cartesian   -0.07
    303 x          6.642691      6.642680    -0.000012    Cartesian   -0.00
    303 y          6.642691      6.647667     0.004976    Cartesian    0.07
    303 z         -6.642691     -6.644534    -0.001843    Cartesian    0.03
    304 x          6.642691      6.650313     0.007622    Cartesian    0.11
    304 y         -6.642691     -6.648174    -0.005482    Cartesian    0.08
    304 z          6.642691      6.646254     0.003562    Cartesian    0.05
    305 x         11.071152     11.071623     0.000471    Cartesian    0.00
    305 y          2.214230      2.213592    -0.000638    Cartesian   -0.03
    305 z          6.642691      6.640754    -0.001938    Cartesian   -0.03
    306 x         11.071152     11.068003    -0.003150    Cartesian   -0.03
    306 y          6.642691      6.629762    -0.012929    Cartesian   -0.19
    306 z          2.214230      2.213919    -0.000311    Cartesian   -0.01
    307 x          4.428461      4.431150     0.002689    Cartesian    0.06
    307 y          4.428461      4.437165     0.008704    Cartesian    0.20
    307 z         -8.856922     -8.880439    -0.023518    Cartesian    0.27
    308 x          4.428461      4.432032     0.003571    Cartesian    0.08
    308 y         -8.856922     -8.887864    -0.030942    Cartesian    0.35
    308 z          4.428461      4.426009    -0.002452    Cartesian   -0.06
    309 x          8.856922      8.876946     0.020024    Cartesian    0.23
    309 y          4.428461      4.441086     0.012625    Cartesian    0.29
    309 z          8.856922      8.874105     0.017183    Cartesian    0.19
    310 x          8.856922      8.868560     0.011638    Cartesian    0.13
    310 y          8.856922      8.875262     0.018341    Cartesian    0.21
    310 z          4.428461      4.430891     0.002430    Cartesian    0.05
    311 x          2.214230      2.214230     0.000000    Cartesian    0.00
    311 y         -6.642691     -6.639896     0.002795    Cartesian   -0.04
    311 z         -6.642691     -6.643623    -0.000931    Cartesian    0.01
    312 x          6.642691      6.644888     0.002196    Cartesian    0.03
    312 y          2.214230      2.217130     0.002899    Cartesian    0.13
    312 z         11.071152     11.071489     0.000336    Cartesian    0.00
    313 x          6.642691      6.649354     0.006663    Cartesian    0.10
    313 y         11.071152     11.066361    -0.004791    Cartesian   -0.04
    313 z          2.214230      2.210393    -0.003837    Cartesian   -0.17
    314 x         11.071152     11.075072     0.003920    Cartesian    0.04
    314 y          6.642691      6.644688     0.001997    Cartesian    0.03
    314 z         -2.214230     -2.213358     0.000873    Cartesian   -0.04
    315 x         11.071152     11.073380     0.002228    Cartesian    0.02
    315 y         -2.214230     -2.212513     0.001717    Cartesian   -0.08
    315 z          6.642691      6.643949     0.001257    Cartesian    0.02
    316 x          4.428461      4.435872     0.007411    Cartesian    0.17
    316 y          8.856922      8.882063     0.025141    Cartesian    0.28
    316 z          8.856922      8.869940     0.013019    Cartesian    0.15
    317 x         13.285383     13.320791     0.035409    Cartesian    0.27
    317 y          0.000000      0.002241     0.002241    Cartesian    0.00
    317 z          0.000000      0.000730     0.000730    Cartesian    0.00
    318 x          2.214230      2.214230     0.000000    Cartesian    0.00
    318 y          6.642691      6.640938    -0.001753    Cartesian   -0.03
    318 z         11.071152     11.072237     0.001085    Cartesian    0.01
    319 x          2.214230      2.214230     0.000000    Cartesian    0.00
    319 y         11.071152     11.068928    -0.002224    Cartesian   -0.02
    319 z          6.642691      6.646899     0.004207    Cartesian    0.06
    320 x          6.642691      6.644566     0.001875    Cartesian    0.03
    320 y         11.071152     11.076347     0.005195    Cartesian    0.05
    320 z         -2.214230     -2.214905    -0.000675    Cartesian    0.03
    321 x          6.642691      6.645682     0.002991    Cartesian    0.05
    321 y         -2.214230     -2.216141    -0.001910    Cartesian    0.09
    321 z         11.071152     11.073522     0.002370    Cartesian    0.02
    322 x          4.428461      4.426534    -0.001926    Cartesian   -0.04
    322 y         -4.428461     -4.435592    -0.007131    Cartesian    0.16
    322 z         -8.856922     -8.881555    -0.024633    Cartesian    0.28
    323 x          4.428461      4.440692     0.012231    Cartesian    0.28
    323 y         -8.856922     -8.880876    -0.023954    Cartesian    0.27
    323 z         -4.428461     -4.445626    -0.017165    Cartesian    0.39
    324 x          8.856922      8.869929     0.013008    Cartesian    0.15
    324 y          8.856922      8.873872     0.016950    Cartesian    0.19
    324 z         -4.428461     -4.445145    -0.016685    Cartesian    0.38
    325 x          8.856922      8.879187     0.022266    Cartesian    0.25
    325 y         -4.428461     -4.437558    -0.009097    Cartesian    0.21
    325 z          8.856922      8.880429     0.023507    Cartesian    0.27
    326 x         13.285383     13.319241     0.033858    Cartesian    0.25
    326 y          0.000000      0.000660     0.000660    Cartesian    0.00
    326 z          4.428461      4.428712     0.000251    Cartesian    0.01
    327 x         13.285383     13.306011     0.020628    Cartesian    0.16
    327 y          4.428461      4.436614     0.008153    Cartesian    0.18
    327 z          0.000000      0.001909     0.001909    Cartesian    0.00
    328 x          6.642691      6.644361     0.001670    Cartesian    0.03
    328 y         -6.642691     -6.647837    -0.005146    Cartesian    0.08
    328 z         -6.642691     -6.645646    -0.002954    Cartesian    0.04
    329 x         11.071152     11.074544     0.003392    Cartesian    0.03
    329 y          2.214230      2.217640     0.003410    Cartesian    0.15
    329 z         -6.642691     -6.645140    -0.002449    Cartesian    0.04
    330 x         11.071152     11.075256     0.004104    Cartesian    0.04
    330 y         -6.642691     -6.639970     0.002721    Cartesian   -0.04
    330 z          2.214230      2.215235     0.001005    Cartesian    0.05
    331 x         11.071152     11.075569     0.004417    Cartesian    0.04
    331 y          6.642691      6.645865     0.003174    Cartesian    0.05
    331 z          6.642691      6.644939     0.002248    Cartesian    0.03
--------------------------------------------------------------------------------


  Time to end of optimisation  =       55.3558 seconds


  Peak dynamic memory used =     101.61 MB 


  Timing analysis for GULP :

--------------------------------------------------------------------------------
  Task / Subroutine                                          Time (Seconds)
--------------------------------------------------------------------------------
  Calculation of reciprocal space energy and derivatives          0.0030
  Calculation of reciprocal space energy using symmetry           0.0023
  Calculation of real space energy and derivatives                0.0209
  Calculation of real space energy using symmetry                 0.0253
  Calculation for region 1 energy and derivatives (2-b)          30.4382
  Calculation for region 2a energy                               21.5444
  Calculation for region 2b energy                                0.0097
  Calculation and manipulation of Hessian matrix                  0.1417
  Calculation of matrix inversion                                 2.7948
  Symmetry generation of equivalent positions                     0.0075
--------------------------------------------------------------------------------
  Total CPU time                                                 55.3559
--------------------------------------------------------------------------------


  Dump file written as Na3OCl.grs


  Job Finished at 16:37.09  5th July       2021                               

