ITEM: TIMESTEP
100000
ITEM: NUMBER OF ATOMS
1
ITEM: BOX BOUNDS pp pp pp
0.0118756825 22.4931243175
-0.0371173565 22.5421173565
0.1616595695 22.3433404305
ITEM: ATOMS type x y z
1 1.99838 2.20282 0.357998
ITEM: TIMESTEP
101000
ITEM: NUMBER OF ATOMS
1
ITEM: BOX BOUNDS pp pp pp
0.0118756825 22.4931243175
-0.0371173565 22.5421173565
0.1616595695 22.3433404305
ITEM: ATOMS type x y z
1 2.31099 2.39366 0.472168
ITEM: TIMESTEP
102000
ITEM: NUMBER OF ATOMS
1
ITEM: BOX BOUNDS pp pp pp
0.0118756825 22.4931243175
-0.0371173565 22.5421173565
0.1616595695 22.3433404305
ITEM: ATOMS type x y z
1 2.4322 1.80815 0.1280191389
ITEM: TIMESTEP
103000
ITEM: NUMBER OF ATOMS
1
ITEM: BOX BOUNDS pp pp pp
0.0118756825 22.4931243175
-0.0371173565 22.5421173565
0.1616595695 22.3433404305
ITEM: ATOMS type x y z
1 2.46153 2.7525 0.348823
ITEM: TIMESTEP
104000
ITEM: NUMBER OF ATOMS
1
ITEM: BOX BOUNDS pp pp pp
0.0118756825 22.4931243175
-0.0371173565 22.5421173565
0.1616595695 22.3433404305
ITEM: ATOMS type x y z
1 2.13473 2.20643 0.1153191389
ITEM: TIMESTEP
105000
ITEM: NUMBER OF ATOMS
1
ITEM: BOX BOUNDS pp pp pp
0.0118756825 22.4931243175
-0.0371173565 22.5421173565
0.1616595695 22.3433404305
ITEM: ATOMS type x y z
1 1.55499 2.21493 0.0692161
ITEM: TIMESTEP
106000
ITEM: NUMBER OF ATOMS
1
ITEM: BOX BOUNDS pp pp pp
0.0118756825 22.4931243175
-0.0371173565 22.5421173565
0.1616595695 22.3433404305
ITEM: ATOMS type x y z
1 2.40174 2.37071 0.272933
ITEM: TIMESTEP
107000
ITEM: NUMBER OF ATOMS
1
ITEM: BOX BOUNDS pp pp pp
0.0118756825 22.4931243175
-0.0371173565 22.5421173565
0.1616595695 22.3433404305
ITEM: ATOMS type x y z
1 2.3758 2.38988 0.252437
ITEM: TIMESTEP
108000
ITEM: NUMBER OF ATOMS
1
ITEM: BOX BOUNDS pp pp pp
0.0118756825 22.4931243175
-0.0371173565 22.5421173565
0.1616595695 22.3433404305
ITEM: ATOMS type x y z
1 2.19416 2.70368 0.174106
ITEM: TIMESTEP
109000
ITEM: NUMBER OF ATOMS
1
ITEM: BOX BOUNDS pp pp pp
0.0118756825 22.4931243175
-0.0371173565 22.5421173565
0.1616595695 22.3433404305
ITEM: ATOMS type x y z
1 2.21557 2.97988 0.305173
ITEM: TIMESTEP
110000
ITEM: NUMBER OF ATOMS
1
ITEM: BOX BOUNDS pp pp pp
0.0118756825 22.4931243175
-0.0371173565 22.5421173565
0.1616595695 22.3433404305
ITEM: ATOMS type x y z
1 2.3933 2.28096 0.393376
ITEM: TIMESTEP
111000
ITEM: NUMBER OF ATOMS
1
ITEM: BOX BOUNDS pp pp pp
0.0118756825 22.4931243175
-0.0371173565 22.5421173565
0.1616595695 22.3433404305
ITEM: ATOMS type x y z
1 2.94163 2.20755 0.56213
ITEM: TIMESTEP
112000
ITEM: NUMBER OF ATOMS
1
ITEM: BOX BOUNDS pp pp pp
0.0118756825 22.4931243175
-0.0371173565 22.5421173565
0.1616595695 22.3433404305
ITEM: ATOMS type x y z
1 2.18912 1.81359 0.47956
ITEM: TIMESTEP
113000
ITEM: NUMBER OF ATOMS
1
ITEM: BOX BOUNDS pp pp pp
0.0118756825 22.4931243175
-0.0371173565 22.5421173565
0.1616595695 22.3433404305
ITEM: ATOMS type x y z
1 2.22198 2.56491 0.365524
ITEM: TIMESTEP
114000
ITEM: NUMBER OF ATOMS
1
ITEM: BOX BOUNDS pp pp pp
0.0118756825 22.4931243175
-0.0371173565 22.5421173565
0.1616595695 22.3433404305
ITEM: ATOMS type x y z
1 2.57164 1.75275 0.448991
ITEM: TIMESTEP
115000
ITEM: NUMBER OF ATOMS
1
ITEM: BOX BOUNDS pp pp pp
0.0118756825 22.4931243175
-0.0371173565 22.5421173565
0.1616595695 22.3433404305
ITEM: ATOMS type x y z
1 2.23963 2.68373 0.296315
ITEM: TIMESTEP
116000
ITEM: NUMBER OF ATOMS
1
ITEM: BOX BOUNDS pp pp pp
0.0118756825 22.4931243175
-0.0371173565 22.5421173565
0.1616595695 22.3433404305
ITEM: ATOMS type x y z
1 2.13374 2.20832 0.139989
ITEM: TIMESTEP
117000
ITEM: NUMBER OF ATOMS
1
ITEM: BOX BOUNDS pp pp pp
0.0118756825 22.4931243175
-0.0371173565 22.5421173565
0.1616595695 22.3433404305
ITEM: ATOMS type x y z
1 2.63961 1.96959 0.441787
ITEM: TIMESTEP
118000
ITEM: NUMBER OF ATOMS
1
ITEM: BOX BOUNDS pp pp pp
0.0118756825 22.4931243175
-0.0371173565 22.5421173565
0.1616595695 22.3433404305
ITEM: ATOMS type x y z
1 1.61621 2.10256 0.197357
ITEM: TIMESTEP
119000
ITEM: NUMBER OF ATOMS
1
ITEM: BOX BOUNDS pp pp pp
0.0118756825 22.4931243175
-0.0371173565 22.5421173565
0.1616595695 22.3433404305
ITEM: ATOMS type x y z
1 2.39712 1.82946 0.220485
ITEM: TIMESTEP
120000
ITEM: NUMBER OF ATOMS
1
ITEM: BOX BOUNDS pp pp pp
0.0118756825 22.4931243175
-0.0371173565 22.5421173565
0.1616595695 22.3433404305
ITEM: ATOMS type x y z
1 2.47637 1.57538 0.538805
ITEM: TIMESTEP
121000
ITEM: NUMBER OF ATOMS
1
ITEM: BOX BOUNDS pp pp pp
0.0118756825 22.4931243175
-0.0371173565 22.5421173565
0.1616595695 22.3433404305
ITEM: ATOMS type x y z
1 2.41955 1.74748 0.337894
ITEM: TIMESTEP
122000
ITEM: NUMBER OF ATOMS
1
ITEM: BOX BOUNDS pp pp pp
0.0118756825 22.4931243175
-0.0371173565 22.5421173565
0.1616595695 22.3433404305
ITEM: ATOMS type x y z
1 2.55256 2.23478 0.228376
ITEM: TIMESTEP
123000
ITEM: NUMBER OF ATOMS
1
ITEM: BOX BOUNDS pp pp pp
0.0118756825 22.4931243175
-0.0371173565 22.5421173565
0.1616595695 22.3433404305
ITEM: ATOMS type x y z
1 2.69267 2.04493 0.315507
ITEM: TIMESTEP
124000
ITEM: NUMBER OF ATOMS
1
ITEM: BOX BOUNDS pp pp pp
0.0118756825 22.4931243175
-0.0371173565 22.5421173565
0.1616595695 22.3433404305
ITEM: ATOMS type x y z
1 2.21938 2.46663 0.295711
ITEM: TIMESTEP
125000
ITEM: NUMBER OF ATOMS
1
ITEM: BOX BOUNDS pp pp pp
0.0118756825 22.4931243175
-0.0371173565 22.5421173565
0.1616595695 22.3433404305
ITEM: ATOMS type x y z
1 2.82172 2.00705 0.358576
ITEM: TIMESTEP
126000
ITEM: NUMBER OF ATOMS
1
ITEM: BOX BOUNDS pp pp pp
0.0118756825 22.4931243175
-0.0371173565 22.5421173565
0.1616595695 22.3433404305
ITEM: ATOMS type x y z
1 1.8945 1.96151 0.396364
ITEM: TIMESTEP
127000
ITEM: NUMBER OF ATOMS
1
ITEM: BOX BOUNDS pp pp pp
0.0118756825 22.4931243175
-0.0371173565 22.5421173565
0.1616595695 22.3433404305
ITEM: ATOMS type x y z
1 2.11156 2.42123 0.0918191389
ITEM: TIMESTEP
128000
ITEM: NUMBER OF ATOMS
1
ITEM: BOX BOUNDS pp pp pp
0.0118756825 22.4931243175
-0.0371173565 22.5421173565
0.1616595695 22.3433404305
ITEM: ATOMS type x y z
1 2.11345 2.43189 0.423404
ITEM: TIMESTEP
129000
ITEM: NUMBER OF ATOMS
1
ITEM: BOX BOUNDS pp pp pp
0.0118756825 22.4931243175
-0.0371173565 22.5421173565
0.1616595695 22.3433404305
ITEM: ATOMS type x y z
1 2.28621 2.29654 0.285192
ITEM: TIMESTEP
130000
ITEM: NUMBER OF ATOMS
1
ITEM: BOX BOUNDS pp pp pp
0.0118756825 22.4931243175
-0.0371173565 22.5421173565
0.1616595695 22.3433404305
ITEM: ATOMS type x y z
1 2.36689 2.02154 0.1431191389
ITEM: TIMESTEP
131000
ITEM: NUMBER OF ATOMS
1
ITEM: BOX BOUNDS pp pp pp
0.0118756825 22.4931243175
-0.0371173565 22.5421173565
0.1616595695 22.3433404305
ITEM: ATOMS type x y z
1 2.26438 1.74984 0.157711
ITEM: TIMESTEP
132000
ITEM: NUMBER OF ATOMS
1
ITEM: BOX BOUNDS pp pp pp
0.0118756825 22.4931243175
-0.0371173565 22.5421173565
0.1616595695 22.3433404305
ITEM: ATOMS type x y z
1 2.65193 2.11936 0.0429191389
ITEM: TIMESTEP
133000
ITEM: NUMBER OF ATOMS
1
ITEM: BOX BOUNDS pp pp pp
0.0118756825 22.4931243175
-0.0371173565 22.5421173565
0.1616595695 22.3433404305
ITEM: ATOMS type x y z
1 2.24104 2.41773 0.260729
ITEM: TIMESTEP
134000
ITEM: NUMBER OF ATOMS
1
ITEM: BOX BOUNDS pp pp pp
0.0118756825 22.4931243175
-0.0371173565 22.5421173565
0.1616595695 22.3433404305
ITEM: ATOMS type x y z
1 2.27932 2.49666 0.319668
ITEM: TIMESTEP
135000
ITEM: NUMBER OF ATOMS
1
ITEM: BOX BOUNDS pp pp pp
0.0118756825 22.4931243175
-0.0371173565 22.5421173565
0.1616595695 22.3433404305
ITEM: ATOMS type x y z
1 2.35295 1.87556 0.382843
ITEM: TIMESTEP
136000
ITEM: NUMBER OF ATOMS
1
ITEM: BOX BOUNDS pp pp pp
0.0118756825 22.4931243175
-0.0371173565 22.5421173565
0.1616595695 22.3433404305
ITEM: ATOMS type x y z
1 2.15053 2.47139 0.219885
ITEM: TIMESTEP
137000
ITEM: NUMBER OF ATOMS
1
ITEM: BOX BOUNDS pp pp pp
0.0118756825 22.4931243175
-0.0371173565 22.5421173565
0.1616595695 22.3433404305
ITEM: ATOMS type x y z
1 2.53919 2.19571 0.428836
ITEM: TIMESTEP
138000
ITEM: NUMBER OF ATOMS
1
ITEM: BOX BOUNDS pp pp pp
0.0118756825 22.4931243175
-0.0371173565 22.5421173565
0.1616595695 22.3433404305
ITEM: ATOMS type x y z
1 2.48049 2.04889 0.268802
ITEM: TIMESTEP
139000
ITEM: NUMBER OF ATOMS
1
ITEM: BOX BOUNDS pp pp pp
0.0118756825 22.4931243175
-0.0371173565 22.5421173565
0.1616595695 22.3433404305
ITEM: ATOMS type x y z
1 2.64941 2.4682 0.277141
ITEM: TIMESTEP
140000
ITEM: NUMBER OF ATOMS
1
ITEM: BOX BOUNDS pp pp pp
0.0118756825 22.4931243175
-0.0371173565 22.5421173565
0.1616595695 22.3433404305
ITEM: ATOMS type x y z
1 2.24442 2.64461 0.279733
ITEM: TIMESTEP
141000
ITEM: NUMBER OF ATOMS
1
ITEM: BOX BOUNDS pp pp pp
0.0118756825 22.4931243175
-0.0371173565 22.5421173565
0.1616595695 22.3433404305
ITEM: ATOMS type x y z
1 1.9755 2.56232 0.411173
ITEM: TIMESTEP
142000
ITEM: NUMBER OF ATOMS
1
ITEM: BOX BOUNDS pp pp pp
0.0118756825 22.4931243175
-0.0371173565 22.5421173565
0.1616595695 22.3433404305
ITEM: ATOMS type x y z
1 1.80441 1.92145 0.1831191389
ITEM: TIMESTEP
143000
ITEM: NUMBER OF ATOMS
1
ITEM: BOX BOUNDS pp pp pp
0.0118756825 22.4931243175
-0.0371173565 22.5421173565
0.1616595695 22.3433404305
ITEM: ATOMS type x y z
1 1.78779 2.29063 0.1031191389
ITEM: TIMESTEP
144000
ITEM: NUMBER OF ATOMS
1
ITEM: BOX BOUNDS pp pp pp
0.0118756825 22.4931243175
-0.0371173565 22.5421173565
0.1616595695 22.3433404305
ITEM: ATOMS type x y z
1 2.73586 2.22367 0.317632
ITEM: TIMESTEP
145000
ITEM: NUMBER OF ATOMS
1
ITEM: BOX BOUNDS pp pp pp
0.0118756825 22.4931243175
-0.0371173565 22.5421173565
0.1616595695 22.3433404305
ITEM: ATOMS type x y z
1 2.56729 2.53227 0.1368191389
ITEM: TIMESTEP
146000
ITEM: NUMBER OF ATOMS
1
ITEM: BOX BOUNDS pp pp pp
0.0118756825 22.4931243175
-0.0371173565 22.5421173565
0.1616595695 22.3433404305
ITEM: ATOMS type x y z
1 1.40665 2.3615 0.41711
ITEM: TIMESTEP
147000
ITEM: NUMBER OF ATOMS
1
ITEM: BOX BOUNDS pp pp pp
0.0118756825 22.4931243175
-0.0371173565 22.5421173565
0.1616595695 22.3433404305
ITEM: ATOMS type x y z
1 1.93786 2.43235 0.301406
ITEM: TIMESTEP
148000
ITEM: NUMBER OF ATOMS
1
ITEM: BOX BOUNDS pp pp pp
0.0118756825 22.4931243175
-0.0371173565 22.5421173565
0.1616595695 22.3433404305
ITEM: ATOMS type x y z
1 2.13498 2.48494 0.1937191389
ITEM: TIMESTEP
149000
ITEM: NUMBER OF ATOMS
1
ITEM: BOX BOUNDS pp pp pp
0.0118756825 22.4931243175
-0.0371173565 22.5421173565
0.1616595695 22.3433404305
ITEM: ATOMS type x y z
1 2.05945 2.06518 0.19708
ITEM: TIMESTEP
150000
ITEM: NUMBER OF ATOMS
1
ITEM: BOX BOUNDS pp pp pp
0.0118756825 22.4931243175
-0.0371173565 22.5421173565
0.1616595695 22.3433404305
ITEM: ATOMS type x y z
1 2.09987 2.29425 0.158602
ITEM: TIMESTEP
151000
ITEM: NUMBER OF ATOMS
1
ITEM: BOX BOUNDS pp pp pp
0.0118756825 22.4931243175
-0.0371173565 22.5421173565
0.1616595695 22.3433404305
ITEM: ATOMS type x y z
1 2.19495 2.37854 0.29933
ITEM: TIMESTEP
152000
ITEM: NUMBER OF ATOMS
1
ITEM: BOX BOUNDS pp pp pp
0.0118756825 22.4931243175
-0.0371173565 22.5421173565
0.1616595695 22.3433404305
ITEM: ATOMS type x y z
1 2.79181 2.2338 0.398603
ITEM: TIMESTEP
153000
ITEM: NUMBER OF ATOMS
1
ITEM: BOX BOUNDS pp pp pp
0.0118756825 22.4931243175
-0.0371173565 22.5421173565
0.1616595695 22.3433404305
ITEM: ATOMS type x y z
1 2.27513 1.9254 0.349126
ITEM: TIMESTEP
154000
ITEM: NUMBER OF ATOMS
1
ITEM: BOX BOUNDS pp pp pp
0.0118756825 22.4931243175
-0.0371173565 22.5421173565
0.1616595695 22.3433404305
ITEM: ATOMS type x y z
1 1.82458 1.93715 0.517186
ITEM: TIMESTEP
155000
ITEM: NUMBER OF ATOMS
1
ITEM: BOX BOUNDS pp pp pp
0.0118756825 22.4931243175
-0.0371173565 22.5421173565
0.1616595695 22.3433404305
ITEM: ATOMS type x y z
1 2.16665 1.94517 0.264297
ITEM: TIMESTEP
156000
ITEM: NUMBER OF ATOMS
1
ITEM: BOX BOUNDS pp pp pp
0.0118756825 22.4931243175
-0.0371173565 22.5421173565
0.1616595695 22.3433404305
ITEM: ATOMS type x y z
1 2.10846 2.30772 0.0628191389
ITEM: TIMESTEP
157000
ITEM: NUMBER OF ATOMS
1
ITEM: BOX BOUNDS pp pp pp
0.0118756825 22.4931243175
-0.0371173565 22.5421173565
0.1616595695 22.3433404305
ITEM: ATOMS type x y z
1 1.55218 2.34821 -0.0179808611
ITEM: TIMESTEP
158000
ITEM: NUMBER OF ATOMS
1
ITEM: BOX BOUNDS pp pp pp
0.0118756825 22.4931243175
-0.0371173565 22.5421173565
0.1616595695 22.3433404305
ITEM: ATOMS type x y z
1 1.5736 2.32033 0.270572
ITEM: TIMESTEP
159000
ITEM: NUMBER OF ATOMS
1
ITEM: BOX BOUNDS pp pp pp
0.0118756825 22.4931243175
-0.0371173565 22.5421173565
0.1616595695 22.3433404305
ITEM: ATOMS type x y z
1 2.08458 2.10349 0.357254
ITEM: TIMESTEP
160000
ITEM: NUMBER OF ATOMS
1
ITEM: BOX BOUNDS pp pp pp
0.0118756825 22.4931243175
-0.0371173565 22.5421173565
0.1616595695 22.3433404305
ITEM: ATOMS type x y z
1 2.31414 2.34519 0.293209
ITEM: TIMESTEP
161000
ITEM: NUMBER OF ATOMS
1
ITEM: BOX BOUNDS pp pp pp
0.0118756825 22.4931243175
-0.0371173565 22.5421173565
0.1616595695 22.3433404305
ITEM: ATOMS type x y z
1 2.15711 2.13571 0.281769
ITEM: TIMESTEP
162000
ITEM: NUMBER OF ATOMS
1
ITEM: BOX BOUNDS pp pp pp
0.0118756825 22.4931243175
-0.0371173565 22.5421173565
0.1616595695 22.3433404305
ITEM: ATOMS type x y z
1 1.80104 1.94707 0.334073
ITEM: TIMESTEP
163000
ITEM: NUMBER OF ATOMS
1
ITEM: BOX BOUNDS pp pp pp
0.0118756825 22.4931243175
-0.0371173565 22.5421173565
0.1616595695 22.3433404305
ITEM: ATOMS type x y z
1 2.09241 1.77895 0.434553
ITEM: TIMESTEP
164000
ITEM: NUMBER OF ATOMS
1
ITEM: BOX BOUNDS pp pp pp
0.0118756825 22.4931243175
-0.0371173565 22.5421173565
0.1616595695 22.3433404305
ITEM: ATOMS type x y z
1 2.50836 2.60043 0.239268
ITEM: TIMESTEP
165000
ITEM: NUMBER OF ATOMS
1
ITEM: BOX BOUNDS pp pp pp
0.0118756825 22.4931243175
-0.0371173565 22.5421173565
0.1616595695 22.3433404305
ITEM: ATOMS type x y z
1 1.99929 2.35383 0.401699
ITEM: TIMESTEP
166000
ITEM: NUMBER OF ATOMS
1
ITEM: BOX BOUNDS pp pp pp
0.0118756825 22.4931243175
-0.0371173565 22.5421173565
0.1616595695 22.3433404305
ITEM: ATOMS type x y z
1 2.73051 2.77202 0.449208
ITEM: TIMESTEP
167000
ITEM: NUMBER OF ATOMS
1
ITEM: BOX BOUNDS pp pp pp
0.0118756825 22.4931243175
-0.0371173565 22.5421173565
0.1616595695 22.3433404305
ITEM: ATOMS type x y z
1 2.4197 2.01283 0.37807
ITEM: TIMESTEP
168000
ITEM: NUMBER OF ATOMS
1
ITEM: BOX BOUNDS pp pp pp
0.0118756825 22.4931243175
-0.0371173565 22.5421173565
0.1616595695 22.3433404305
ITEM: ATOMS type x y z
1 1.70855 2.11924 0.474963
ITEM: TIMESTEP
169000
ITEM: NUMBER OF ATOMS
1
ITEM: BOX BOUNDS pp pp pp
0.0118756825 22.4931243175
-0.0371173565 22.5421173565
0.1616595695 22.3433404305
ITEM: ATOMS type x y z
1 2.08287 2.21869 -0.0432808611
ITEM: TIMESTEP
170000
ITEM: NUMBER OF ATOMS
1
ITEM: BOX BOUNDS pp pp pp
0.0118756825 22.4931243175
-0.0371173565 22.5421173565
0.1616595695 22.3433404305
ITEM: ATOMS type x y z
1 2.42042 2.25291 0.204864
ITEM: TIMESTEP
171000
ITEM: NUMBER OF ATOMS
1
ITEM: BOX BOUNDS pp pp pp
0.0118756825 22.4931243175
-0.0371173565 22.5421173565
0.1616595695 22.3433404305
ITEM: ATOMS type x y z
1 1.83615 2.13573 0.44273
ITEM: TIMESTEP
172000
ITEM: NUMBER OF ATOMS
1
ITEM: BOX BOUNDS pp pp pp
0.0118756825 22.4931243175
-0.0371173565 22.5421173565
0.1616595695 22.3433404305
ITEM: ATOMS type x y z
1 2.12328 2.73922 0.341838
ITEM: TIMESTEP
173000
ITEM: NUMBER OF ATOMS
1
ITEM: BOX BOUNDS pp pp pp
0.0118756825 22.4931243175
-0.0371173565 22.5421173565
0.1616595695 22.3433404305
ITEM: ATOMS type x y z
1 2.13121 2.52937 0.1440191389
ITEM: TIMESTEP
174000
ITEM: NUMBER OF ATOMS
1
ITEM: BOX BOUNDS pp pp pp
0.0118756825 22.4931243175
-0.0371173565 22.5421173565
0.1616595695 22.3433404305
ITEM: ATOMS type x y z
1 2.61958 2.32504 0.339549
ITEM: TIMESTEP
175000
ITEM: NUMBER OF ATOMS
1
ITEM: BOX BOUNDS pp pp pp
0.0118756825 22.4931243175
-0.0371173565 22.5421173565
0.1616595695 22.3433404305
ITEM: ATOMS type x y z
1 2.21267 2.2278 0.281764
ITEM: TIMESTEP
176000
ITEM: NUMBER OF ATOMS
1
ITEM: BOX BOUNDS pp pp pp
0.0118756825 22.4931243175
-0.0371173565 22.5421173565
0.1616595695 22.3433404305
ITEM: ATOMS type x y z
1 2.46477 1.71555 0.174536
ITEM: TIMESTEP
177000
ITEM: NUMBER OF ATOMS
1
ITEM: BOX BOUNDS pp pp pp
0.0118756825 22.4931243175
-0.0371173565 22.5421173565
0.1616595695 22.3433404305
ITEM: ATOMS type x y z
1 2.69132 2.22719 0.655746
ITEM: TIMESTEP
178000
ITEM: NUMBER OF ATOMS
1
ITEM: BOX BOUNDS pp pp pp
0.0118756825 22.4931243175
-0.0371173565 22.5421173565
0.1616595695 22.3433404305
ITEM: ATOMS type x y z
1 2.2557 2.26093 0.26888
ITEM: TIMESTEP
179000
ITEM: NUMBER OF ATOMS
1
ITEM: BOX BOUNDS pp pp pp
0.0118756825 22.4931243175
-0.0371173565 22.5421173565
0.1616595695 22.3433404305
ITEM: ATOMS type x y z
1 1.93047 2.27644 0.365003
ITEM: TIMESTEP
180000
ITEM: NUMBER OF ATOMS
1
ITEM: BOX BOUNDS pp pp pp
0.0118756825 22.4931243175
-0.0371173565 22.5421173565
0.1616595695 22.3433404305
ITEM: ATOMS type x y z
1 2.35413 2.37824 0.349848
ITEM: TIMESTEP
181000
ITEM: NUMBER OF ATOMS
1
ITEM: BOX BOUNDS pp pp pp
0.0118756825 22.4931243175
-0.0371173565 22.5421173565
0.1616595695 22.3433404305
ITEM: ATOMS type x y z
1 2.2165 2.15805 0.2557191389
ITEM: TIMESTEP
182000
ITEM: NUMBER OF ATOMS
1
ITEM: BOX BOUNDS pp pp pp
0.0118756825 22.4931243175
-0.0371173565 22.5421173565
0.1616595695 22.3433404305
ITEM: ATOMS type x y z
1 2.34385 2.15171 0.471684
ITEM: TIMESTEP
183000
ITEM: NUMBER OF ATOMS
1
ITEM: BOX BOUNDS pp pp pp
0.0118756825 22.4931243175
-0.0371173565 22.5421173565
0.1616595695 22.3433404305
ITEM: ATOMS type x y z
1 2.37725 2.49458 0.465606
ITEM: TIMESTEP
184000
ITEM: NUMBER OF ATOMS
1
ITEM: BOX BOUNDS pp pp pp
0.0118756825 22.4931243175
-0.0371173565 22.5421173565
0.1616595695 22.3433404305
ITEM: ATOMS type x y z
1 2.3096 2.08986 0.0891149
ITEM: TIMESTEP
185000
ITEM: NUMBER OF ATOMS
1
ITEM: BOX BOUNDS pp pp pp
0.0118756825 22.4931243175
-0.0371173565 22.5421173565
0.1616595695 22.3433404305
ITEM: ATOMS type x y z
1 2.42875 2.00128 0.325359
ITEM: TIMESTEP
186000
ITEM: NUMBER OF ATOMS
1
ITEM: BOX BOUNDS pp pp pp
0.0118756825 22.4931243175
-0.0371173565 22.5421173565
0.1616595695 22.3433404305
ITEM: ATOMS type x y z
1 2.36337 2.48334 0.395406
ITEM: TIMESTEP
187000
ITEM: NUMBER OF ATOMS
1
ITEM: BOX BOUNDS pp pp pp
0.0118756825 22.4931243175
-0.0371173565 22.5421173565
0.1616595695 22.3433404305
ITEM: ATOMS type x y z
1 2.03367 2.6432 -0.0030808611
ITEM: TIMESTEP
188000
ITEM: NUMBER OF ATOMS
1
ITEM: BOX BOUNDS pp pp pp
0.0118756825 22.4931243175
-0.0371173565 22.5421173565
0.1616595695 22.3433404305
ITEM: ATOMS type x y z
1 2.1925 2.869 0.28746
ITEM: TIMESTEP
189000
ITEM: NUMBER OF ATOMS
1
ITEM: BOX BOUNDS pp pp pp
0.0118756825 22.4931243175
-0.0371173565 22.5421173565
0.1616595695 22.3433404305
ITEM: ATOMS type x y z
1 3.18785 1.91684 0.31723
ITEM: TIMESTEP
190000
ITEM: NUMBER OF ATOMS
1
ITEM: BOX BOUNDS pp pp pp
0.0118756825 22.4931243175
-0.0371173565 22.5421173565
0.1616595695 22.3433404305
ITEM: ATOMS type x y z
1 2.19219 2.5943 0.41454
ITEM: TIMESTEP
191000
ITEM: NUMBER OF ATOMS
1
ITEM: BOX BOUNDS pp pp pp
0.0118756825 22.4931243175
-0.0371173565 22.5421173565
0.1616595695 22.3433404305
ITEM: ATOMS type x y z
1 2.3105 2.36585 0.233487
ITEM: TIMESTEP
192000
ITEM: NUMBER OF ATOMS
1
ITEM: BOX BOUNDS pp pp pp
0.0118756825 22.4931243175
-0.0371173565 22.5421173565
0.1616595695 22.3433404305
ITEM: ATOMS type x y z
1 2.64804 1.72409 0.595286
ITEM: TIMESTEP
193000
ITEM: NUMBER OF ATOMS
1
ITEM: BOX BOUNDS pp pp pp
0.0118756825 22.4931243175
-0.0371173565 22.5421173565
0.1616595695 22.3433404305
ITEM: ATOMS type x y z
1 2.55041 2.34499 0.2210191389
ITEM: TIMESTEP
194000
ITEM: NUMBER OF ATOMS
1
ITEM: BOX BOUNDS pp pp pp
0.0118756825 22.4931243175
-0.0371173565 22.5421173565
0.1616595695 22.3433404305
ITEM: ATOMS type x y z
1 2.59558 2.27445 0.108293
ITEM: TIMESTEP
195000
ITEM: NUMBER OF ATOMS
1
ITEM: BOX BOUNDS pp pp pp
0.0118756825 22.4931243175
-0.0371173565 22.5421173565
0.1616595695 22.3433404305
ITEM: ATOMS type x y z
1 2.26069 2.75888 0.132698
ITEM: TIMESTEP
196000
ITEM: NUMBER OF ATOMS
1
ITEM: BOX BOUNDS pp pp pp
0.0118756825 22.4931243175
-0.0371173565 22.5421173565
0.1616595695 22.3433404305
ITEM: ATOMS type x y z
1 2.11906 2.40162 0.0185191389
ITEM: TIMESTEP
197000
ITEM: NUMBER OF ATOMS
1
ITEM: BOX BOUNDS pp pp pp
0.0118756825 22.4931243175
-0.0371173565 22.5421173565
0.1616595695 22.3433404305
ITEM: ATOMS type x y z
1 2.32394 2.41192 0.348375
ITEM: TIMESTEP
198000
ITEM: NUMBER OF ATOMS
1
ITEM: BOX BOUNDS pp pp pp
0.0118756825 22.4931243175
-0.0371173565 22.5421173565
0.1616595695 22.3433404305
ITEM: ATOMS type x y z
1 2.13424 2.84027 0.0362191389
ITEM: TIMESTEP
199000
ITEM: NUMBER OF ATOMS
1
ITEM: BOX BOUNDS pp pp pp
0.0118756825 22.4931243175
-0.0371173565 22.5421173565
0.1616595695 22.3433404305
ITEM: ATOMS type x y z
1 2.34693 2.1869 0.262669
ITEM: TIMESTEP
200000
ITEM: NUMBER OF ATOMS
1
ITEM: BOX BOUNDS pp pp pp
0.0118756825 22.4931243175
-0.0371173565 22.5421173565
0.1616595695 22.3433404305
ITEM: ATOMS type x y z
1 2.086 2.25319 0.1205191389
ITEM: TIMESTEP
201000
ITEM: NUMBER OF ATOMS
1
ITEM: BOX BOUNDS pp pp pp
0.0118756825 22.4931243175
-0.0371173565 22.5421173565
0.1616595695 22.3433404305
ITEM: ATOMS type x y z
1 2.5273 2.08082 0.163212
ITEM: TIMESTEP
202000
ITEM: NUMBER OF ATOMS
1
ITEM: BOX BOUNDS pp pp pp
0.0118756825 22.4931243175
-0.0371173565 22.5421173565
0.1616595695 22.3433404305
ITEM: ATOMS type x y z
1 2.93992 1.76785 0.1083191389
ITEM: TIMESTEP
203000
ITEM: NUMBER OF ATOMS
1
ITEM: BOX BOUNDS pp pp pp
0.0118756825 22.4931243175
-0.0371173565 22.5421173565
0.1616595695 22.3433404305
ITEM: ATOMS type x y z
1 2.0421 2.64467 -0.0311808611
ITEM: TIMESTEP
204000
ITEM: NUMBER OF ATOMS
1
ITEM: BOX BOUNDS pp pp pp
0.0118756825 22.4931243175
-0.0371173565 22.5421173565
0.1616595695 22.3433404305
ITEM: ATOMS type x y z
1 1.87318 2.61575 0.312113
ITEM: TIMESTEP
205000
ITEM: NUMBER OF ATOMS
1
ITEM: BOX BOUNDS pp pp pp
0.0118756825 22.4931243175
-0.0371173565 22.5421173565
0.1616595695 22.3433404305
ITEM: ATOMS type x y z
1 2.51958 2.44697 0.166422
ITEM: TIMESTEP
206000
ITEM: NUMBER OF ATOMS
1
ITEM: BOX BOUNDS pp pp pp
0.0118756825 22.4931243175
-0.0371173565 22.5421173565
0.1616595695 22.3433404305
ITEM: ATOMS type x y z
1 2.11035 2.43496 0.0199191389
ITEM: TIMESTEP
207000
ITEM: NUMBER OF ATOMS
1
ITEM: BOX BOUNDS pp pp pp
0.0118756825 22.4931243175
-0.0371173565 22.5421173565
0.1616595695 22.3433404305
ITEM: ATOMS type x y z
1 1.96794 1.96937 0.544918
ITEM: TIMESTEP
208000
ITEM: NUMBER OF ATOMS
1
ITEM: BOX BOUNDS pp pp pp
0.0118756825 22.4931243175
-0.0371173565 22.5421173565
0.1616595695 22.3433404305
ITEM: ATOMS type x y z
1 1.79565 2.54197 0.1146191389
ITEM: TIMESTEP
209000
ITEM: NUMBER OF ATOMS
1
ITEM: BOX BOUNDS pp pp pp
0.0118756825 22.4931243175
-0.0371173565 22.5421173565
0.1616595695 22.3433404305
ITEM: ATOMS type x y z
1 1.85368 1.81692 0.0808191389
ITEM: TIMESTEP
210000
ITEM: NUMBER OF ATOMS
1
ITEM: BOX BOUNDS pp pp pp
0.0118756825 22.4931243175
-0.0371173565 22.5421173565
0.1616595695 22.3433404305
ITEM: ATOMS type x y z
1 2.63689 1.82218 0.303732
ITEM: TIMESTEP
211000
ITEM: NUMBER OF ATOMS
1
ITEM: BOX BOUNDS pp pp pp
0.0118756825 22.4931243175
-0.0371173565 22.5421173565
0.1616595695 22.3433404305
ITEM: ATOMS type x y z
1 2.53017 2.24566 0.0927125
ITEM: TIMESTEP
212000
ITEM: NUMBER OF ATOMS
1
ITEM: BOX BOUNDS pp pp pp
0.0118756825 22.4931243175
-0.0371173565 22.5421173565
0.1616595695 22.3433404305
ITEM: ATOMS type x y z
1 2.40428 1.9507 0.0978191389
ITEM: TIMESTEP
213000
ITEM: NUMBER OF ATOMS
1
ITEM: BOX BOUNDS pp pp pp
0.0118756825 22.4931243175
-0.0371173565 22.5421173565
0.1616595695 22.3433404305
ITEM: ATOMS type x y z
1 2.44682 2.17021 0.389786
ITEM: TIMESTEP
214000
ITEM: NUMBER OF ATOMS
1
ITEM: BOX BOUNDS pp pp pp
0.0118756825 22.4931243175
-0.0371173565 22.5421173565
0.1616595695 22.3433404305
ITEM: ATOMS type x y z
1 2.46971 2.06783 0.3648191389
ITEM: TIMESTEP
215000
ITEM: NUMBER OF ATOMS
1
ITEM: BOX BOUNDS pp pp pp
0.0118756825 22.4931243175
-0.0371173565 22.5421173565
0.1616595695 22.3433404305
ITEM: ATOMS type x y z
1 2.20678 2.35742 0.190385
ITEM: TIMESTEP
216000
ITEM: NUMBER OF ATOMS
1
ITEM: BOX BOUNDS pp pp pp
0.0118756825 22.4931243175
-0.0371173565 22.5421173565
0.1616595695 22.3433404305
ITEM: ATOMS type x y z
1 2.3929 1.58039 0.312081
ITEM: TIMESTEP
217000
ITEM: NUMBER OF ATOMS
1
ITEM: BOX BOUNDS pp pp pp
0.0118756825 22.4931243175
-0.0371173565 22.5421173565
0.1616595695 22.3433404305
ITEM: ATOMS type x y z
1 2.08933 2.34293 0.190672
ITEM: TIMESTEP
218000
ITEM: NUMBER OF ATOMS
1
ITEM: BOX BOUNDS pp pp pp
0.0118756825 22.4931243175
-0.0371173565 22.5421173565
0.1616595695 22.3433404305
ITEM: ATOMS type x y z
1 2.30173 2.35803 0.207382
ITEM: TIMESTEP
219000
ITEM: NUMBER OF ATOMS
1
ITEM: BOX BOUNDS pp pp pp
0.0118756825 22.4931243175
-0.0371173565 22.5421173565
0.1616595695 22.3433404305
ITEM: ATOMS type x y z
1 2.26161 1.89283 -0.0293808611
ITEM: TIMESTEP
220000
ITEM: NUMBER OF ATOMS
1
ITEM: BOX BOUNDS pp pp pp
0.0118756825 22.4931243175
-0.0371173565 22.5421173565
0.1616595695 22.3433404305
ITEM: ATOMS type x y z
1 2.17499 2.50636 0.162044
ITEM: TIMESTEP
221000
ITEM: NUMBER OF ATOMS
1
ITEM: BOX BOUNDS pp pp pp
0.0118756825 22.4931243175
-0.0371173565 22.5421173565
0.1616595695 22.3433404305
ITEM: ATOMS type x y z
1 2.80101 2.45901 0.342425
ITEM: TIMESTEP
222000
ITEM: NUMBER OF ATOMS
1
ITEM: BOX BOUNDS pp pp pp
0.0118756825 22.4931243175
-0.0371173565 22.5421173565
0.1616595695 22.3433404305
ITEM: ATOMS type x y z
1 2.08643 2.41625 0.0208467
ITEM: TIMESTEP
223000
ITEM: NUMBER OF ATOMS
1
ITEM: BOX BOUNDS pp pp pp
0.0118756825 22.4931243175
-0.0371173565 22.5421173565
0.1616595695 22.3433404305
ITEM: ATOMS type x y z
1 2.28533 1.96324 0.432351
ITEM: TIMESTEP
224000
ITEM: NUMBER OF ATOMS
1
ITEM: BOX BOUNDS pp pp pp
0.0118756825 22.4931243175
-0.0371173565 22.5421173565
0.1616595695 22.3433404305
ITEM: ATOMS type x y z
1 2.46463 2.41126 0.29933
ITEM: TIMESTEP
225000
ITEM: NUMBER OF ATOMS
1
ITEM: BOX BOUNDS pp pp pp
0.0118756825 22.4931243175
-0.0371173565 22.5421173565
0.1616595695 22.3433404305
ITEM: ATOMS type x y z
1 2.58503 2.2246 0.546178
ITEM: TIMESTEP
226000
ITEM: NUMBER OF ATOMS
1
ITEM: BOX BOUNDS pp pp pp
0.0118756825 22.4931243175
-0.0371173565 22.5421173565
0.1616595695 22.3433404305
ITEM: ATOMS type x y z
1 2.33463 2.09811 0.421767
ITEM: TIMESTEP
227000
ITEM: NUMBER OF ATOMS
1
ITEM: BOX BOUNDS pp pp pp
0.0118756825 22.4931243175
-0.0371173565 22.5421173565
0.1616595695 22.3433404305
ITEM: ATOMS type x y z
1 1.81797 1.92964 0.3602191389
ITEM: TIMESTEP
228000
ITEM: NUMBER OF ATOMS
1
ITEM: BOX BOUNDS pp pp pp
0.0118756825 22.4931243175
-0.0371173565 22.5421173565
0.1616595695 22.3433404305
ITEM: ATOMS type x y z
1 2.74203 2.28255 0.446146
ITEM: TIMESTEP
229000
ITEM: NUMBER OF ATOMS
1
ITEM: BOX BOUNDS pp pp pp
0.0118756825 22.4931243175
-0.0371173565 22.5421173565
0.1616595695 22.3433404305
ITEM: ATOMS type x y z
1 2.21985 2.28088 0.387961
ITEM: TIMESTEP
230000
ITEM: NUMBER OF ATOMS
1
ITEM: BOX BOUNDS pp pp pp
0.0118756825 22.4931243175
-0.0371173565 22.5421173565
0.1616595695 22.3433404305
ITEM: ATOMS type x y z
1 2.13815 2.41471 0.175172
ITEM: TIMESTEP
231000
ITEM: NUMBER OF ATOMS
1
ITEM: BOX BOUNDS pp pp pp
0.0118756825 22.4931243175
-0.0371173565 22.5421173565
0.1616595695 22.3433404305
ITEM: ATOMS type x y z
1 2.18564 2.00135 0.2168191389
ITEM: TIMESTEP
232000
ITEM: NUMBER OF ATOMS
1
ITEM: BOX BOUNDS pp pp pp
0.0118756825 22.4931243175
-0.0371173565 22.5421173565
0.1616595695 22.3433404305
ITEM: ATOMS type x y z
1 2.44961 2.13921 0.249923
ITEM: TIMESTEP
233000
ITEM: NUMBER OF ATOMS
1
ITEM: BOX BOUNDS pp pp pp
0.0118756825 22.4931243175
-0.0371173565 22.5421173565
0.1616595695 22.3433404305
ITEM: ATOMS type x y z
1 2.03054 2.45422 0.181144
ITEM: TIMESTEP
234000
ITEM: NUMBER OF ATOMS
1
ITEM: BOX BOUNDS pp pp pp
0.0118756825 22.4931243175
-0.0371173565 22.5421173565
0.1616595695 22.3433404305
ITEM: ATOMS type x y z
1 2.33834 2.33093 0.432932
ITEM: TIMESTEP
235000
ITEM: NUMBER OF ATOMS
1
ITEM: BOX BOUNDS pp pp pp
0.0118756825 22.4931243175
-0.0371173565 22.5421173565
0.1616595695 22.3433404305
ITEM: ATOMS type x y z
1 1.99837 2.01048 0.412235
ITEM: TIMESTEP
236000
ITEM: NUMBER OF ATOMS
1
ITEM: BOX BOUNDS pp pp pp
0.0118756825 22.4931243175
-0.0371173565 22.5421173565
0.1616595695 22.3433404305
ITEM: ATOMS type x y z
1 2.20481 1.58702 0.259264
ITEM: TIMESTEP
237000
ITEM: NUMBER OF ATOMS
1
ITEM: BOX BOUNDS pp pp pp
0.0118756825 22.4931243175
-0.0371173565 22.5421173565
0.1616595695 22.3433404305
ITEM: ATOMS type x y z
1 2.39821 2.44519 0.0868191389
ITEM: TIMESTEP
238000
ITEM: NUMBER OF ATOMS
1
ITEM: BOX BOUNDS pp pp pp
0.0118756825 22.4931243175
-0.0371173565 22.5421173565
0.1616595695 22.3433404305
ITEM: ATOMS type x y z
1 2.34804 2.21549 0.222402
ITEM: TIMESTEP
239000
ITEM: NUMBER OF ATOMS
1
ITEM: BOX BOUNDS pp pp pp
0.0118756825 22.4931243175
-0.0371173565 22.5421173565
0.1616595695 22.3433404305
ITEM: ATOMS type x y z
1 1.98846 1.99931 0.432792
ITEM: TIMESTEP
240000
ITEM: NUMBER OF ATOMS
1
ITEM: BOX BOUNDS pp pp pp
0.0118756825 22.4931243175
-0.0371173565 22.5421173565
0.1616595695 22.3433404305
ITEM: ATOMS type x y z
1 2.07242 2.33895 0.1546191389
ITEM: TIMESTEP
241000
ITEM: NUMBER OF ATOMS
1
ITEM: BOX BOUNDS pp pp pp
0.0118756825 22.4931243175
-0.0371173565 22.5421173565
0.1616595695 22.3433404305
ITEM: ATOMS type x y z
1 2.76984 2.26186 0.266067
ITEM: TIMESTEP
242000
ITEM: NUMBER OF ATOMS
1
ITEM: BOX BOUNDS pp pp pp
0.0118756825 22.4931243175
-0.0371173565 22.5421173565
0.1616595695 22.3433404305
ITEM: ATOMS type x y z
1 2.36652 2.31964 0.414524
ITEM: TIMESTEP
243000
ITEM: NUMBER OF ATOMS
1
ITEM: BOX BOUNDS pp pp pp
0.0118756825 22.4931243175
-0.0371173565 22.5421173565
0.1616595695 22.3433404305
ITEM: ATOMS type x y z
1 2.83957 2.11491 0.357814
ITEM: TIMESTEP
244000
ITEM: NUMBER OF ATOMS
1
ITEM: BOX BOUNDS pp pp pp
0.0118756825 22.4931243175
-0.0371173565 22.5421173565
0.1616595695 22.3433404305
ITEM: ATOMS type x y z
1 2.26495 2.37743 0.284851
ITEM: TIMESTEP
245000
ITEM: NUMBER OF ATOMS
1
ITEM: BOX BOUNDS pp pp pp
0.0118756825 22.4931243175
-0.0371173565 22.5421173565
0.1616595695 22.3433404305
ITEM: ATOMS type x y z
1 1.89322 2.14876 0.290606
ITEM: TIMESTEP
246000
ITEM: NUMBER OF ATOMS
1
ITEM: BOX BOUNDS pp pp pp
0.0118756825 22.4931243175