********************************************************************************
*                       GENERAL UTILITY LATTICE PROGRAM                        *
*                                 Julian Gale                                  *
*                       Curtin Institute for Computation                       *
*                    School of Molecular and Life Sciences                     *
*                    Curtin University, Western Australia                      *
********************************************************************************
* Version = 5.2.0 * Last modified =  10th September 2020                       *
********************************************************************************
*  optimise     - perform optimisation run                                     *
*  conp         - constant pressure calculation                                *
*  property     - calculate properties for final geometry                      *
*  defect       - perform defect calculation after bulk run                    *
*  compare      - compare initial and final structures                         *
********************************************************************************

  Job Started  at 17:20.07  1st March      2021                               

  Number of CPUs =     1


  Total number of configurations input =      1

********************************************************************************
*  Input for Configuration =   1                                               *
********************************************************************************

  Formula = ClONa3                                                      

  Number of irreducible atoms/shells =       5


  Total number atoms/shells =       7

  Dimensionality = 3               :  Bulk   


  Symmetry :

  Crystal family                   :  Cubic       
  Crystal class  (Groth - 1921)    :  Cubic Hexakisoctahedral              

  Space group (centrosymmetric)    :  P M 3 M         

  Patterson group                  :  P m -3 m 

  Cartesian lattice vectors (Angstroms) :

        4.504000    0.000000    0.000000
        0.000000    4.504000    0.000000
        0.000000    0.000000    4.504000

  Cell parameters (Angstroms/Degrees):

  a =       4.5040    alpha =  90.0000
  b =       4.5040    beta  =  90.0000
  c =       4.5040    gamma =  90.0000

  Initial cell volume =          91.368216 Angs**3

  Temperature of configuration =   0.00     K 

  Pressure of configuration =         0.000 GPa 

  Fractional coordinates of asymmetric unit :

--------------------------------------------------------------------------------
   No.  Atomic       x           y          z         Charge      Occupancy
        Label      (Frac)      (Frac)     (Frac)        (e)         (Frac)  
--------------------------------------------------------------------------------
      1 Cl    c    0.000000    0.000000    0.000000     0.99600    1.000000    
      2 O     c    0.500000    0.500000    0.500000     1.44300    1.000000    
      3 Na    c    0.500000    0.500000    0.000000     1.00000    1.000000    
      4 Cl    s    0.000000    0.000000    0.000000    -1.99600    1.000000    
      5 O     s    0.500000    0.500000    0.500000    -3.44300    1.000000    
--------------------------------------------------------------------------------


  Constraints : 

--------------------------------------------------------------------------------
  Constraint no.      Unconstrained     Constrained    Coefficient    Offset
                         Variable         Variable
--------------------------------------------------------------------------------
           1              Strain 1        Strain 2       1.00000      0.0000
           2              Strain 1        Strain 3       1.00000      0.0000
--------------------------------------------------------------------------------


********************************************************************************
*  General input information                                                   *
********************************************************************************

  Species output for all configurations : 

--------------------------------------------------------------------------------
  Species    Type    Atomic    Atomic    Charge       Radii (Angs)     Library
                     Number     Mass       (e)     Cova   Ionic  VDW   Symbol
--------------------------------------------------------------------------------
    Na       Core       11      22.99   1.000000   0.970  0.000  2.300          
    O        Core        8      16.00   1.443000   0.730  0.000  1.360          
    O        Shell       8       0.00  -3.443000   0.730  0.000  1.360          
    Cl       Core       17      35.45   0.996000   0.990  0.000  1.650          
    Cl       Shell      17       0.00  -1.996000   0.990  0.000  1.650          
--------------------------------------------------------------------------------


  Lattice summation method               =    Ewald          (3-D)
                                         =    Parry          (2-D)
                                         =    Saunders et al (1-D)
  Accuracy factor for lattice sums       =   12.000


  Analytic derivatives to be used

  Time limit = Infinity

  Maximum range for interatomic potentials =    100000.000000 Angstroms

  General interatomic potentials :

--------------------------------------------------------------------------------
Atom  Types   Potential      Parameter       Value         Units   Cutoffs(Ang)
  1     2                                                            Min /  Max 
--------------------------------------------------------------------------------
O    c O    s Spring (c-s)  Spring k 2       20.486200    eV*Ang^-2 0.000  0.800
                            Spring k 4       0.0000000    eV*Ang^-4 
--------------------------------------------------------------------------------
Cl   c Cl   s Spring (c-s)  Spring k 2       10.001500    eV*Ang^-2 0.000  0.800
                            Spring k 4       0.0000000    eV*Ang^-4 
--------------------------------------------------------------------------------
Na   c Na   c Buckingham    Buckingham A     29281.710    eV        0.000 12.000
                            Buckingham rho  0.37200000E-01Ang       
                            Buckingham C     0.0000000    eV*Ang^6  
--------------------------------------------------------------------------------
Na   c O    s Buckingham    Buckingham A     602.40000    eV        0.000 12.000
                            Buckingham rho  0.34280000    Ang       
                            Buckingham C     0.0000000    eV*Ang^6  
--------------------------------------------------------------------------------
Na   c Cl   s Buckingham    Buckingham A     3515.6900    eV        0.000 12.000
                            Buckingham rho  0.27460000    Ang       
                            Buckingham C     0.0000000    eV*Ang^6  
--------------------------------------------------------------------------------
O    s O    s Buckingham    Buckingham A     25201.690    eV        0.000 12.000
                            Buckingham rho  0.16450000    Ang       
                            Buckingham C     13.190000    eV*Ang^6  
--------------------------------------------------------------------------------
O    s Cl   s Buckingham    Buckingham A     1105.8600    eV        0.000 12.000
                            Buckingham rho  0.31330000    Ang       
                            Buckingham C     62.200000    eV*Ang^6  
--------------------------------------------------------------------------------
Cl   s Cl   s Buckingham    Buckingham A     31408.750    eV        0.000 12.000
                            Buckingham rho  0.13660000    Ang       
                            Buckingham C     14.530000    eV*Ang^6  
--------------------------------------------------------------------------------

********************************************************************************
*  Output for configuration   1                                                *
********************************************************************************


  Components of energy : 

--------------------------------------------------------------------------------
  Interatomic potentials     =           5.33200327 eV    
  Monopole - monopole (real) =         -10.03624526 eV    
  Monopole - monopole (recip)=         -29.53581274 eV    
  Monopole - monopole (total)=         -39.57205800 eV    
--------------------------------------------------------------------------------
  Total lattice energy       =         -34.24005473 eV    
--------------------------------------------------------------------------------
  Total lattice energy       =           -3303.6419 kJ/(mole unit cells)
--------------------------------------------------------------------------------


  Number of variables =        1

  Maximum number of calculations  =          1000
  Maximum Hessian update interval =            10
  Maximum step size               =   1.000000000
  Maximum parameter tolerance     =   0.000010000
  Maximum function  tolerance     =   0.000010000
  Maximum gradient  tolerance     =   0.001000000
  Maximum gradient  component     =   0.010000000

  Symmetry constrained optimisation

  Symmetry used for second derivatives

  Cell parameters to be optimised using strains

  Newton-Raphson optimiser to be used

  BFGS hessian update to be used

  Lower half triangular hessian to be used

  Start of bulk optimisation :

  Cycle:      0 Energy:       -34.240055  Gnorm:      2.245244  CPU:    0.008
  ** Hessian calculated **
  Cycle:      1 Energy:       -34.252747  Gnorm:      0.013309  CPU:    0.010


  **** Optimisation achieved ****


  Final energy =     -34.25274716 eV
  Final Gnorm  =       0.00056121

  Components of energy : 

--------------------------------------------------------------------------------
  Interatomic potentials     =           5.76377683 eV    
  Monopole - monopole (real) =         -10.14897050 eV    
  Monopole - monopole (recip)=         -29.86755349 eV    
  Monopole - monopole (total)=         -40.01652399 eV    
--------------------------------------------------------------------------------
  Total lattice energy       =         -34.25274716 eV    
--------------------------------------------------------------------------------
  Total lattice energy       =           -3304.8665 kJ/(mole unit cells)
--------------------------------------------------------------------------------

  Final asymmetric unit coordinates :

--------------------------------------------------------------------------------
   No.  Atomic        x           y           z         Radius
        Label       (Frac)      (Frac)      (Frac)       (Angs) 
--------------------------------------------------------------------------------
     1  Cl    c     0.000000    0.000000    0.000000    0.000000
     2  O     c     0.500000    0.500000    0.500000    0.000000
     3  Na    c     0.500000    0.500000    0.000000    0.000000
     4  Cl    s     0.000000    0.000000    0.000000    0.000000
     5  O     s     0.500000    0.500000    0.500000    0.000000
--------------------------------------------------------------------------------

  Final Cartesian lattice vectors (Angstroms) :

        4.453974    0.000000    0.000000
        0.000000    4.453974    0.000000
        0.000000    0.000000    4.453974


  Final cell parameters and derivatives :

--------------------------------------------------------------------------------
       a            4.453974 Angstrom     dE/de1(xx)     0.000561 eV/strain
       b            4.453974 Angstrom     dE/de2(yy)     0.000000 eV/strain
       c            4.453974 Angstrom     dE/de3(zz)     0.000000 eV/strain
       alpha       90.000000 Degrees      dE/de4(yz)     0.000000 eV/strain
       beta        90.000000 Degrees      dE/de5(xz)     0.000000 eV/strain
       gamma       90.000000 Degrees      dE/de6(xy)     0.000000 eV/strain
--------------------------------------------------------------------------------

  Primitive cell volume =            88.357409 Angs**3

  Density of cell =      2.263141 g/cm**3

  Non-primitive cell volume =            88.357409 Angs**3


  Final internal derivatives :

--------------------------------------------------------------------------------
   No.  Atomic          a             b             c           Radius
        Label          (eV)          (eV)          (eV)        (eV/Angs)
--------------------------------------------------------------------------------
      1 Cl    c       0.000000      0.000000      0.000000      0.000000
      2 O     c       0.000000      0.000000      0.000000      0.000000
      3 Na    c       0.000000      0.000000      0.000000      0.000000
      4 Cl    s       0.000000      0.000000      0.000000      0.000000
      5 O     s       0.000000      0.000000      0.000000      0.000000
--------------------------------------------------------------------------------
  Maximum abs         0.000000      0.000000      0.000000      0.000000
--------------------------------------------------------------------------------

  Comparison of initial and final structures : 

--------------------------------------------------------------------------------
  Parameter   Initial value   Final value   Difference    Units      Percent
--------------------------------------------------------------------------------
    Volume        91.368216     88.357409    -3.010807    Angs**3     -3.30
    a              4.504000      4.453974    -0.050026    Angstroms   -1.11
    b              4.504000      4.453974    -0.050026    Angstroms   -1.11
    c              4.504000      4.453974    -0.050026    Angstroms   -1.11
    alpha         90.000000     90.000000     0.000000    Degrees      0.00
    beta          90.000000     90.000000     0.000000    Degrees      0.00
    gamma         90.000000     90.000000     0.000000    Degrees      0.00
      1 x          0.000000      0.000000     0.000000    Fractional   0.00
      1 y          0.000000      0.000000     0.000000    Fractional   0.00
      1 z          0.000000      0.000000     0.000000    Fractional   0.00
      2 x          0.500000      0.500000     0.000000    Fractional   0.00
      2 y          0.500000      0.500000     0.000000    Fractional   0.00
      2 z          0.500000      0.500000     0.000000    Fractional   0.00
      3 x          0.500000      0.500000     0.000000    Fractional   0.00
      3 y          0.500000      0.500000     0.000000    Fractional   0.00
      3 z          0.000000      0.000000     0.000000    Fractional   0.00
      4 x          0.000000      0.000000     0.000000    Fractional   0.00
      4 y          0.000000      0.000000     0.000000    Fractional   0.00
      4 z          0.000000      0.000000     0.000000    Fractional   0.00
      5 x          0.500000      0.500000     0.000000    Fractional   0.00
      5 y          0.500000      0.500000     0.000000    Fractional   0.00
      5 z          0.500000      0.500000     0.000000    Fractional   0.00
--------------------------------------------------------------------------------


  Born effective charge tensors : 

-------------------------------------------------------------------------------
  Atom             x           y             z
-------------------------------------------------------------------------------
    1 Cl    x      -1.4271      0.0000      0.0000
            y       0.0000     -1.4271      0.0000
            z       0.0000      0.0000     -1.4271
-------------------------------------------------------------------------------
    2 O     x      -1.6137     -0.0000     -0.0000
            y      -0.0000     -1.6137     -0.0000
            z      -0.0000     -0.0000     -1.6137
-------------------------------------------------------------------------------
    3 Na    x       0.8295     -0.0000     -0.0000
            y      -0.0000      0.8295      0.0000
            z      -0.0000      0.0000      1.3817
-------------------------------------------------------------------------------




  Elastic Constant Matrix: (Units=GPa)

-------------------------------------------------------------------------------
  Indices      1         2         3         4         5         6    
-------------------------------------------------------------------------------
       1     82.8226   21.5342   21.5342    0.0000   -0.0000   -0.0000
       2     21.5342   82.8226   21.5342   -0.0000    0.0000   -0.0000
       3     21.5342   21.5342   82.8226    0.0000    0.0000   -0.0000
       4      0.0000   -0.0000    0.0000   21.5346   -0.0000    0.0000
       5     -0.0000    0.0000    0.0000   -0.0000   21.5346    0.0000
       6     -0.0000   -0.0000   -0.0000    0.0000    0.0000   21.5346
-------------------------------------------------------------------------------


  Elastic Compliance Matrix: (Units=1/GPa)

-------------------------------------------------------------------------------
  Indices      1         2         3         4         5         6    
-------------------------------------------------------------------------------
       1    0.013525 -0.002791 -0.002791 -0.000000  0.000000  0.000000
       2   -0.002791  0.013525 -0.002791  0.000000 -0.000000  0.000000
       3   -0.002791 -0.002791  0.013525 -0.000000 -0.000000  0.000000
       4   -0.000000  0.000000 -0.000000  0.046437  0.000000 -0.000000
       5    0.000000 -0.000000 -0.000000  0.000000  0.046437 -0.000000
       6    0.000000  0.000000  0.000000 -0.000000 -0.000000  0.046437
-------------------------------------------------------------------------------

  Mechanical properties :

-------------------------------------------------------------------------------
  Convention :                    Reuss         Voigt         Hill
-------------------------------------------------------------------------------
  Bulk  Modulus (GPa)     =      41.96371      41.96371      41.96371
  Shear Modulus (GPa)     =      24.44079      25.17843      24.80961
-------------------------------------------------------------------------------
  Velocity S-wave (km/s)  =       3.28626       3.33548       3.31096
  Velocity P-wave (km/s)  =       5.73948       5.77721       5.75837
-------------------------------------------------------------------------------
  Compressibility (1/GPa) =    0.02383011
-------------------------------------------------------------------------------
  Stress axis :                     x             y             z
-------------------------------------------------------------------------------
  Youngs Moduli (GPa)     =      73.93539      73.93539      73.93539
-------------------------------------------------------------------------------
  Poissons Ratio (x)      =                     0.20635       0.20635
  Poissons Ratio (y)      =       0.20635                     0.20635
  Poissons Ratio (z)      =       0.20635       0.20635
-------------------------------------------------------------------------------


  Piezoelectric Strain Matrix: (Units=C/m**2)

-------------------------------------------------------------------------------
  Indices      1         2         3         4         5         6    
-------------------------------------------------------------------------------
       x     0.00000  -0.00000   0.00000   0.00000  -0.00000  -0.00000
       y    -0.00000  -0.00000  -0.00000  -0.00000   0.00000   0.00000
       z    -0.00000  -0.00000   0.00000   0.00000   0.00000   0.00000
-------------------------------------------------------------------------------


  Piezoelectric Stress Matrix: (Units=10**-11 C/N)

-------------------------------------------------------------------------------
  Indices      1         2         3         4         5         6    
-------------------------------------------------------------------------------
       x     0.00000  -0.00000  -0.00000   0.00000  -0.00000  -0.00000
       y    -0.00000   0.00000   0.00000  -0.00000   0.00000   0.00000
       z    -0.00000  -0.00000   0.00000   0.00000   0.00000   0.00000
-------------------------------------------------------------------------------


  Static dielectric constant tensor : 

-------------------------------------------------------------------------------
              x         y         z
-------------------------------------------------------------------------------
       x    28.60451  -0.00000  -0.00000
       y    -0.00000  28.60451  -0.00000
       z    -0.00000  -0.00000  28.60451
--------------------------------------------------------------------------------

  High frequency dielectric constant tensor : 

-------------------------------------------------------------------------------
              x         y         z
-------------------------------------------------------------------------------
       x     3.92296  -0.00000  -0.00000
       y    -0.00000   3.92296   0.00000
       z    -0.00000   0.00000   3.92296
-------------------------------------------------------------------------------

  Static refractive indices : 

-------------------------------------------------------------------------------
    1 =    5.34832      2 =    5.34832      3 =    5.34832
-------------------------------------------------------------------------------

  High frequency refractive indices : 

-------------------------------------------------------------------------------
    1 =    1.98065      2 =    1.98065      3 =    1.98065
-------------------------------------------------------------------------------


  Time to end of optimisation =       0.0147 seconds

********************************************************************************
*  Defect calculation for configuration   1 :                                  *
********************************************************************************

  Total number of defects =      3

  Total charge on defect  =  -1.00

  Defect centre is at   0.5000   0.2500   0.2500  Frac

  Region 1 radius =  12.0000      Number of ions =    575

  Number of symmetry inequivalent region 1 ions  =    331

  Region 2 radius =  16.0000      Number of ions =    818

  Number of symmetry inequivalent region 2a ions =    447

  Region 2a mode = 4 : screened electrostatics due to region 1 
                       neglect correction to region 1 forces from 2a
                       region 2a displacements based on defects only

  Region 2a ions will only interact with defects in region 1

  Vacancies:

--------------------------------------------------------------------------------
    Specification type     Symbol/Number         x          y          z
--------------------------------------------------------------------------------
    Fractional                               0.500000   0.500000   0.000000
    Fractional                               0.500000   0.000000   0.500000
--------------------------------------------------------------------------------

  Interstitials:

--------------------------------------------------------------------------------
    Specification type     Symbol/Number         x          y          z
--------------------------------------------------------------------------------
    Atom/Fractional         Na               0.500000   0.140000   0.360000
--------------------------------------------------------------------------------


  Symmetry reduced region 1 (Relative to defect centre) :

--------------------------------------------------------------------------------
   No.   Atomic       x            y             z       Radius  Multiplicity   
         Label      (Angs)       (Angs)        (Angs)    (Angs)     
--------------------------------------------------------------------------------
     1  Na    c      0.0000      -0.4899       0.4899    0.0000     1    Defect
     2  O     c      0.0000       1.1135 *     1.1135 *  0.0000     1          
     3  Cl    c      2.2270 *    -1.1135 *    -1.1135 *  0.0000     2          
     4  Na    c      2.2270 *     1.1135 *     1.1135 *  0.0000     2          
     5  O     c      0.0000       1.1135 *    -3.3405 *  0.0000     1          
     6  O     c      0.0000      -3.3405 *     1.1135 *  0.0000     1          
     7  Na    c      0.0000       1.1135 *     3.3405 *  0.0000     1          
     8  Na    c      0.0000      -3.3405 *    -1.1135 *  0.0000     1          
     9  Na    c      0.0000      -1.1135 *    -3.3405 *  0.0000     1          
    10  Na    c      0.0000       3.3405 *     1.1135 *  0.0000     1          
    11  Cl    c      2.2270 *    -1.1135 *     3.3405 *  0.0000     2          
    12  Cl    c      2.2270 *     3.3405 *    -1.1135 *  0.0000     2          
    13  Na    c      2.2270 *     1.1135 *    -3.3405 *  0.0000     2          
    14  Na    c      2.2270 *    -3.3405 *     1.1135 *  0.0000     2          
    15  O     c     -4.4540 *     1.1135 *     1.1135 *  0.0000     2          
    16  Na    c     -4.4540 *    -1.1135 *     1.1135 *  0.0000     2          
    17  O     c      0.0000      -3.3405 *    -3.3405 *  0.0000     1          
    18  Na    c      0.0000      -3.3405 *     3.3405 *  0.0000     1          
    19  Na    c     -4.4540 *     1.1135 *    -1.1135 *  0.0000     2          
    20  Na    c      0.0000       3.3405 *    -3.3405 *  0.0000     1          
    21  Cl    c      2.2270 *     3.3405 *     3.3405 *  0.0000     2          
    22  Na    c      2.2270 *    -3.3405 *    -3.3405 *  0.0000     2          
    23  O     c      0.0000       1.1135 *     5.5675 *  0.0000     1          
    24  O     c      0.0000       5.5675 *     1.1135 *  0.0000     1          
    25  O     c     -4.4540 *     1.1135 *    -3.3405 *  0.0000     2          
    26  O     c     -4.4540 *    -3.3405 *     1.1135 *  0.0000     2          
    27  Na    c      0.0000       1.1135 *    -5.5675 *  0.0000     1          
    28  Na    c      0.0000       5.5675 *    -1.1135 *  0.0000     1          
    29  Na    c     -4.4540 *     1.1135 *     3.3405 *  0.0000     2          
    30  Na    c     -4.4540 *    -3.3405 *    -1.1135 *  0.0000     2          
    31  Na    c      0.0000      -1.1135 *     5.5675 *  0.0000     1          
    32  Na    c      0.0000      -5.5675 *     1.1135 *  0.0000     1          
    33  Na    c     -4.4540 *    -1.1135 *    -3.3405 *  0.0000     2          
    34  Na    c     -4.4540 *     3.3405 *     1.1135 *  0.0000     2          
    35  Cl    c      2.2270 *    -1.1135 *    -5.5675 *  0.0000     2          
    36  Cl    c      2.2270 *    -5.5675 *    -1.1135 *  0.0000     2          
    37  Na    c      2.2270 *     1.1135 *     5.5675 *  0.0000     2          
    38  Na    c      2.2270 *     5.5675 *     1.1135 *  0.0000     2          
    39  O     c      0.0000       5.5675 *    -3.3405 *  0.0000     1          
    40  O     c      0.0000      -3.3405 *     5.5675 *  0.0000     1          
    41  O     c     -4.4540 *    -3.3405 *    -3.3405 *  0.0000     2          
    42  Na    c      0.0000       5.5675 *     3.3405 *  0.0000     1          
    43  Na    c      0.0000      -3.3405 *    -5.5675 *  0.0000     1          
    44  Na    c     -4.4540 *    -3.3405 *     3.3405 *  0.0000     2          
    45  Na    c      0.0000       3.3405 *     5.5675 *  0.0000     1          
    46  Na    c      0.0000      -5.5675 *    -3.3405 *  0.0000     1          
    47  Na    c     -4.4540 *     3.3405 *    -3.3405 *  0.0000     2          
    48  Cl    c      2.2270 *     3.3405 *    -5.5675 *  0.0000     2          
    49  Cl    c      2.2270 *    -5.5675 *     3.3405 *  0.0000     2          
    50  Na    c      2.2270 *     5.5675 *    -3.3405 *  0.0000     2          
    51  Na    c      2.2270 *    -3.3405 *     5.5675 *  0.0000     2          
    52  Cl    c      6.6810 *    -1.1135 *    -1.1135 *  0.0000     2          
    53  Na    c      6.6810 *     1.1135 *     1.1135 *  0.0000     2          
    54  O     c     -4.4540 *     5.5675 *     1.1135 *  0.0000     2          
    55  Na    c     -4.4540 *     5.5675 *    -1.1135 *  0.0000     2          
    56  Na    c     -4.4540 *    -5.5675 *     1.1135 *  0.0000     2          
    57  O     c      4.4540 *     1.1135 *     5.5675 *  0.0000     2          
    58  Na    c      4.4540 *     1.1135 *    -5.5675 *  0.0000     2          
    59  Na    c      4.4540 *    -1.1135 *     5.5675 *  0.0000     2          
    60  Cl    c      6.6810 *    -1.1135 *     3.3405 *  0.0000     2          
    61  Cl    c      6.6810 *     3.3405 *    -1.1135 *  0.0000     2          
    62  Na    c      6.6810 *     1.1135 *    -3.3405 *  0.0000     2          
    63  Na    c      6.6810 *    -3.3405 *     1.1135 *  0.0000     2          
    64  O     c      0.0000       5.5675 *     5.5675 *  0.0000     1          
    65  O     c     -4.4540 *     5.5675 *    -3.3405 *  0.0000     2          
    66  O     c     -4.4540 *    -3.3405 *     5.5675 *  0.0000     2          
    67  Na    c      0.0000       5.5675 *    -5.5675 *  0.0000     1          
    68  Na    c     -4.4540 *     5.5675 *     3.3405 *  0.0000     2          
    69  Na    c     -4.4540 *    -3.3405 *    -5.5675 *  0.0000     2          
    70  Na    c      0.0000      -5.5675 *     5.5675 *  0.0000     1          
    71  Na    c     -4.4540 *     3.3405 *     5.5675 *  0.0000     2          
    72  Na    c     -4.4540 *    -5.5675 *    -3.3405 *  0.0000     2          
    73  O     c      0.0000       1.1135 *    -7.7945 *  0.0000     1          
    74  O     c      0.0000      -7.7945 *     1.1135 *  0.0000     1          
    75  Na    c      0.0000       1.1135 *     7.7945 *  0.0000     1          
    76  Na    c      0.0000      -7.7945 *    -1.1135 *  0.0000     1          
    77  Na    c      0.0000      -1.1135 *    -7.7945 *  0.0000     1          
    78  Na    c      0.0000       7.7945 *     1.1135 *  0.0000     1          
    79  Cl    c      2.2270 *    -5.5675 *    -5.5675 *  0.0000     2          
    80  Na    c      2.2270 *     5.5675 *     5.5675 *  0.0000     2          
    81  Cl    c      2.2270 *    -1.1135 *     7.7945 *  0.0000     2          
    82  Cl    c      2.2270 *     7.7945 *    -1.1135 *  0.0000     2          
    83  Cl    c      6.6810 *     3.3405 *     3.3405 *  0.0000     2          
    84  Na    c      2.2270 *     1.1135 *    -7.7945 *  0.0000     2          
    85  Na    c      2.2270 *    -7.7945 *     1.1135 *  0.0000     2          
    86  Na    c      6.6810 *    -3.3405 *    -3.3405 *  0.0000     2          
    87  O     c      0.0000      -3.3405 *    -7.7945 *  0.0000     1          
    88  O     c      0.0000      -7.7945 *    -3.3405 *  0.0000     1          
    89  Na    c      0.0000      -3.3405 *     7.7945 *  0.0000     1          
    90  Na    c      0.0000      -7.7945 *     3.3405 *  0.0000     1          
    91  Na    c      0.0000       3.3405 *    -7.7945 *  0.0000     1          
    92  Na    c      0.0000       7.7945 *    -3.3405 *  0.0000     1          
    93  Cl    c      2.2270 *     3.3405 *     7.7945 *  0.0000     2          
    94  Cl    c      6.6810 *    -1.1135 *    -5.5675 *  0.0000     2          
    95  Cl    c      6.6810 *    -5.5675 *    -1.1135 *  0.0000     2          
    96  Na    c      2.2270 *    -3.3405 *    -7.7945 *  0.0000     2          
    97  Na    c      6.6810 *     1.1135 *     5.5675 *  0.0000     2          
    98  Na    c      6.6810 *     5.5675 *     1.1135 *  0.0000     2          
    99  Cl    c      2.2270 *     7.7945 *     3.3405 *  0.0000     2          
   100  Na    c      2.2270 *    -7.7945 *    -3.3405 *  0.0000     2          
   101  O     c      8.9079 *     1.1135 *     1.1135 *  0.0000     2          
   102  Na    c      8.9079 *     1.1135 *    -1.1135 *  0.0000     2          
   103  Na    c      8.9079 *    -1.1135 *     1.1135 *  0.0000     2          
   104  O     c      4.4540 *     5.5675 *     5.5675 *  0.0000     2          
   105  O     c      4.4540 *    -7.7945 *     1.1135 *  0.0000     2          
   106  O     c     -4.4540 *     1.1135 *    -7.7945 *  0.0000     2          
   107  Na    c      4.4540 *     5.5675 *    -5.5675 *  0.0000     2          
   108  Na    c      4.4540 *    -7.7945 *    -1.1135 *  0.0000     2          
   109  Na    c     -4.4540 *     1.1135 *     7.7945 *  0.0000     2          
   110  Na    c      4.4540 *     7.7945 *     1.1135 *  0.0000     2          
   111  Na    c      4.4540 *    -5.5675 *     5.5675 *  0.0000     2          
   112  Na    c     -4.4540 *    -1.1135 *    -7.7945 *  0.0000     2          
   113  Cl    c      6.6810 *     3.3405 *    -5.5675 *  0.0000     2          
   114  Cl    c      6.6810 *    -5.5675 *     3.3405 *  0.0000     2          
   115  Na    c      6.6810 *     5.5675 *    -3.3405 *  0.0000     2          
   116  Na    c      6.6810 *    -3.3405 *     5.5675 *  0.0000     2          
   117  O     c      8.9079 *     1.1135 *    -3.3405 *  0.0000     2          
   118  O     c      8.9079 *    -3.3405 *     1.1135 *  0.0000     2          
   119  Na    c      8.9079 *     1.1135 *     3.3405 *  0.0000     2          
   120  Na    c      8.9079 *    -3.3405 *    -1.1135 *  0.0000     2          
   121  Na    c      8.9079 *    -1.1135 *    -3.3405 *  0.0000     2          
   122  Na    c      8.9079 *     3.3405 *     1.1135 *  0.0000     2          
   123  O     c      0.0000       5.5675 *    -7.7945 *  0.0000     1          
   124  O     c      0.0000      -7.7945 *     5.5675 *  0.0000     1          
   125  O     c      4.4540 *    -3.3405 *    -7.7945 *  0.0000     2          
   126  O     c      4.4540 *    -7.7945 *    -3.3405 *  0.0000     2          
   127  Na    c      0.0000       5.5675 *     7.7945 *  0.0000     1          
   128  Na    c      0.0000      -7.7945 *    -5.5675 *  0.0000     1          
   129  Na    c      4.4540 *    -3.3405 *     7.7945 *  0.0000     2          
   130  Na    c      4.4540 *    -7.7945 *     3.3405 *  0.0000     2          
   131  Na    c      0.0000       7.7945 *     5.5675 *  0.0000     1          
   132  Na    c      0.0000      -5.5675 *    -7.7945 *  0.0000     1          
   133  Na    c      4.4540 *     3.3405 *    -7.7945 *  0.0000     2          
   134  Na    c      4.4540 *     7.7945 *    -3.3405 *  0.0000     2          
   135  Cl    c      2.2270 *    -5.5675 *     7.7945 *  0.0000     2          
   136  Na    c      2.2270 *     5.5675 *    -7.7945 *  0.0000     2          
   137  Cl    c      2.2270 *     7.7945 *    -5.5675 *  0.0000     2          
   138  Na    c      2.2270 *    -7.7945 *     5.5675 *  0.0000     2          
   139  O     c      0.0000       1.1135 *    10.0214 *  0.0000     1          
   140  O     c      0.0000      10.0214 *     1.1135 *  0.0000     1          
   141  Na    c      0.0000       1.1135 *   -10.0214 *  0.0000     1          
   142  Na    c      0.0000      10.0214 *    -1.1135 *  0.0000     1          
   143  Na    c      0.0000      -1.1135 *    10.0214 *  0.0000     1          
   144  Na    c      0.0000     -10.0214 *     1.1135 *  0.0000     1          
   145  O     c      8.9079 *    -3.3405 *    -3.3405 *  0.0000     2          
   146  Na    c      8.9079 *    -3.3405 *     3.3405 *  0.0000     2          
   147  Na    c      8.9079 *     3.3405 *    -3.3405 *  0.0000     2          
   148  Cl    c      2.2270 *    -1.1135 *   -10.0214 *  0.0000     2          
   149  Cl    c      2.2270 *   -10.0214 *    -1.1135 *  0.0000     2          
   150  Na    c      2.2270 *     1.1135 *    10.0214 *  0.0000     2          
   151  Na    c      2.2270 *    10.0214 *     1.1135 *  0.0000     2          
   152  Cl    c      6.6810 *    -5.5675 *    -5.5675 *  0.0000     2          
   153  Na    c      6.6810 *     5.5675 *     5.5675 *  0.0000     2          
   154  Cl    c      6.6810 *    -1.1135 *     7.7945 *  0.0000     2          
   155  Cl    c      6.6810 *     7.7945 *    -1.1135 *  0.0000     2          
   156  Na    c      6.6810 *     1.1135 *    -7.7945 *  0.0000     2          
   157  Na    c      6.6810 *    -7.7945 *     1.1135 *  0.0000     2          
   158  O     c      0.0000      10.0214 *    -3.3405 *  0.0000     1          
   159  O     c      0.0000      -3.3405 *    10.0214 *  0.0000     1          
   160  O     c      8.9079 *     5.5675 *     1.1135 *  0.0000     2          
   161  Na    c      0.0000      10.0214 *     3.3405 *  0.0000     1          
   162  Na    c      0.0000      -3.3405 *   -10.0214 *  0.0000     1          
   163  Na    c      8.9079 *     5.5675 *    -1.1135 *  0.0000     2          
   164  Na    c      0.0000       3.3405 *    10.0214 *  0.0000     1          
   165  Na    c      0.0000     -10.0214 *    -3.3405 *  0.0000     1          
   166  Na    c      8.9079 *    -5.5675 *     1.1135 *  0.0000     2          
   167  O     c      4.4540 *    -7.7945 *     5.5675 *  0.0000     2          
   168  O     c      8.9079 *     1.1135 *     5.5675 *  0.0000     2          
   169  O     c     -4.4540 *     5.5675 *    -7.7945 *  0.0000     2          
   170  Na    c      4.4540 *    -7.7945 *    -5.5675 *  0.0000     2          
   171  Na    c      8.9079 *     1.1135 *    -5.5675 *  0.0000     2          
   172  Na    c     -4.4540 *     5.5675 *     7.7945 *  0.0000     2          
   173  Na    c      4.4540 *     7.7945 *     5.5675 *  0.0000     2          
   174  Na    c      8.9079 *    -1.1135 *     5.5675 *  0.0000     2          
   175  Na    c     -4.4540 *    -5.5675 *    -7.7945 *  0.0000     2          
   176  Cl    c      2.2270 *     3.3405 *   -10.0214 *  0.0000     2          
   177  Na    c      2.2270 *    -3.3405 *    10.0214 *  0.0000     2          
   178  Cl    c      2.2270 *   -10.0214 *     3.3405 *  0.0000     2          
   179  Na    c      2.2270 *    10.0214 *    -3.3405 *  0.0000     2          
   180  Cl    c      6.6810 *     3.3405 *     7.7945 *  0.0000     2          
   181  Na    c      6.6810 *    -3.3405 *    -7.7945 *  0.0000     2          
   182  Cl    c      6.6810 *     7.7945 *     3.3405 *  0.0000     2          
   183  Na    c      6.6810 *    -7.7945 *    -3.3405 *  0.0000     2          
   184  O     c      4.4540 *    10.0214 *     1.1135 *  0.0000     2          
   185  O     c     -4.4540 *     1.1135 *    10.0214 *  0.0000     2          
   186  Na    c      4.4540 *    10.0214 *    -1.1135 *  0.0000     2          
   187  Na    c     -4.4540 *     1.1135 *   -10.0214 *  0.0000     2          
   188  Na    c      4.4540 *   -10.0214 *     1.1135 *  0.0000     2          
   189  Na    c     -4.4540 *    -1.1135 *    10.0214 *  0.0000     2          
   190  O     c      8.9079 *     5.5675 *    -3.3405 *  0.0000     2          
   191  Na    c      8.9079 *     5.5675 *     3.3405 *  0.0000     2          
   192  Na    c      8.9079 *    -5.5675 *    -3.3405 *  0.0000     2          
   193  O     c      0.0000      -7.7945 *    -7.7945 *  0.0000     1          
   194  O     c      8.9079 *    -3.3405 *     5.5675 *  0.0000     2          
   195  Na    c      0.0000      -7.7945 *     7.7945 *  0.0000     1          
   196  Na    c      8.9079 *    -3.3405 *    -5.5675 *  0.0000     2          
   197  Na    c      0.0000       7.7945 *    -7.7945 *  0.0000     1          
   198  Na    c      8.9079 *     3.3405 *     5.5675 *  0.0000     2          
   199  Cl    c     11.1349 *    -1.1135 *    -1.1135 *  0.0000     2          
   200  Na    c     11.1349 *     1.1135 *     1.1135 *  0.0000     2          
   201  Cl    c      2.2270 *     7.7945 *     7.7945 *  0.0000     2          
   202  Na    c      2.2270 *    -7.7945 *    -7.7945 *  0.0000     2          
   203  O     c      0.0000       5.5675 *    10.0214 *  0.0000     1          
   204  O     c      0.0000      10.0214 *     5.5675 *  0.0000     1          
   205  O     c      4.4540 *    10.0214 *    -3.3405 *  0.0000     2          
   206  O     c      4.4540 *    -3.3405 *    10.0214 *  0.0000     2          
   207  Na    c      0.0000       5.5675 *   -10.0214 *  0.0000     1          
   208  Na    c      0.0000      10.0214 *    -5.5675 *  0.0000     1          
   209  Na    c      4.4540 *    10.0214 *     3.3405 *  0.0000     2          
   210  Na    c      4.4540 *    -3.3405 *   -10.0214 *  0.0000     2          
   211  Na    c      0.0000      -5.5675 *    10.0214 *  0.0000     1          
   212  Na    c      0.0000     -10.0214 *     5.5675 *  0.0000     1          
   213  Na    c      4.4540 *     3.3405 *    10.0214 *  0.0000     2          
   214  Na    c      4.4540 *   -10.0214 *    -3.3405 *  0.0000     2          
   215  Cl    c      2.2270 *    -5.5675 *   -10.0214 *  0.0000     2          
   216  Cl    c      2.2270 *   -10.0214 *    -5.5675 *  0.0000     2          
   217  Cl    c      6.6810 *    -5.5675 *     7.7945 *  0.0000     2          
   218  Cl    c     11.1349 *    -1.1135 *     3.3405 *  0.0000     2          
   219  Cl    c     11.1349 *     3.3405 *    -1.1135 *  0.0000     2          
   220  Na    c      2.2270 *     5.5675 *    10.0214 *  0.0000     2          
   221  Na    c      2.2270 *    10.0214 *     5.5675 *  0.0000     2          
   222  Na    c      6.6810 *     5.5675 *    -7.7945 *  0.0000     2          
   223  Na    c     11.1349 *     1.1135 *    -3.3405 *  0.0000     2          
   224  Na    c     11.1349 *    -3.3405 *     1.1135 *  0.0000     2          
   225  Cl    c      6.6810 *     7.7945 *    -5.5675 *  0.0000     2          
   226  Na    c      6.6810 *    -7.7945 *     5.5675 *  0.0000     2          
   227  O     c      8.9079 *     1.1135 *    -7.7945 *  0.0000     2          
   228  O     c      8.9079 *     5.5675 *     5.5675 *  0.0000     2          
   229  O     c      8.9079 *    -7.7945 *     1.1135 *  0.0000     2          
   230  Na    c      8.9079 *     1.1135 *     7.7945 *  0.0000     2          
   231  Na    c      8.9079 *     5.5675 *    -5.5675 *  0.0000     2          
   232  Na    c      8.9079 *    -7.7945 *    -1.1135 *  0.0000     2          
   233  Na    c      8.9079 *    -1.1135 *    -7.7945 *  0.0000     2          
   234  Na    c      8.9079 *     7.7945 *     1.1135 *  0.0000     2          
   235  Na    c      8.9079 *    -5.5675 *     5.5675 *  0.0000     2          
   236  O     c      4.4540 *    -7.7945 *    -7.7945 *  0.0000     2          
   237  Na    c      4.4540 *    -7.7945 *     7.7945 *  0.0000     2          
   238  Na    c      4.4540 *     7.7945 *    -7.7945 *  0.0000     2          
   239  O     s      0.0000       1.1135 *     1.1135 *  0.0000     1          
   240  Cl    s      2.2270 *    -1.1135 *    -1.1135 *  0.0000     2          
   241  O     s      0.0000       1.1135 *    -3.3405 *  0.0000     1          
   242  O     s      0.0000      -3.3405 *     1.1135 *  0.0000     1          
   243  Cl    s      2.2270 *    -1.1135 *     3.3405 *  0.0000     2          
   244  Cl    s      2.2270 *     3.3405 *    -1.1135 *  0.0000     2          
   245  O     s     -4.4540 *     1.1135 *     1.1135 *  0.0000     2          
   246  O     s      0.0000      -3.3405 *    -3.3405 *  0.0000     1          
   247  Cl    s      2.2270 *     3.3405 *     3.3405 *  0.0000     2          
   248  O     s      0.0000       1.1135 *     5.5675 *  0.0000     1          
   249  O     s      0.0000       5.5675 *     1.1135 *  0.0000     1          
   250  O     s     -4.4540 *     1.1135 *    -3.3405 *  0.0000     2          
   251  O     s     -4.4540 *    -3.3405 *     1.1135 *  0.0000     2          
   252  Cl    s      2.2270 *    -1.1135 *    -5.5675 *  0.0000     2          
   253  Cl    s      2.2270 *    -5.5675 *    -1.1135 *  0.0000     2          
   254  O     s      0.0000       5.5675 *    -3.3405 *  0.0000     1          
   255  O     s      0.0000      -3.3405 *     5.5675 *  0.0000     1          
   256  O     s     -4.4540 *    -3.3405 *    -3.3405 *  0.0000     2          
   257  Cl    s      2.2270 *     3.3405 *    -5.5675 *  0.0000     2          
   258  Cl    s      2.2270 *    -5.5675 *     3.3405 *  0.0000     2          
   259  Cl    s      6.6810 *    -1.1135 *    -1.1135 *  0.0000     2          
   260  O     s     -4.4540 *     5.5675 *     1.1135 *  0.0000     2          
   261  O     s      4.4540 *     1.1135 *     5.5675 *  0.0000     2          
   262  Cl    s      6.6810 *    -1.1135 *     3.3405 *  0.0000     2          
   263  Cl    s      6.6810 *     3.3405 *    -1.1135 *  0.0000     2          
   264  O     s      0.0000       5.5675 *     5.5675 *  0.0000     1          
   265  O     s     -4.4540 *     5.5675 *    -3.3405 *  0.0000     2          
   266  O     s     -4.4540 *    -3.3405 *     5.5675 *  0.0000     2          
   267  O     s      0.0000       1.1135 *    -7.7945 *  0.0000     1          
   268  O     s      0.0000      -7.7945 *     1.1135 *  0.0000     1          
   269  Cl    s      2.2270 *    -5.5675 *    -5.5675 *  0.0000     2          
   270  Cl    s      2.2270 *    -1.1135 *     7.7945 *  0.0000     2          
   271  Cl    s      2.2270 *     7.7945 *    -1.1135 *  0.0000     2          
   272  Cl    s      6.6810 *     3.3405 *     3.3405 *  0.0000     2          
   273  O     s      0.0000      -3.3405 *    -7.7945 *  0.0000     1          
   274  O     s      0.0000      -7.7945 *    -3.3405 *  0.0000     1          
   275  Cl    s      2.2270 *     3.3405 *     7.7945 *  0.0000     2          
   276  Cl    s      6.6810 *    -1.1135 *    -5.5675 *  0.0000     2          
   277  Cl    s      6.6810 *    -5.5675 *    -1.1135 *  0.0000     2          
   278  Cl    s      2.2270 *     7.7945 *     3.3405 *  0.0000     2          
   279  O     s      8.9079 *     1.1135 *     1.1135 *  0.0000     2          
   280  O     s      4.4540 *     5.5675 *     5.5675 *  0.0000     2          
   281  O     s      4.4540 *    -7.7945 *     1.1135 *  0.0000     2          
   282  O     s     -4.4540 *     1.1135 *    -7.7945 *  0.0000     2          
   283  Cl    s      6.6810 *     3.3405 *    -5.5675 *  0.0000     2          
   284  Cl    s      6.6810 *    -5.5675 *     3.3405 *  0.0000     2          
   285  O     s      8.9079 *     1.1135 *    -3.3405 *  0.0000     2          
   286  O     s      8.9079 *    -3.3405 *     1.1135 *  0.0000     2          
   287  O     s      0.0000       5.5675 *    -7.7945 *  0.0000     1          
   288  O     s      0.0000      -7.7945 *     5.5675 *  0.0000     1          
   289  O     s      4.4540 *    -3.3405 *    -7.7945 *  0.0000     2          
   290  O     s      4.4540 *    -7.7945 *    -3.3405 *  0.0000     2          
   291  Cl    s      2.2270 *    -5.5675 *     7.7945 *  0.0000     2          
   292  Cl    s      2.2270 *     7.7945 *    -5.5675 *  0.0000     2          
   293  O     s      0.0000       1.1135 *    10.0214 *  0.0000     1          
   294  O     s      0.0000      10.0214 *     1.1135 *  0.0000     1          
   295  O     s      8.9079 *    -3.3405 *    -3.3405 *  0.0000     2          
   296  Cl    s      2.2270 *    -1.1135 *   -10.0214 *  0.0000     2          
   297  Cl    s      2.2270 *   -10.0214 *    -1.1135 *  0.0000     2          
   298  Cl    s      6.6810 *    -5.5675 *    -5.5675 *  0.0000     2          
   299  Cl    s      6.6810 *    -1.1135 *     7.7945 *  0.0000     2          
   300  Cl    s      6.6810 *     7.7945 *    -1.1135 *  0.0000     2          
   301  O     s      0.0000      10.0214 *    -3.3405 *  0.0000     1          
   302  O     s      0.0000      -3.3405 *    10.0214 *  0.0000     1          
   303  O     s      8.9079 *     5.5675 *     1.1135 *  0.0000     2          
   304  O     s      4.4540 *    -7.7945 *     5.5675 *  0.0000     2          
   305  O     s      8.9079 *     1.1135 *     5.5675 *  0.0000     2          
   306  O     s     -4.4540 *     5.5675 *    -7.7945 *  0.0000     2          
   307  Cl    s      2.2270 *     3.3405 *   -10.0214 *  0.0000     2          
   308  Cl    s      2.2270 *   -10.0214 *     3.3405 *  0.0000     2          
   309  Cl    s      6.6810 *     3.3405 *     7.7945 *  0.0000     2          
   310  Cl    s      6.6810 *     7.7945 *     3.3405 *  0.0000     2          
   311  O     s      4.4540 *    10.0214 *     1.1135 *  0.0000     2          
   312  O     s     -4.4540 *     1.1135 *    10.0214 *  0.0000     2          
   313  O     s      8.9079 *     5.5675 *    -3.3405 *  0.0000     2          
   314  O     s      0.0000      -7.7945 *    -7.7945 *  0.0000     1          
   315  O     s      8.9079 *    -3.3405 *     5.5675 *  0.0000     2          
   316  Cl    s     11.1349 *    -1.1135 *    -1.1135 *  0.0000     2          
   317  Cl    s      2.2270 *     7.7945 *     7.7945 *  0.0000     2          
   318  O     s      0.0000       5.5675 *    10.0214 *  0.0000     1          
   319  O     s      0.0000      10.0214 *     5.5675 *  0.0000     1          
   320  O     s      4.4540 *    10.0214 *    -3.3405 *  0.0000     2          
   321  O     s      4.4540 *    -3.3405 *    10.0214 *  0.0000     2          
   322  Cl    s      2.2270 *    -5.5675 *   -10.0214 *  0.0000     2          
   323  Cl    s      2.2270 *   -10.0214 *    -5.5675 *  0.0000     2          
   324  Cl    s      6.6810 *    -5.5675 *     7.7945 *  0.0000     2          
   325  Cl    s     11.1349 *    -1.1135 *     3.3405 *  0.0000     2          
   326  Cl    s     11.1349 *     3.3405 *    -1.1135 *  0.0000     2          
   327  Cl    s      6.6810 *     7.7945 *    -5.5675 *  0.0000     2          
   328  O     s      8.9079 *     1.1135 *    -7.7945 *  0.0000     2          
   329  O     s      8.9079 *     5.5675 *     5.5675 *  0.0000     2          
   330  O     s      8.9079 *    -7.7945 *     1.1135 *  0.0000     2          
   331  O     s      4.4540 *    -7.7945 *    -7.7945 *  0.0000     2          
--------------------------------------------------------------------------------

  Components of defect energy : 

--------------------------------------------------------------------------------
  Region 1 - region 1                   =      8.77667348 eV
  Region 1 - region 2a (unrelaxed)      =     -0.02239912 eV
  Region 1 - 2a (relaxed - correction)  =     -0.30338083 eV
  Region 1 (Total)                      =      8.45089353 eV
  Region 2a                             =      0.15160864 eV
  Region 2b                             =     -0.42992049 eV
--------------------------------------------------------------------------------
  Total defect energy                   =      8.17258169 eV
--------------------------------------------------------------------------------

  Largest displacement in region 2 =   0.0203 Angstroms


  Number of variables =      904

  Maximum number of calculations  =        1000
  Maximum Hessian update interval =          10
  Maximum step size               =   1.0000000
  Maximum parameter tolerance     =   0.0000100
  Maximum function  tolerance     =   0.0000100
  Maximum gradient  tolerance     =   0.0010000

  Symmetry adapted optimisation

  Symmetry to be used for second derivatives

  Newton-Raphson optimiser to be used

  BFGS hessian update to be used

  Lower half triangular hessian to be used

  Start of defect optimisation :

  Cycle:      0 Defect Energy:   8.172582  Gnorm:     0.020766  CPU:    6.581
  ** Hessian calculated **
  Cycle:      1 Defect Energy:   6.000917  Gnorm:     0.006755  CPU:   11.911
  Cycle:      2 Defect Energy:   5.549281  Gnorm:     0.004340  CPU:   15.505
  Cycle:      3 Defect Energy:   5.386123  Gnorm:     0.003066  CPU:   16.637
  Cycle:      4 Defect Energy:   5.229628  Gnorm:     0.002321  CPU:   17.601
  Cycle:      5 Defect Energy:   5.068740  Gnorm:     0.001952  CPU:   18.576
  Cycle:      6 Defect Energy:   4.941622  Gnorm:     0.001609  CPU:   19.546
  Cycle:      7 Defect Energy:   4.850112  Gnorm:     0.001330  CPU:   20.516
  Cycle:      8 Defect Energy:   4.776854  Gnorm:     0.001049  CPU:   21.537
  Cycle:      9 Defect Energy:   4.724273  Gnorm:     0.000964  CPU:   22.589
  Cycle:     10 Defect Energy:   4.679956  Gnorm:     0.000963  CPU:   23.540
  ** Hessian calculated **
  Cycle:     11 Defect Energy:   4.636169  Gnorm:     0.000945  CPU:   26.143
  Cycle:     12 Defect Energy:   4.621874  Gnorm:     0.000913  CPU:   27.087
  ** Hessian calculated **
  Cycle:     13 Defect Energy:   4.591363  Gnorm:     0.001021  CPU:   29.517
  Cycle:     14 Defect Energy:   4.522170  Gnorm:     0.000684  CPU:   30.409
  ** Hessian calculated **
  Cycle:     15 Defect Energy:   4.590433  Gnorm:     0.001556  CPU:   32.850
  Cycle:     16 Defect Energy:   4.513420  Gnorm:     0.000828  CPU:   33.705
  Cycle:     17 Defect Energy:   4.503530  Gnorm:     0.000651  CPU:   34.557
  ** Hessian calculated **
  Cycle:     18 Defect Energy:   4.492764  Gnorm:     0.000496  CPU:   36.831
  Cycle:     19 Defect Energy:   4.482671  Gnorm:     0.000312  CPU:   41.207
  Cycle:     20 Defect Energy:   4.478875  Gnorm:     0.000413  CPU:   42.667
  Cycle:     21 Defect Energy:   4.471039  Gnorm:     0.000404  CPU:   43.790
  Cycle:     22 Defect Energy:   4.467043  Gnorm:     0.000464  CPU:   44.988
  Cycle:     23 Defect Energy:   4.468229  Gnorm:     0.000428  CPU:   46.227
  ** Hessian calculated **
  Cycle:     24 Defect Energy:   4.459814  Gnorm:     0.000321  CPU:   49.401
  Cycle:     25 Defect Energy:   4.456343  Gnorm:     0.000223  CPU:   50.406
  Cycle:     26 Defect Energy:   4.454948  Gnorm:     0.000158  CPU:   51.510
  Cycle:     27 Defect Energy:   4.454617  Gnorm:     0.000144  CPU:   52.561
  ** Hessian calculated **
  Cycle:     28 Defect Energy:   4.454034  Gnorm:     0.000103  CPU:   55.231
  Cycle:     29 Defect Energy:   4.453707  Gnorm:     0.000079  CPU:   56.370
  Cycle:     30 Defect Energy:   4.453390  Gnorm:     0.000078  CPU:   57.321
  Cycle:     31 Defect Energy:   4.452981  Gnorm:     0.000127  CPU:   58.296
  Cycle:     32 Defect Energy:   4.452482  Gnorm:     0.000143  CPU:   59.245
  Cycle:     33 Defect Energy:   4.452002  Gnorm:     0.000114  CPU:   60.229
  Cycle:     34 Defect Energy:   4.451570  Gnorm:     0.000125  CPU:   61.278
  Cycle:     35 Defect Energy:   4.450853  Gnorm:     0.000110  CPU:   62.245
  Cycle:     36 Defect Energy:   4.450198  Gnorm:     0.000091  CPU:   63.177
  Cycle:     37 Defect Energy:   4.449634  Gnorm:     0.000064  CPU:   64.105
  ** Hessian calculated **
  Cycle:     38 Defect Energy:   4.449075  Gnorm:     0.000043  CPU:   66.664
  Cycle:     39 Defect Energy:   4.448608  Gnorm:     0.000031  CPU:   67.584
  Cycle:     40 Defect Energy:   4.448147  Gnorm:     0.000049  CPU:   68.496
  Cycle:     41 Defect Energy:   4.447852  Gnorm:     0.000064  CPU:   69.393
  Cycle:     42 Defect Energy:   4.447565  Gnorm:     0.000077  CPU:   70.340
  Cycle:     43 Defect Energy:   4.447164  Gnorm:     0.000108  CPU:   71.323
  Cycle:     44 Defect Energy:   4.446525  Gnorm:     0.000148  CPU:   74.968
  Cycle:     45 Defect Energy:   4.446270  Gnorm:     0.000157  CPU:   76.904
  Cycle:     46 Defect Energy:   4.445762  Gnorm:     0.000158  CPU:   78.014
  Cycle:     47 Defect Energy:   4.445106  Gnorm:     0.000181  CPU:   79.172
  ** Hessian calculated **
  Cycle:     48 Defect Energy:   4.443117  Gnorm:     0.000147  CPU:   82.213
  Cycle:     49 Defect Energy:   4.442152  Gnorm:     0.000110  CPU:   83.266
  Cycle:     50 Defect Energy:   4.441801  Gnorm:     0.000070  CPU:   84.283
  Cycle:     51 Defect Energy:   4.441666  Gnorm:     0.000055  CPU:   85.332
  Cycle:     52 Defect Energy:   4.441650  Gnorm:     0.000030  CPU:   86.508


  **** Optimisation achieved ****


  Final defect energy  =        4.44165803
  Final defect Gnorm   =        0.00002269

  Components of defect energy : 

--------------------------------------------------------------------------------
  Region 1 - region 1                   =      6.18419377 eV
  Region 1 - region 2a (unrelaxed)      =     -1.19406356 eV
  Region 1 - 2a (relaxed - correction)  =     -0.23811376 eV
  Region 1 (Total)                      =      4.75201645 eV
  Region 2a                             =      0.11904198 eV
  Region 2b                             =     -0.42940040 eV
--------------------------------------------------------------------------------
  Total defect energy                   =      4.44165803 eV
--------------------------------------------------------------------------------

  Largest displacement in region 2 =   0.0203 Angstroms

  Final coordinates of region 1 :

--------------------------------------------------------------------------------
   No.  Atomic        x           y           z          Radius      Charge
        Label       (Angs)      (Angs)      (Angs)       (Angs)       (e) 
--------------------------------------------------------------------------------
     1  Na    c     2.226987    0.623556    1.603431    0.000000    1.000000
     2  O     c     2.226987    2.578122    2.409161    0.000000    1.443000
     3  Cl    c     4.566757   -0.045746   -0.024976    0.000000    0.996000
     4  Cl    c    -0.112784   -0.045746   -0.024976    0.000000    0.996000
     5  Na    c     4.428637    2.506385    2.399610    0.000000    1.000000
     6  Na    c     0.025337    2.506385    2.399610    0.000000    1.000000
     7  O     c     2.226987    2.233844   -2.148176    0.000000    1.443000
     8  O     c     2.226987   -2.013055    2.183391    0.000000    1.443000
     9  Na    c     2.226987    2.213060    4.523522    0.000000    1.000000
    10  Na    c     2.226987   -2.532450    0.017418    0.000000    1.000000
    11  Na    c     2.226987    0.068251   -1.836104    0.000000    1.000000
    12  Na    c     2.226987    4.480932    1.428661    0.000000    1.000000
    13  Cl    c     4.539222    0.040626    4.505834    0.000000    0.996000
    14  Cl    c    -0.085248    0.040626    4.505834    0.000000    0.996000
    15  Cl    c     4.645075    4.571856   -0.034829    0.000000    0.996000
    16  Cl    c    -0.191102    4.571856   -0.034829    0.000000    0.996000
    17  Na    c     4.389789    2.220659   -2.026781    0.000000    1.000000
    18  Na    c     0.064185    2.220659   -2.026781    0.000000    1.000000
    19  Na    c     4.419155   -1.989881    2.192959    0.000000    1.000000
    20  Na    c     0.034818   -1.989881    2.192959    0.000000    1.000000
    21  O     c    -2.211644    2.261921    2.252229    0.000000    1.443000
    22  O     c     6.665618    2.261921    2.252229    0.000000    1.443000
    23  Na    c    -2.244552    0.033918    2.311270    0.000000    1.000000
    24  Na    c     6.698526    0.033918    2.311270    0.000000    1.000000
    25  O     c     2.226987   -2.178781   -2.218369    0.000000    1.443000
    26  Na    c     2.226987   -1.663156    4.383991    0.000000    1.000000
    27  Na    c    -2.147082    2.206934    0.026676    0.000000    1.000000
    28  Na    c     6.601055    2.206934    0.026676    0.000000    1.000000
    29  Na    c     2.226987    4.410124   -1.982413    0.000000    1.000000
    30  Cl    c     4.627123    4.467817    4.594333    0.000000    0.996000
    31  Cl    c    -0.173149    4.467817    4.594333    0.000000    0.996000
    32  Na    c     4.452691   -2.173452   -2.208240    0.000000    1.000000
    33  Na    c     0.001282   -2.173452   -2.208240    0.000000    1.000000
    34  O     c     2.226987    2.225035    6.739624    0.000000    1.443000
    35  O     c     2.226987    6.654242    2.176858    0.000000    1.443000
    36  O     c    -2.192242    2.239340   -2.209236    0.000000    1.443000
    37  O     c     6.646216    2.239340   -2.209236    0.000000    1.443000
    38  O     c    -2.207589   -2.205434    2.234082    0.000000    1.443000
    39  O     c     6.661563   -2.205434    2.234082    0.000000    1.443000
    40  Na    c     2.226987    2.152943   -4.360878    0.000000    1.000000
    41  Na    c     2.226987    7.241143    0.000262    0.000000    1.000000
    42  Na    c    -2.352403    2.325695    4.477790    0.000000    1.000000
    43  Na    c     6.806376    2.325695    4.477790    0.000000    1.000000
    44  Na    c    -2.220387   -2.182626    0.004536    0.000000    1.000000
    45  Na    c     6.674361   -2.182626    0.004536    0.000000    1.000000
    46  Na    c     2.226987   -0.001483    6.953157    0.000000    1.000000
    47  Na    c     2.226987   -4.281925    2.583415    0.000000    1.000000
    48  Na    c    -2.230647    0.011911   -2.198408    0.000000    1.000000
    49  Na    c     6.684621    0.011911   -2.198408    0.000000    1.000000
    50  Na    c    -2.379649    4.485678    2.163088    0.000000    1.000000
    51  Na    c     6.833623    4.485678    2.163088    0.000000    1.000000
    52  Cl    c     4.552350   -0.035291   -4.514051    0.000000    0.996000
    53  Cl    c    -0.098376   -0.035291   -4.514051    0.000000    0.996000
    54  Cl    c     4.491437   -4.453185   -0.024875    0.000000    0.996000
    55  Cl    c    -0.037463   -4.453185   -0.024875    0.000000    0.996000
    56  Na    c     4.467694    2.360623    6.655189    0.000000    1.000000
    57  Na    c    -0.013720    2.360623    6.655189    0.000000    1.000000
    58  Na    c     4.465878    6.647743    2.042619    0.000000    1.000000
    59  Na    c    -0.011904    6.647743    2.042619    0.000000    1.000000
    60  O     c     2.226987    6.673973   -2.176285    0.000000    1.443000
    61  O     c     2.226987   -2.212807    6.611541    0.000000    1.443000
    62  O     c    -2.235247   -2.222455   -2.228200    0.000000    1.443000
    63  O     c     6.689221   -2.222455   -2.228200    0.000000    1.443000
    64  Na    c     2.226987    6.038180    4.356702    0.000000    1.000000
    65  Na    c     2.226987   -1.780094   -4.429069    0.000000    1.000000
    66  Na    c    -2.203602   -2.248011    4.455866    0.000000    1.000000
    67  Na    c     6.657576   -2.248011    4.455866    0.000000    1.000000
    68  Na    c     2.226987    4.446344    7.002968    0.000000    1.000000
    69  Na    c     2.226987   -4.399903   -2.603941    0.000000    1.000000
    70  Na    c    -2.190860    4.465097   -2.221463    0.000000    1.000000
    71  Na    c     6.644834    4.465097   -2.221463    0.000000    1.000000
    72  Cl    c     4.499078    4.511689   -4.507198    0.000000    0.996000
    73  Cl    c    -0.045105    4.511689   -4.507198    0.000000    0.996000
    74  Cl    c     4.509222   -4.471780    4.480390    0.000000    0.996000
    75  Cl    c    -0.055248   -4.471780    4.480390    0.000000    0.996000
    76  Na    c     4.463500    6.692144   -2.059103    0.000000    1.000000
    77  Na    c    -0.009527    6.692144   -2.059103    0.000000    1.000000
    78  Na    c     4.447548   -2.317317    6.619180    0.000000    1.000000
    79  Na    c     0.006426   -2.317317    6.619180    0.000000    1.000000
    80  Cl    c     8.918514    0.018397    0.007475    0.000000    0.996000
    81  Cl    c    -4.464541    0.018397    0.007475    0.000000    0.996000
    82  Na    c     8.898802    2.224211    2.097554    0.000000    1.000000
    83  Na    c    -4.444828    2.224211    2.097554    0.000000    1.000000
    84  O     c    -2.243515    6.706791    2.230253    0.000000    1.443000
    85  O     c     6.697488    6.706791    2.230253    0.000000    1.443000
    86  Na    c    -2.459395    6.692418   -0.005645    0.000000    1.000000
    87  Na    c     6.913369    6.692418   -0.005645    0.000000    1.000000
    88  Na    c    -2.026671   -4.426198    2.217080    0.000000    1.000000
    89  Na    c     6.480645   -4.426198    2.217080    0.000000    1.000000
    90  O     c     6.704003    2.224924    6.708006    0.000000    1.443000
    91  O     c    -2.250029    2.224924    6.708006    0.000000    1.443000
    92  Na    c     6.577677    2.191463   -4.431842    0.000000    1.000000
    93  Na    c    -2.123703    2.191463   -4.431842    0.000000    1.000000
    94  Na    c     6.480145    0.007003    6.610183    0.000000    1.000000
    95  Na    c    -2.026171    0.007003    6.610183    0.000000    1.000000
    96  Cl    c     8.929109    0.009418    4.468280    0.000000    0.996000
    97  Cl    c    -4.475135    0.009418    4.468280    0.000000    0.996000
    98  Cl    c     8.944568    4.445626    0.012158    0.000000    0.996000
    99  Cl    c    -4.490594    4.445626    0.012158    0.000000    0.996000
   100  Na    c     8.882265    2.247381   -2.168357    0.000000    1.000000
   101  Na    c    -4.428291    2.247381   -2.168357    0.000000    1.000000
   102  Na    c     8.886431   -2.343702    2.230022    0.000000    1.000000
   103  Na    c    -4.432457   -2.343702    2.230022    0.000000    1.000000
   104  O     c     2.226987    6.642979    6.593167    0.000000    1.443000
   105  O     c    -2.245772    6.698330   -2.235510    0.000000    1.443000
   106  O     c     6.699746    6.698330   -2.235510    0.000000    1.443000
   107  O     c    -2.229380   -2.220263    6.688712    0.000000    1.443000
   108  O     c     6.683354   -2.220263    6.688712    0.000000    1.443000
   109  Na    c     2.226987    6.432390   -4.412898    0.000000    1.000000
   110  Na    c    -2.086888    6.613362    4.456777    0.000000    1.000000
   111  Na    c     6.540862    6.613362    4.456777    0.000000    1.000000
   112  Na    c    -2.230337   -2.134564   -4.454283    0.000000    1.000000
   113  Na    c     6.684311   -2.134564   -4.454283    0.000000    1.000000
   114  Na    c     2.226987   -4.433995    6.306459    0.000000    1.000000
   115  Na    c    -2.388134    4.454448    6.734506    0.000000    1.000000
   116  Na    c     6.842108    4.454448    6.734506    0.000000    1.000000
   117  Na    c    -2.213021   -4.441329   -2.271783    0.000000    1.000000
   118  Na    c     6.666995   -4.441329   -2.271783    0.000000    1.000000
   119  O     c     2.226987    2.207557   -6.648996    0.000000    1.443000
   120  O     c     2.226987   -6.589290    2.229245    0.000000    1.443000
   121  Na    c     2.226987    2.204365    8.952787    0.000000    1.000000
   122  Na    c     2.226987   -6.313704    0.007068    0.000000    1.000000
   123  Na    c     2.226987    0.000273   -6.941884    0.000000    1.000000
   124  Na    c     2.226987    8.859463    2.639153    0.000000    1.000000
   125  Cl    c     4.491640   -4.490596   -4.469295    0.000000    0.996000
   126  Cl    c    -0.037666   -4.490596   -4.469295    0.000000    0.996000
   127  Na    c     4.455139    6.552759    6.699735    0.000000    1.000000
   128  Na    c    -0.001165    6.552759    6.699735    0.000000    1.000000
   129  Cl    c     4.457412   -0.002012    8.953949    0.000000    0.996000
   130  Cl    c    -0.003438   -0.002012    8.953949    0.000000    0.996000
   131  Cl    c     4.512920    8.964786   -0.006426    0.000000    0.996000
   132  Cl    c    -0.058947    8.964786   -0.006426    0.000000    0.996000
   133  Cl    c     8.945736    4.494084    4.456358    0.000000    0.996000
   134  Cl    c    -4.491762    4.494084    4.456358    0.000000    0.996000
   135  Na    c     4.447285    2.179742   -6.687814    0.000000    1.000000
   136  Na    c     0.006689    2.179742   -6.687814    0.000000    1.000000
   137  Na    c     4.438114   -6.709402    2.171268    0.000000    1.000000
   138  Na    c     0.015859   -6.709402    2.171268    0.000000    1.000000
   139  Na    c     8.908512   -2.241135   -2.232544    0.000000    1.000000
   140  Na    c    -4.454538   -2.241135   -2.232544    0.000000    1.000000
   141  O     c     2.226987   -2.220415   -6.647142    0.000000    1.443000
   142  O     c     2.226987   -6.635816   -2.215972    0.000000    1.443000
   143  Na    c     2.226987   -2.462099    8.859977    0.000000    1.000000
   144  Na    c     2.226987   -6.950365    4.431500    0.000000    1.000000
   145  Na    c     2.226987    4.430793   -6.699232    0.000000    1.000000
   146  Na    c     2.226987    8.891731   -2.573405    0.000000    1.000000
   147  Cl    c     4.452021    4.449190    8.943235    0.000000    0.996000
   148  Cl    c     0.001953    4.449190    8.943235    0.000000    0.996000
   149  Cl    c     8.931098   -0.010554   -4.456187    0.000000    0.996000
   150  Cl    c    -4.477124   -0.010554   -4.456187    0.000000    0.996000
   151  Cl    c     8.928240   -4.456763    0.000958    0.000000    0.996000
   152  Cl    c    -4.474267   -4.456763    0.000958    0.000000    0.996000
   153  Na    c     4.454894   -2.182324   -6.624880    0.000000    1.000000
   154  Na    c    -0.000920   -2.182324   -6.624880    0.000000    1.000000
   155  Na    c     8.910892    2.001341    6.796719    0.000000    1.000000
   156  Na    c    -4.456918    2.001341    6.796719    0.000000    1.000000
   157  Na    c     8.916722    6.771767    2.449933    0.000000    1.000000
   158  Na    c    -4.462748    6.771767    2.449933    0.000000    1.000000
   159  Cl    c     4.497860    8.977020    4.469664    0.000000    0.996000
   160  Cl    c    -0.043886    8.977020    4.469664    0.000000    0.996000
   161  Na    c     4.449414   -6.620135   -2.171396    0.000000    1.000000
   162  Na    c     0.004560   -6.620135   -2.171396    0.000000    1.000000
   163  O     c    11.128708    2.224530    2.232163    0.000000    1.443000
   164  O     c    -6.674734    2.224530    2.232163    0.000000    1.443000
   165  Na    c    11.193442    2.252318    0.002102    0.000000    1.000000
   166  Na    c    -6.739468    2.252318    0.002102    0.000000    1.000000
   167  Na    c    11.044601   -0.001956    2.198146    0.000000    1.000000
   168  Na    c    -6.590627   -0.001956    2.198146    0.000000    1.000000
   169  O     c     6.690470    6.687606    6.687428    0.000000    1.443000
   170  O     c    -2.236496    6.687606    6.687428    0.000000    1.443000
   171  O     c     6.670323   -6.659444    2.222700    0.000000    1.443000
   172  O     c    -2.216349   -6.659444    2.222700    0.000000    1.443000
   173  O     c    -2.224668    2.232458   -6.667877    0.000000    1.443000
   174  O     c     6.678642    2.232458   -6.667877    0.000000    1.443000
   175  Na    c     6.488803    6.685771   -4.455071    0.000000    1.000000
   176  Na    c    -2.034829    6.685771   -4.455071    0.000000    1.000000
   177  Na    c     6.784981   -6.619103    0.000821    0.000000    1.000000
   178  Na    c    -2.331007   -6.619103    0.000821    0.000000    1.000000
   179  Na    c    -2.178292    2.164565    8.920958    0.000000    1.000000
   180  Na    c     6.632265    2.164565    8.920958    0.000000    1.000000
   181  Na    c     6.662183    8.918862    2.239645    0.000000    1.000000
   182  Na    c    -2.208209    8.918862    2.239645    0.000000    1.000000
   183  Na    c     6.806188   -4.443909    6.688573    0.000000    1.000000
   184  Na    c    -2.352214   -4.443909    6.688573    0.000000    1.000000
   185  Na    c    -2.245062    0.001241   -6.711743    0.000000    1.000000
   186  Na    c     6.699035    0.001241   -6.711743    0.000000    1.000000
   187  Cl    c     8.951133    4.462003   -4.463278    0.000000    0.996000
   188  Cl    c    -4.497159    4.462003   -4.463278    0.000000    0.996000
   189  Cl    c     8.932036   -4.459116    4.469422    0.000000    0.996000
   190  Cl    c    -4.478062   -4.459116    4.469422    0.000000    0.996000
   191  Na    c     8.908539    6.682075   -2.468237    0.000000    1.000000
   192  Na    c    -4.454565    6.682075   -2.468237    0.000000    1.000000
   193  Na    c     8.903924   -2.040242    6.680276    0.000000    1.000000
   194  Na    c    -4.449951   -2.040242    6.680276    0.000000    1.000000
   195  O     c    11.123089    2.228438   -2.222002    0.000000    1.443000
   196  O     c    -6.669115    2.228438   -2.222002    0.000000    1.443000
   197  O     c    11.123539   -2.226392    2.230583    0.000000    1.443000
   198  O     c    -6.669565   -2.226392    2.230583    0.000000    1.443000
   199  Na    c    11.030920    2.223786    4.457089    0.000000    1.000000
   200  Na    c    -6.576947    2.223786    4.457089    0.000000    1.000000
   201  Na    c    11.128668   -2.252360    0.003020    0.000000    1.000000
   202  Na    c    -6.674694   -2.252360    0.003020    0.000000    1.000000
   203  Na    c    11.107943    0.003303   -2.212308    0.000000    1.000000
   204  Na    c    -6.653970    0.003303   -2.212308    0.000000    1.000000
   205  Na    c    11.085783    4.457400    2.240309    0.000000    1.000000
   206  Na    c    -6.631809    4.457400    2.240309    0.000000    1.000000
   207  O     c     2.226987    6.668692   -6.654105    0.000000    1.443000
   208  O     c     2.226987   -6.653417    6.655740    0.000000    1.443000
   209  O     c     6.685562   -2.235361   -6.683953    0.000000    1.443000
   210  O     c    -2.231589   -2.235361   -6.683953    0.000000    1.443000
   211  O     c     6.678271   -6.677701   -2.223904    0.000000    1.443000
   212  O     c    -2.224297   -6.677701   -2.223904    0.000000    1.443000
   213  Na    c     2.226987    6.876477    8.856056    0.000000    1.000000
   214  Na    c     2.226987   -6.910210   -4.433882    0.000000    1.000000
   215  Na    c     6.666286   -2.193474    8.907646    0.000000    1.000000
   216  Na    c    -2.212313   -2.193474    8.907646    0.000000    1.000000
   217  Na    c     6.604583   -6.663287    4.452449    0.000000    1.000000
   218  Na    c    -2.150609   -6.663287    4.452449    0.000000    1.000000
   219  Na    c     2.226987    8.864485    6.389372    0.000000    1.000000
   220  Na    c     2.226987   -4.442058   -6.422583    0.000000    1.000000
   221  Na    c     6.630489    4.457502   -6.633236    0.000000    1.000000
   222  Na    c    -2.176515    4.457502   -6.633236    0.000000    1.000000
   223  Na    c     6.705642    8.914734   -2.231739    0.000000    1.000000
   224  Na    c    -2.251668    8.914734   -2.231739    0.000000    1.000000
   225  Cl    c     4.460478   -4.455348    8.937338    0.000000    0.996000
   226  Cl    c    -0.006504   -4.455348    8.937338    0.000000    0.996000
   227  Na    c     4.443237    6.662367   -6.714960    0.000000    1.000000
   228  Na    c     0.010737    6.662367   -6.714960    0.000000    1.000000
   229  Cl    c     4.463053    8.950501   -4.468701    0.000000    0.996000
   230  Cl    c    -0.009079    8.950501   -4.468701    0.000000    0.996000
   231  Na    c     4.454235   -6.619659    6.687214    0.000000    1.000000
   232  Na    c    -0.000261   -6.619659    6.687214    0.000000    1.000000
   233  O     c     2.226987    2.224198   11.158006    0.000000    1.443000
   234  O     c     2.226987   11.101065    2.240991    0.000000    1.443000
   235  Na    c     2.226987    2.303517   -8.901482    0.000000    1.000000
   236  Na    c     2.226987   10.986826    0.008700    0.000000    1.000000
   237  Na    c     2.226987   -0.016674   11.089549    0.000000    1.000000
   238  Na    c     2.226987   -8.868308    2.043803    0.000000    1.000000
   239  O     c    11.137198   -2.225241   -2.222651    0.000000    1.443000
   240  O     c    -6.683225   -2.225241   -2.222651    0.000000    1.443000
   241  Na    c    11.123710   -2.217984    4.455979    0.000000    1.000000
   242  Na    c    -6.669736   -2.217984    4.455979    0.000000    1.000000
   243  Na    c    11.128494    4.455154   -2.236565    0.000000    1.000000
   244  Na    c    -6.674520    4.455154   -2.236565    0.000000    1.000000
   245  Cl    c     4.469045    0.009871   -8.916501    0.000000    0.996000
   246  Cl    c    -0.015071    0.009871   -8.916501    0.000000    0.996000
   247  Cl    c     4.439979   -8.955439   -0.001935    0.000000    0.996000
   248  Cl    c     0.013995   -8.955439   -0.001935    0.000000    0.996000
   249  Na    c     4.451632    2.222742   11.163275    0.000000    1.000000
   250  Na    c     0.002342    2.222742   11.163275    0.000000    1.000000
   251  Na    c     4.449126   11.118202    2.229496    0.000000    1.000000
   252  Na    c     0.004848   11.118202    2.229496    0.000000    1.000000
   253  Cl    c     8.932619   -4.476293   -4.452558    0.000000    0.996000
   254  Cl    c    -4.478645   -4.476293   -4.452558    0.000000    0.996000
   255  Na    c     8.908757    6.799293    6.592995    0.000000    1.000000
   256  Na    c    -4.454783    6.799293    6.592995    0.000000    1.000000
   257  Cl    c     8.926547   -0.016299    8.947776    0.000000    0.996000
   258  Cl    c    -4.472573   -0.016299    8.947776    0.000000    0.996000
   259  Cl    c     8.931814    8.940066    0.008460    0.000000    0.996000
   260  Cl    c    -4.477840    8.940066    0.008460    0.000000    0.996000
   261  Na    c     8.899822    2.266978   -6.653092    0.000000    1.000000
   262  Na    c    -4.445848    2.266978   -6.653092    0.000000    1.000000
   263  Na    c     8.898120   -6.558492    2.305123    0.000000    1.000000
   264  Na    c    -4.444146   -6.558492    2.305123    0.000000    1.000000
   265  O     c     2.226987   11.116472   -2.227546    0.000000    1.443000
   266  O     c     2.226987   -2.239332   11.114604    0.000000    1.443000
   267  O     c    11.137320    6.684665    2.229123    0.000000    1.443000
   268  O     c    -6.683347    6.684665    2.229123    0.000000    1.443000
   269  Na    c     2.226987   11.314487    4.457335    0.000000    1.000000
   270  Na    c     2.226987   -2.383863   -8.887998    0.000000    1.000000
   271  Na    c    10.992229    6.683631    0.000265    0.000000    1.000000
   272  Na    c    -6.538256    6.683631    0.000265    0.000000    1.000000
   273  Na    c     2.226987    4.465245   11.073857    0.000000    1.000000
   274  Na    c     2.226987   -8.880137   -2.045624    0.000000    1.000000
   275  Na    c    11.223836   -4.451684    2.243905    0.000000    1.000000
   276  Na    c    -6.769862   -4.451684    2.243905    0.000000    1.000000
   277  O     c     6.684438   -6.676596    6.682977    0.000000    1.443000
   278  O     c    -2.230465   -6.676596    6.682977    0.000000    1.443000
   279  O     c    11.131919    2.222199    6.685169    0.000000    1.443000
   280  O     c    -6.677946    2.222199    6.685169    0.000000    1.443000
   281  O     c    -2.222966    6.687663   -6.682713    0.000000    1.443000
   282  O     c     6.676940    6.687663   -6.682713    0.000000    1.443000
   283  Na    c     6.629263   -6.713640   -4.452782    0.000000    1.000000
   284  Na    c    -2.175289   -6.713640   -4.452782    0.000000    1.000000
   285  Na    c    11.112883    2.230077   -4.447931    0.000000    1.000000
   286  Na    c    -6.658909    2.230077   -4.447931    0.000000    1.000000
   287  Na    c    -2.271533    6.732759    8.903699    0.000000    1.000000
   288  Na    c     6.725507    6.732759    8.903699    0.000000    1.000000
   289  Na    c     6.620053    8.906796    6.659521    0.000000    1.000000
   290  Na    c    -2.166080    8.906796    6.659521    0.000000    1.000000
   291  Na    c    11.261919    0.000318    6.676392    0.000000    1.000000
[...]
    251 y         -2.226987     -2.207865     0.019122    Cartesian   -0.86
    251 z          2.226987      2.238412     0.011425    Cartesian    0.51
    252 x          4.453974      4.566477     0.112503    Cartesian    2.53
    252 y          0.000000     -0.061255    -0.061255    Cartesian    0.00
    252 z         -4.453974     -4.532049    -0.078075    Cartesian    1.75
    253 x          4.453974      4.485226     0.031252    Cartesian    0.70
    253 y         -4.453974     -4.464736    -0.010762    Cartesian    0.24
    253 z          0.000000     -0.025697    -0.025697    Cartesian    0.00
    254 x          2.226987      2.226987     0.000000    Cartesian    0.00
    254 y          6.680961      6.700753     0.019792    Cartesian    0.30
    254 z         -2.226987     -2.177792     0.049195    Cartesian   -2.21
    255 x          2.226987      2.226987     0.000000    Cartesian    0.00
    255 y         -2.226987     -2.210875     0.016112    Cartesian   -0.72
    255 z          6.680961      6.629067    -0.051894    Cartesian   -0.78
    256 x         -2.226987     -2.239842    -0.012855    Cartesian    0.58
    256 y         -2.226987     -2.218633     0.008354    Cartesian   -0.38
    256 z         -2.226987     -2.230484    -0.003497    Cartesian    0.16
    257 x          4.453974      4.518673     0.064699    Cartesian    1.45
    257 y          4.453974      4.541149     0.087175    Cartesian    1.96
    257 z         -4.453974     -4.529452    -0.075478    Cartesian    1.69
    258 x          4.453974      4.507937     0.053964    Cartesian    1.21
    258 y         -4.453974     -4.476431    -0.022457    Cartesian    0.50
    258 z          4.453974      4.490380     0.036406    Cartesian    0.82
    259 x          8.907948      8.923988     0.016040    Cartesian    0.18
    259 y          0.000000      0.027275     0.027275    Cartesian    0.00
    259 z          0.000000      0.010526     0.010526    Cartesian    0.00
    260 x         -2.226987     -2.256904    -0.029917    Cartesian    1.34
    260 y          6.680961      6.706865     0.025904    Cartesian    0.39
    260 z          2.226987      2.234237     0.007250    Cartesian    0.33
    261 x          6.680961      6.708679     0.027718    Cartesian    0.41
    261 y          2.226987      2.219906    -0.007081    Cartesian   -0.32
    261 z          6.680961      6.714957     0.033996    Cartesian    0.51
    262 x          8.907948      8.936331     0.028384    Cartesian    0.32
    262 y          0.000000      0.012506     0.012506    Cartesian    0.00
    262 z          4.453974      4.476372     0.022398    Cartesian    0.50
    263 x          8.907948      8.944980     0.037032    Cartesian    0.42
    263 y          4.453974      4.442843    -0.011131    Cartesian   -0.25
    263 z          0.000000      0.025338     0.025338    Cartesian    0.00
    264 x          2.226987      2.226987     0.000000    Cartesian    0.00
    264 y          6.680961      6.617830    -0.063131    Cartesian   -0.94
    264 z          6.680961      6.636261    -0.044699    Cartesian   -0.67
    265 x         -2.226987     -2.251374    -0.024387    Cartesian    1.10
    265 y          6.680961      6.703375     0.022414    Cartesian    0.34
    265 z         -2.226987     -2.243535    -0.016548    Cartesian    0.74
    266 x         -2.226987     -2.226157     0.000830    Cartesian   -0.04
    266 y         -2.226987     -2.219453     0.007534    Cartesian   -0.34
    266 z          6.680961      6.684648     0.003688    Cartesian    0.06
    267 x          2.226987      2.226987     0.000000    Cartesian    0.00
    267 y          2.226987      2.208971    -0.018016    Cartesian   -0.81
    267 z         -6.680961     -6.688986    -0.008025    Cartesian    0.12
    268 x          2.226987      2.226987     0.000000    Cartesian    0.00
    268 y         -6.680961     -6.626289     0.054672    Cartesian   -0.82
    268 z          2.226987      2.229939     0.002952    Cartesian    0.13
    269 x          4.453974      4.485069     0.031095    Cartesian    0.70
    269 y         -4.453974     -4.502626    -0.048652    Cartesian    1.09
    269 z         -4.453974     -4.469301    -0.015327    Cartesian    0.34
    270 x          4.453974      4.457534     0.003560    Cartesian    0.08
    270 y          0.000000      0.003794     0.003794    Cartesian    0.00
    270 z          8.907948      8.957676     0.049729    Cartesian    0.56
    271 x          4.453974      4.497771     0.043798    Cartesian    0.98
    271 y          8.907948      8.956686     0.048738    Cartesian    0.55
    271 z          0.000000     -0.008904    -0.008904    Cartesian    0.00
    272 x          8.907948      8.949139     0.041191    Cartesian    0.46
    272 y          4.453974      4.500109     0.046135    Cartesian    1.04
    272 z          4.453974      4.450952    -0.003022    Cartesian   -0.07
    273 x          2.226987      2.226987     0.000000    Cartesian    0.00
    273 y         -2.226987     -2.202886     0.024101    Cartesian   -1.08
    273 z         -6.680961     -6.655982     0.024979    Cartesian   -0.37
    274 x          2.226987      2.226987     0.000000    Cartesian    0.00
    274 y         -6.680961     -6.639987     0.040974    Cartesian   -0.61
    274 z         -2.226987     -2.226882     0.000105    Cartesian   -0.00
    275 x          4.453974      4.436035    -0.017939    Cartesian   -0.40
    275 y          4.453974      4.446243    -0.007731    Cartesian   -0.17
    275 z          8.907948      8.936184     0.028236    Cartesian    0.32
    276 x          8.907948      8.938070     0.030122    Cartesian    0.34
    276 y          0.000000     -0.018964    -0.018964    Cartesian    0.00
    276 z         -4.453974     -4.459104    -0.005130    Cartesian    0.12
    277 x          8.907948      8.934021     0.026073    Cartesian    0.29
    277 y         -4.453974     -4.461637    -0.007663    Cartesian    0.17
    277 z          0.000000      0.002047     0.002047    Cartesian    0.00
    278 x          4.453974      4.492989     0.039015    Cartesian    0.88
    278 y          8.907948      8.999209     0.091262    Cartesian    1.02
    278 z          4.453974      4.471759     0.017785    Cartesian    0.40
    279 x         11.134934     11.122491    -0.012444    Cartesian   -0.11
    279 y          2.226987      2.224558    -0.002428    Cartesian   -0.11
    279 z          2.226987      2.225147    -0.001839    Cartesian   -0.08
    280 x          6.680961      6.695173     0.014212    Cartesian    0.21
    280 y          6.680961      6.693021     0.012060    Cartesian    0.18
    280 z          6.680961      6.692053     0.011092    Cartesian    0.17
    281 x          6.680961      6.664932    -0.016029    Cartesian   -0.24
    281 y         -6.680961     -6.657696     0.023265    Cartesian   -0.35
    281 z          2.226987      2.222354    -0.004632    Cartesian   -0.21
    282 x         -2.226987     -2.221127     0.005860    Cartesian   -0.26
    282 y          2.226987      2.231957     0.004970    Cartesian    0.22
    282 z         -6.680961     -6.672453     0.008508    Cartesian   -0.13
    283 x          8.907948      8.967016     0.059068    Cartesian    0.66
    283 y          4.453974      4.472242     0.018269    Cartesian    0.41
    283 z         -4.453974     -4.462611    -0.008637    Cartesian    0.19
    284 x          8.907948      8.939107     0.031159    Cartesian    0.35
    284 y         -4.453974     -4.466189    -0.012215    Cartesian    0.27
    284 z          4.453974      4.469223     0.015249    Cartesian    0.34
    285 x         11.134934     11.130596    -0.004339    Cartesian   -0.04
    285 y          2.226987      2.230756     0.003769    Cartesian    0.17
    285 z         -2.226987     -2.219368     0.007619    Cartesian   -0.34
    286 x         11.134934     11.128781    -0.006153    Cartesian   -0.06
    286 y         -2.226987     -2.230565    -0.003578    Cartesian    0.16
    286 z          2.226987      2.229853     0.002866    Cartesian    0.13
    287 x          2.226987      2.226987     0.000000    Cartesian    0.00
    287 y          6.680961      6.658284    -0.022677    Cartesian   -0.34
    287 z         -6.680961     -6.667337     0.013623    Cartesian   -0.20
    288 x          2.226987      2.226987     0.000000    Cartesian    0.00
    288 y         -6.680961     -6.664205     0.016755    Cartesian   -0.25
    288 z          6.680961      6.648921    -0.032040    Cartesian   -0.48
    289 x          6.680961      6.689312     0.008351    Cartesian    0.12
    289 y         -2.226987     -2.234101    -0.007114    Cartesian    0.32
    289 z         -6.680961     -6.683930    -0.002970    Cartesian    0.04
    290 x          6.680961      6.682182     0.001222    Cartesian    0.02
    290 y         -6.680961     -6.677479     0.003481    Cartesian   -0.05
    290 z         -2.226987     -2.225856     0.001131    Cartesian   -0.05
    291 x          4.453974      4.452006    -0.001968    Cartesian   -0.04
    291 y         -4.453974     -4.453619     0.000355    Cartesian   -0.01
    291 z          8.907948      8.947437     0.039489    Cartesian    0.44
    292 x          4.453974      4.458627     0.004653    Cartesian    0.10
    292 y          8.907948      8.958368     0.050420    Cartesian    0.57
    292 z         -4.453974     -4.463573    -0.009599    Cartesian    0.22
    293 x          2.226987      2.226987     0.000000    Cartesian    0.00
    293 y          2.226987      2.222436    -0.004551    Cartesian   -0.20
    293 z         11.134934     11.149408     0.014474    Cartesian    0.13
    294 x          2.226987      2.226987     0.000000    Cartesian    0.00
    294 y         11.134934     11.117497    -0.017437    Cartesian   -0.16
    294 z          2.226987      2.264150     0.037163    Cartesian    1.67
    295 x         11.134934     11.135093     0.000159    Cartesian    0.00
    295 y         -2.226987     -2.227970    -0.000983    Cartesian    0.04
    295 z         -2.226987     -2.222146     0.004841    Cartesian   -0.22
    296 x          4.453974      4.466646     0.012672    Cartesian    0.28
    296 y          0.000000      0.014895     0.014895    Cartesian    0.00
    296 z         -8.907948     -8.907724     0.000223    Cartesian   -0.00
    297 x          4.453974      4.426035    -0.027939    Cartesian   -0.63
    297 y         -8.907948     -8.970866    -0.062919    Cartesian    0.71
    297 z          0.000000     -0.001532    -0.001532    Cartesian    0.00
    298 x          8.907948      8.939330     0.031382    Cartesian    0.35
    298 y         -4.453974     -4.482747    -0.028774    Cartesian    0.65
    298 z         -4.453974     -4.449316     0.004658    Cartesian   -0.10
    299 x          8.907948      8.931345     0.023398    Cartesian    0.26
    299 y          0.000000     -0.012726    -0.012726    Cartesian    0.00
    299 z          8.907948      8.941665     0.033717    Cartesian    0.38
    300 x          8.907948      8.933717     0.025769    Cartesian    0.29
    300 y          8.907948      8.940704     0.032756    Cartesian    0.37
    300 z          0.000000      0.010252     0.010252    Cartesian    0.00
    301 x          2.226987      2.226987     0.000000    Cartesian    0.00
    301 y         11.134934     11.118435    -0.016499    Cartesian   -0.15
    301 z         -2.226987     -2.251585    -0.024599    Cartesian    1.10
    302 x          2.226987      2.226987     0.000000    Cartesian    0.00
    302 y         -2.226987     -2.253359    -0.026372    Cartesian    1.18
    302 z         11.134934     11.126533    -0.008402    Cartesian   -0.08
    303 x         11.134934     11.135077     0.000143    Cartesian    0.00
    303 y          6.680961      6.690821     0.009860    Cartesian    0.15
    303 z          2.226987      2.244432     0.017445    Cartesian    0.78
    304 x          6.680961      6.691220     0.010259    Cartesian    0.15
    304 y         -6.680961     -6.675947     0.005013    Cartesian   -0.08
    304 z          6.680961      6.685703     0.004743    Cartesian    0.07
    305 x         11.134934     11.130569    -0.004365    Cartesian   -0.04
    305 y          2.226987      2.207713    -0.019274    Cartesian   -0.87
    305 z          6.680961      6.693923     0.012962    Cartesian    0.19
    306 x         -2.226987     -2.212066     0.014921    Cartesian   -0.67
    306 y          6.680961      6.689474     0.008514    Cartesian    0.13
    306 z         -6.680961     -6.682304    -0.001343    Cartesian    0.02
    307 x          4.453974      4.437304    -0.016670    Cartesian   -0.37
    307 y          4.453974      4.459416     0.005442    Cartesian    0.12
    307 z         -8.907948     -8.944837    -0.036889    Cartesian    0.41
    308 x          4.453974      4.477003     0.023029    Cartesian    0.52
    308 y         -8.907948     -8.903012     0.004936    Cartesian   -0.06
    308 z          4.453974      4.455129     0.001156    Cartesian    0.03
    309 x          8.907948      8.937227     0.029279    Cartesian    0.33
    309 y          4.453974      4.456066     0.002092    Cartesian    0.05
    309 z          8.907948      8.947575     0.039628    Cartesian    0.44
    310 x          8.907948      8.950855     0.042907    Cartesian    0.48
    310 y          8.907948      8.929984     0.022037    Cartesian    0.25
    310 z          4.453974      4.469210     0.015236    Cartesian    0.34
    311 x          6.680961      6.684886     0.003926    Cartesian    0.06
    311 y         11.134934     11.144469     0.009535    Cartesian    0.09
    311 z          2.226987      2.228344     0.001357    Cartesian    0.06
    312 x         -2.226987     -2.224576     0.002411    Cartesian   -0.11
    312 y          2.226987      2.220867    -0.006120    Cartesian   -0.27
    312 z         11.134934     11.146834     0.011899    Cartesian    0.11
    313 x         11.134934     11.130959    -0.003975    Cartesian   -0.04
    313 y          6.680961      6.682764     0.001803    Cartesian    0.03
    313 z         -2.226987     -2.245815    -0.018828    Cartesian    0.85
    314 x          2.226987      2.226987     0.000000    Cartesian    0.00
    314 y         -6.680961     -6.692009    -0.011048    Cartesian    0.17
    314 z         -6.680961     -6.657304     0.023657    Cartesian   -0.35
    315 x         11.134934     11.138626     0.003692    Cartesian    0.03
    315 y         -2.226987     -2.208424     0.018563    Cartesian   -0.83
    315 z          6.680961      6.684871     0.003911    Cartesian    0.06
    316 x         13.361921     13.388699     0.026778    Cartesian    0.20
    316 y          0.000000     -0.012988    -0.012988    Cartesian    0.00
    316 z          0.000000      0.009574     0.009574    Cartesian    0.00
    317 x          4.453974      4.467084     0.013110    Cartesian    0.29
    317 y          8.907948      8.913521     0.005573    Cartesian    0.06
    317 z          8.907948      8.939848     0.031900    Cartesian    0.36
    318 x          2.226987      2.226987     0.000000    Cartesian    0.00
    318 y          6.680961      6.700726     0.019765    Cartesian    0.30
    318 z         11.134934     11.111898    -0.023037    Cartesian   -0.21
    319 x          2.226987      2.226987     0.000000    Cartesian    0.00
    319 y         11.134934     11.139534     0.004600    Cartesian    0.04
    319 z          6.680961      6.659955    -0.021006    Cartesian   -0.31
    320 x          6.680961      6.688359     0.007399    Cartesian    0.11
    320 y         11.134934     11.142955     0.008020    Cartesian    0.07
    320 z         -2.226987     -2.229229    -0.002242    Cartesian    0.10
    321 x          6.680961      6.682702     0.001741    Cartesian    0.03
    321 y         -2.226987     -2.226659     0.000328    Cartesian   -0.01
    321 z         11.134934     11.143318     0.008383    Cartesian    0.08
    322 x          4.453974      4.458515     0.004541    Cartesian    0.10
    322 y         -4.453974     -4.456922    -0.002948    Cartesian    0.07
    322 z         -8.907948     -8.967846    -0.059898    Cartesian    0.67
    323 x          4.453974      4.463284     0.009311    Cartesian    0.21
    323 y         -8.907948     -8.922351    -0.014404    Cartesian    0.16
    323 z         -4.453974     -4.487102    -0.033128    Cartesian    0.74
    324 x          8.907948      8.917949     0.010002    Cartesian    0.11
    324 y         -4.453974     -4.476402    -0.022429    Cartesian    0.50
    324 z          8.907948      8.935377     0.027430    Cartesian    0.31
    325 x         13.361921     13.406685     0.044763    Cartesian    0.34
    325 y          0.000000     -0.015011    -0.015011    Cartesian    0.00
    325 z          4.453974      4.491604     0.037631    Cartesian    0.84
    326 x         13.361921     13.393679     0.031758    Cartesian    0.24
    326 y          4.453974      4.430480    -0.023493    Cartesian   -0.53
    326 z          0.000000     -0.010436    -0.010436    Cartesian    0.00
    327 x          8.907948      8.939961     0.032013    Cartesian    0.36
    327 y          8.907948      8.940399     0.032452    Cartesian    0.36
    327 z         -4.453974     -4.459296    -0.005323    Cartesian    0.12
    328 x         11.134934     11.136491     0.001557    Cartesian    0.01
    328 y          2.226987      2.231711     0.004724    Cartesian    0.21
    328 z         -6.680961     -6.682725    -0.001765    Cartesian    0.03
    329 x         11.134934     11.141059     0.006125    Cartesian    0.06
    329 y          6.680961      6.692483     0.011522    Cartesian    0.17
    329 z          6.680961      6.679870    -0.001091    Cartesian   -0.02
    330 x         11.134934     11.140091     0.005156    Cartesian    0.05
    330 y         -6.680961     -6.674441     0.006520    Cartesian   -0.10
    330 z          2.226987      2.238065     0.011078    Cartesian    0.50
    331 x          6.680961      6.681416     0.000455    Cartesian    0.01
    331 y         -6.680961     -6.687684    -0.006723    Cartesian    0.10
    331 z         -6.680961     -6.684243    -0.003283    Cartesian    0.05
--------------------------------------------------------------------------------


  Time to end of optimisation  =       87.5905 seconds


  Peak dynamic memory used =     101.61 MB 


  Timing analysis for GULP :

--------------------------------------------------------------------------------
  Task / Subroutine                                          Time (Seconds)
--------------------------------------------------------------------------------
  Calculation of reciprocal space energy and derivatives          0.0003
  Calculation of reciprocal space energy using symmetry           0.0005
  Calculation of real space energy and derivatives                0.0020
  Calculation of real space energy using symmetry                 0.0047
  Calculation for region 1 energy and derivatives (2-b)          50.7760
  Calculation for region 2a energy                               31.7123
  Calculation for region 2b energy                                0.0137
  Calculation and manipulation of Hessian matrix                  0.1854
  Calculation of matrix inversion                                 4.3272
  Symmetry generation of equivalent positions                     0.0024
--------------------------------------------------------------------------------
  Total CPU time                                                 87.5906
--------------------------------------------------------------------------------


  Dump file written as Na3OCl.grs


  Job Finished at 17:21.39  1st March      2021                               

