********************************************************************************
*                       GENERAL UTILITY LATTICE PROGRAM                        *
*                                 Julian Gale                                  *
*                       Curtin Institute for Computation                       *
*                    School of Molecular and Life Sciences                     *
*                    Curtin University, Western Australia                      *
********************************************************************************
* Version = 5.2.0 * Last modified =  10th September 2020                       *
********************************************************************************
*  optimise     - perform optimisation run                                     *
*  conp         - constant pressure calculation                                *
*  property     - calculate properties for final geometry                      *
*  defect       - perform defect calculation after bulk run                    *
*  compare      - compare initial and final structures                         *
********************************************************************************

  Job Started  at 17:22.34  1st March      2021                               

  Number of CPUs =     1


  Total number of configurations input =      1

********************************************************************************
*  Input for Configuration =   1                                               *
********************************************************************************

  Formula = ClONa3                                                      

  Number of irreducible atoms/shells =       5


  Total number atoms/shells =       7

  Dimensionality = 3               :  Bulk   


  Symmetry :

  Crystal family                   :  Cubic       
  Crystal class  (Groth - 1921)    :  Cubic Hexakisoctahedral              

  Space group (centrosymmetric)    :  P M 3 M         

  Patterson group                  :  P m -3 m 

  Cartesian lattice vectors (Angstroms) :

        4.504000    0.000000    0.000000
        0.000000    4.504000    0.000000
        0.000000    0.000000    4.504000

  Cell parameters (Angstroms/Degrees):

  a =       4.5040    alpha =  90.0000
  b =       4.5040    beta  =  90.0000
  c =       4.5040    gamma =  90.0000

  Initial cell volume =          91.368216 Angs**3

  Temperature of configuration =   0.00     K 

  Pressure of configuration =         0.000 GPa 

  Fractional coordinates of asymmetric unit :

--------------------------------------------------------------------------------
   No.  Atomic       x           y          z         Charge      Occupancy
        Label      (Frac)      (Frac)     (Frac)        (e)         (Frac)  
--------------------------------------------------------------------------------
      1 Cl    c    0.000000    0.000000    0.000000     0.99600    1.000000    
      2 O     c    0.500000    0.500000    0.500000     1.44300    1.000000    
      3 Na    c    0.500000    0.500000    0.000000     1.00000    1.000000    
      4 Cl    s    0.000000    0.000000    0.000000    -1.99600    1.000000    
      5 O     s    0.500000    0.500000    0.500000    -3.44300    1.000000    
--------------------------------------------------------------------------------


  Constraints : 

--------------------------------------------------------------------------------
  Constraint no.      Unconstrained     Constrained    Coefficient    Offset
                         Variable         Variable
--------------------------------------------------------------------------------
           1              Strain 1        Strain 2       1.00000      0.0000
           2              Strain 1        Strain 3       1.00000      0.0000
--------------------------------------------------------------------------------


********************************************************************************
*  General input information                                                   *
********************************************************************************

  Species output for all configurations : 

--------------------------------------------------------------------------------
  Species    Type    Atomic    Atomic    Charge       Radii (Angs)     Library
                     Number     Mass       (e)     Cova   Ionic  VDW   Symbol
--------------------------------------------------------------------------------
    Na       Core       11      22.99   1.000000   0.970  0.000  2.300          
    O        Core        8      16.00   1.443000   0.730  0.000  1.360          
    O        Shell       8       0.00  -3.443000   0.730  0.000  1.360          
    Cl       Core       17      35.45   0.996000   0.990  0.000  1.650          
    Cl       Shell      17       0.00  -1.996000   0.990  0.000  1.650          
--------------------------------------------------------------------------------


  Lattice summation method               =    Ewald          (3-D)
                                         =    Parry          (2-D)
                                         =    Saunders et al (1-D)
  Accuracy factor for lattice sums       =   12.000


  Analytic derivatives to be used

  Time limit = Infinity

  Maximum range for interatomic potentials =    100000.000000 Angstroms

  General interatomic potentials :

--------------------------------------------------------------------------------
Atom  Types   Potential      Parameter       Value         Units   Cutoffs(Ang)
  1     2                                                            Min /  Max 
--------------------------------------------------------------------------------
O    c O    s Spring (c-s)  Spring k 2       20.486200    eV*Ang^-2 0.000  0.800
                            Spring k 4       0.0000000    eV*Ang^-4 
--------------------------------------------------------------------------------
Cl   c Cl   s Spring (c-s)  Spring k 2       10.001500    eV*Ang^-2 0.000  0.800
                            Spring k 4       0.0000000    eV*Ang^-4 
--------------------------------------------------------------------------------
Na   c Na   c Buckingham    Buckingham A     29281.710    eV        0.000 12.000
                            Buckingham rho  0.37200000E-01Ang       
                            Buckingham C     0.0000000    eV*Ang^6  
--------------------------------------------------------------------------------
Na   c O    s Buckingham    Buckingham A     602.40000    eV        0.000 12.000
                            Buckingham rho  0.34280000    Ang       
                            Buckingham C     0.0000000    eV*Ang^6  
--------------------------------------------------------------------------------
Na   c Cl   s Buckingham    Buckingham A     3515.6900    eV        0.000 12.000
                            Buckingham rho  0.27460000    Ang       
                            Buckingham C     0.0000000    eV*Ang^6  
--------------------------------------------------------------------------------
O    s O    s Buckingham    Buckingham A     25201.690    eV        0.000 12.000
                            Buckingham rho  0.16450000    Ang       
                            Buckingham C     13.190000    eV*Ang^6  
--------------------------------------------------------------------------------
O    s Cl   s Buckingham    Buckingham A     1105.8600    eV        0.000 12.000
                            Buckingham rho  0.31330000    Ang       
                            Buckingham C     62.200000    eV*Ang^6  
--------------------------------------------------------------------------------
Cl   s Cl   s Buckingham    Buckingham A     31408.750    eV        0.000 12.000
                            Buckingham rho  0.13660000    Ang       
                            Buckingham C     14.530000    eV*Ang^6  
--------------------------------------------------------------------------------

********************************************************************************
*  Output for configuration   1                                                *
********************************************************************************


  Components of energy : 

--------------------------------------------------------------------------------
  Interatomic potentials     =           5.33200327 eV    
  Monopole - monopole (real) =         -10.03624526 eV    
  Monopole - monopole (recip)=         -29.53581274 eV    
  Monopole - monopole (total)=         -39.57205800 eV    
--------------------------------------------------------------------------------
  Total lattice energy       =         -34.24005473 eV    
--------------------------------------------------------------------------------
  Total lattice energy       =           -3303.6419 kJ/(mole unit cells)
--------------------------------------------------------------------------------


  Number of variables =        1

  Maximum number of calculations  =          1000
  Maximum Hessian update interval =            10
  Maximum step size               =   1.000000000
  Maximum parameter tolerance     =   0.000010000
  Maximum function  tolerance     =   0.000010000
  Maximum gradient  tolerance     =   0.001000000
  Maximum gradient  component     =   0.010000000

  Symmetry constrained optimisation

  Symmetry used for second derivatives

  Cell parameters to be optimised using strains

  Newton-Raphson optimiser to be used

  BFGS hessian update to be used

  Lower half triangular hessian to be used

  Start of bulk optimisation :

  Cycle:      0 Energy:       -34.240055  Gnorm:      2.245244  CPU:    0.014
  ** Hessian calculated **
  Cycle:      1 Energy:       -34.252747  Gnorm:      0.013309  CPU:    0.018


  **** Optimisation achieved ****


  Final energy =     -34.25274716 eV
  Final Gnorm  =       0.00056121

  Components of energy : 

--------------------------------------------------------------------------------
  Interatomic potentials     =           5.76377683 eV    
  Monopole - monopole (real) =         -10.14897050 eV    
  Monopole - monopole (recip)=         -29.86755349 eV    
  Monopole - monopole (total)=         -40.01652399 eV    
--------------------------------------------------------------------------------
  Total lattice energy       =         -34.25274716 eV    
--------------------------------------------------------------------------------
  Total lattice energy       =           -3304.8665 kJ/(mole unit cells)
--------------------------------------------------------------------------------

  Final asymmetric unit coordinates :

--------------------------------------------------------------------------------
   No.  Atomic        x           y           z         Radius
        Label       (Frac)      (Frac)      (Frac)       (Angs) 
--------------------------------------------------------------------------------
     1  Cl    c     0.000000    0.000000    0.000000    0.000000
     2  O     c     0.500000    0.500000    0.500000    0.000000
     3  Na    c     0.500000    0.500000    0.000000    0.000000
     4  Cl    s     0.000000    0.000000    0.000000    0.000000
     5  O     s     0.500000    0.500000    0.500000    0.000000
--------------------------------------------------------------------------------

  Final Cartesian lattice vectors (Angstroms) :

        4.453974    0.000000    0.000000
        0.000000    4.453974    0.000000
        0.000000    0.000000    4.453974


  Final cell parameters and derivatives :

--------------------------------------------------------------------------------
       a            4.453974 Angstrom     dE/de1(xx)     0.000561 eV/strain
       b            4.453974 Angstrom     dE/de2(yy)     0.000000 eV/strain
       c            4.453974 Angstrom     dE/de3(zz)     0.000000 eV/strain
       alpha       90.000000 Degrees      dE/de4(yz)     0.000000 eV/strain
       beta        90.000000 Degrees      dE/de5(xz)     0.000000 eV/strain
       gamma       90.000000 Degrees      dE/de6(xy)     0.000000 eV/strain
--------------------------------------------------------------------------------

  Primitive cell volume =            88.357409 Angs**3

  Density of cell =      2.263141 g/cm**3

  Non-primitive cell volume =            88.357409 Angs**3


  Final internal derivatives :

--------------------------------------------------------------------------------
   No.  Atomic          a             b             c           Radius
        Label          (eV)          (eV)          (eV)        (eV/Angs)
--------------------------------------------------------------------------------
      1 Cl    c       0.000000      0.000000      0.000000      0.000000
      2 O     c       0.000000      0.000000      0.000000      0.000000
      3 Na    c       0.000000      0.000000      0.000000      0.000000
      4 Cl    s       0.000000      0.000000      0.000000      0.000000
      5 O     s       0.000000      0.000000      0.000000      0.000000
--------------------------------------------------------------------------------
  Maximum abs         0.000000      0.000000      0.000000      0.000000
--------------------------------------------------------------------------------

  Comparison of initial and final structures : 

--------------------------------------------------------------------------------
  Parameter   Initial value   Final value   Difference    Units      Percent
--------------------------------------------------------------------------------
    Volume        91.368216     88.357409    -3.010807    Angs**3     -3.30
    a              4.504000      4.453974    -0.050026    Angstroms   -1.11
    b              4.504000      4.453974    -0.050026    Angstroms   -1.11
    c              4.504000      4.453974    -0.050026    Angstroms   -1.11
    alpha         90.000000     90.000000     0.000000    Degrees      0.00
    beta          90.000000     90.000000     0.000000    Degrees      0.00
    gamma         90.000000     90.000000     0.000000    Degrees      0.00
      1 x          0.000000      0.000000     0.000000    Fractional   0.00
      1 y          0.000000      0.000000     0.000000    Fractional   0.00
      1 z          0.000000      0.000000     0.000000    Fractional   0.00
      2 x          0.500000      0.500000     0.000000    Fractional   0.00
      2 y          0.500000      0.500000     0.000000    Fractional   0.00
      2 z          0.500000      0.500000     0.000000    Fractional   0.00
      3 x          0.500000      0.500000     0.000000    Fractional   0.00
      3 y          0.500000      0.500000     0.000000    Fractional   0.00
      3 z          0.000000      0.000000     0.000000    Fractional   0.00
      4 x          0.000000      0.000000     0.000000    Fractional   0.00
      4 y          0.000000      0.000000     0.000000    Fractional   0.00
      4 z          0.000000      0.000000     0.000000    Fractional   0.00
      5 x          0.500000      0.500000     0.000000    Fractional   0.00
      5 y          0.500000      0.500000     0.000000    Fractional   0.00
      5 z          0.500000      0.500000     0.000000    Fractional   0.00
--------------------------------------------------------------------------------


  Born effective charge tensors : 

-------------------------------------------------------------------------------
  Atom             x           y             z
-------------------------------------------------------------------------------
    1 Cl    x      -1.4271      0.0000      0.0000
            y       0.0000     -1.4271      0.0000
            z       0.0000      0.0000     -1.4271
-------------------------------------------------------------------------------
    2 O     x      -1.6137     -0.0000     -0.0000
            y      -0.0000     -1.6137     -0.0000
            z      -0.0000     -0.0000     -1.6137
-------------------------------------------------------------------------------
    3 Na    x       0.8295     -0.0000     -0.0000
            y      -0.0000      0.8295      0.0000
            z      -0.0000      0.0000      1.3817
-------------------------------------------------------------------------------




  Elastic Constant Matrix: (Units=GPa)

-------------------------------------------------------------------------------
  Indices      1         2         3         4         5         6    
-------------------------------------------------------------------------------
       1     82.8226   21.5342   21.5342    0.0000   -0.0000   -0.0000
       2     21.5342   82.8226   21.5342   -0.0000    0.0000   -0.0000
       3     21.5342   21.5342   82.8226    0.0000    0.0000   -0.0000
       4      0.0000   -0.0000    0.0000   21.5346   -0.0000    0.0000
       5     -0.0000    0.0000    0.0000   -0.0000   21.5346    0.0000
       6     -0.0000   -0.0000   -0.0000    0.0000    0.0000   21.5346
-------------------------------------------------------------------------------


  Elastic Compliance Matrix: (Units=1/GPa)

-------------------------------------------------------------------------------
  Indices      1         2         3         4         5         6    
-------------------------------------------------------------------------------
       1    0.013525 -0.002791 -0.002791 -0.000000  0.000000  0.000000
       2   -0.002791  0.013525 -0.002791  0.000000 -0.000000  0.000000
       3   -0.002791 -0.002791  0.013525 -0.000000 -0.000000  0.000000
       4   -0.000000  0.000000 -0.000000  0.046437  0.000000 -0.000000
       5    0.000000 -0.000000 -0.000000  0.000000  0.046437 -0.000000
       6    0.000000  0.000000  0.000000 -0.000000 -0.000000  0.046437
-------------------------------------------------------------------------------

  Mechanical properties :

-------------------------------------------------------------------------------
  Convention :                    Reuss         Voigt         Hill
-------------------------------------------------------------------------------
  Bulk  Modulus (GPa)     =      41.96371      41.96371      41.96371
  Shear Modulus (GPa)     =      24.44079      25.17843      24.80961
-------------------------------------------------------------------------------
  Velocity S-wave (km/s)  =       3.28626       3.33548       3.31096
  Velocity P-wave (km/s)  =       5.73948       5.77721       5.75837
-------------------------------------------------------------------------------
  Compressibility (1/GPa) =    0.02383011
-------------------------------------------------------------------------------
  Stress axis :                     x             y             z
-------------------------------------------------------------------------------
  Youngs Moduli (GPa)     =      73.93539      73.93539      73.93539
-------------------------------------------------------------------------------
  Poissons Ratio (x)      =                     0.20635       0.20635
  Poissons Ratio (y)      =       0.20635                     0.20635
  Poissons Ratio (z)      =       0.20635       0.20635
-------------------------------------------------------------------------------


  Piezoelectric Strain Matrix: (Units=C/m**2)

-------------------------------------------------------------------------------
  Indices      1         2         3         4         5         6    
-------------------------------------------------------------------------------
       x     0.00000  -0.00000   0.00000   0.00000  -0.00000  -0.00000
       y    -0.00000  -0.00000  -0.00000  -0.00000   0.00000   0.00000
       z    -0.00000  -0.00000   0.00000   0.00000   0.00000   0.00000
-------------------------------------------------------------------------------


  Piezoelectric Stress Matrix: (Units=10**-11 C/N)

-------------------------------------------------------------------------------
  Indices      1         2         3         4         5         6    
-------------------------------------------------------------------------------
       x     0.00000  -0.00000  -0.00000   0.00000  -0.00000  -0.00000
       y    -0.00000   0.00000   0.00000  -0.00000   0.00000   0.00000
       z    -0.00000  -0.00000   0.00000   0.00000   0.00000   0.00000
-------------------------------------------------------------------------------


  Static dielectric constant tensor : 

-------------------------------------------------------------------------------
              x         y         z
-------------------------------------------------------------------------------
       x    28.60451  -0.00000  -0.00000
       y    -0.00000  28.60451  -0.00000
       z    -0.00000  -0.00000  28.60451
--------------------------------------------------------------------------------

  High frequency dielectric constant tensor : 

-------------------------------------------------------------------------------
              x         y         z
-------------------------------------------------------------------------------
       x     3.92296  -0.00000  -0.00000
       y    -0.00000   3.92296   0.00000
       z    -0.00000   0.00000   3.92296
-------------------------------------------------------------------------------

  Static refractive indices : 

-------------------------------------------------------------------------------
    1 =    5.34832      2 =    5.34832      3 =    5.34832
-------------------------------------------------------------------------------

  High frequency refractive indices : 

-------------------------------------------------------------------------------
    1 =    1.98065      2 =    1.98065      3 =    1.98065
-------------------------------------------------------------------------------


  Time to end of optimisation =       0.0264 seconds

********************************************************************************
*  Defect calculation for configuration   1 :                                  *
********************************************************************************

  Total number of defects =      3

  Total charge on defect  =  -1.00

  Defect centre is at   0.5000   0.2500   0.2500  Frac

  Region 1 radius =  12.0000      Number of ions =    575

  Number of symmetry inequivalent region 1 ions  =    331

  Region 2 radius =  16.0000      Number of ions =    818

  Number of symmetry inequivalent region 2a ions =    447

  Region 2a mode = 4 : screened electrostatics due to region 1 
                       neglect correction to region 1 forces from 2a
                       region 2a displacements based on defects only

  Region 2a ions will only interact with defects in region 1

  Vacancies:

--------------------------------------------------------------------------------
    Specification type     Symbol/Number         x          y          z
--------------------------------------------------------------------------------
    Fractional                               0.500000   0.500000   0.000000
    Fractional                               0.500000   0.000000   0.500000
--------------------------------------------------------------------------------

  Interstitials:

--------------------------------------------------------------------------------
    Specification type     Symbol/Number         x          y          z
--------------------------------------------------------------------------------
    Atom/Fractional         Na               0.500000   0.220000   0.280000
--------------------------------------------------------------------------------


  Symmetry reduced region 1 (Relative to defect centre) :

--------------------------------------------------------------------------------
   No.   Atomic       x            y             z       Radius  Multiplicity   
         Label      (Angs)       (Angs)        (Angs)    (Angs)     
--------------------------------------------------------------------------------
     1  Na    c      0.0000      -0.1336       0.1336    0.0000     1    Defect
     2  O     c      0.0000       1.1135 *     1.1135 *  0.0000     1          
     3  Cl    c      2.2270 *    -1.1135 *    -1.1135 *  0.0000     2          
     4  Na    c      2.2270 *     1.1135 *     1.1135 *  0.0000     2          
     5  O     c      0.0000       1.1135 *    -3.3405 *  0.0000     1          
     6  O     c      0.0000      -3.3405 *     1.1135 *  0.0000     1          
     7  Na    c      0.0000       1.1135 *     3.3405 *  0.0000     1          
     8  Na    c      0.0000      -3.3405 *    -1.1135 *  0.0000     1          
     9  Na    c      0.0000      -1.1135 *    -3.3405 *  0.0000     1          
    10  Na    c      0.0000       3.3405 *     1.1135 *  0.0000     1          
    11  Cl    c      2.2270 *    -1.1135 *     3.3405 *  0.0000     2          
    12  Cl    c      2.2270 *     3.3405 *    -1.1135 *  0.0000     2          
    13  Na    c      2.2270 *     1.1135 *    -3.3405 *  0.0000     2          
    14  Na    c      2.2270 *    -3.3405 *     1.1135 *  0.0000     2          
    15  O     c     -4.4540 *     1.1135 *     1.1135 *  0.0000     2          
    16  Na    c     -4.4540 *    -1.1135 *     1.1135 *  0.0000     2          
    17  O     c      0.0000      -3.3405 *    -3.3405 *  0.0000     1          
    18  Na    c      0.0000      -3.3405 *     3.3405 *  0.0000     1          
    19  Na    c     -4.4540 *     1.1135 *    -1.1135 *  0.0000     2          
    20  Na    c      0.0000       3.3405 *    -3.3405 *  0.0000     1          
    21  Cl    c      2.2270 *     3.3405 *     3.3405 *  0.0000     2          
    22  Na    c      2.2270 *    -3.3405 *    -3.3405 *  0.0000     2          
    23  O     c      0.0000       1.1135 *     5.5675 *  0.0000     1          
    24  O     c      0.0000       5.5675 *     1.1135 *  0.0000     1          
    25  O     c     -4.4540 *     1.1135 *    -3.3405 *  0.0000     2          
    26  O     c     -4.4540 *    -3.3405 *     1.1135 *  0.0000     2          
    27  Na    c      0.0000       1.1135 *    -5.5675 *  0.0000     1          
    28  Na    c      0.0000       5.5675 *    -1.1135 *  0.0000     1          
    29  Na    c     -4.4540 *     1.1135 *     3.3405 *  0.0000     2          
    30  Na    c     -4.4540 *    -3.3405 *    -1.1135 *  0.0000     2          
    31  Na    c      0.0000      -1.1135 *     5.5675 *  0.0000     1          
    32  Na    c      0.0000      -5.5675 *     1.1135 *  0.0000     1          
    33  Na    c     -4.4540 *    -1.1135 *    -3.3405 *  0.0000     2          
    34  Na    c     -4.4540 *     3.3405 *     1.1135 *  0.0000     2          
    35  Cl    c      2.2270 *    -1.1135 *    -5.5675 *  0.0000     2          
    36  Cl    c      2.2270 *    -5.5675 *    -1.1135 *  0.0000     2          
    37  Na    c      2.2270 *     1.1135 *     5.5675 *  0.0000     2          
    38  Na    c      2.2270 *     5.5675 *     1.1135 *  0.0000     2          
    39  O     c      0.0000       5.5675 *    -3.3405 *  0.0000     1          
    40  O     c      0.0000      -3.3405 *     5.5675 *  0.0000     1          
    41  O     c     -4.4540 *    -3.3405 *    -3.3405 *  0.0000     2          
    42  Na    c      0.0000       5.5675 *     3.3405 *  0.0000     1          
    43  Na    c      0.0000      -3.3405 *    -5.5675 *  0.0000     1          
    44  Na    c     -4.4540 *    -3.3405 *     3.3405 *  0.0000     2          
    45  Na    c      0.0000       3.3405 *     5.5675 *  0.0000     1          
    46  Na    c      0.0000      -5.5675 *    -3.3405 *  0.0000     1          
    47  Na    c     -4.4540 *     3.3405 *    -3.3405 *  0.0000     2          
    48  Cl    c      2.2270 *     3.3405 *    -5.5675 *  0.0000     2          
    49  Cl    c      2.2270 *    -5.5675 *     3.3405 *  0.0000     2          
    50  Na    c      2.2270 *     5.5675 *    -3.3405 *  0.0000     2          
    51  Na    c      2.2270 *    -3.3405 *     5.5675 *  0.0000     2          
    52  Cl    c      6.6810 *    -1.1135 *    -1.1135 *  0.0000     2          
    53  Na    c      6.6810 *     1.1135 *     1.1135 *  0.0000     2          
    54  O     c     -4.4540 *     5.5675 *     1.1135 *  0.0000     2          
    55  Na    c     -4.4540 *     5.5675 *    -1.1135 *  0.0000     2          
    56  Na    c     -4.4540 *    -5.5675 *     1.1135 *  0.0000     2          
    57  O     c      4.4540 *     1.1135 *     5.5675 *  0.0000     2          
    58  Na    c      4.4540 *     1.1135 *    -5.5675 *  0.0000     2          
    59  Na    c      4.4540 *    -1.1135 *     5.5675 *  0.0000     2          
    60  Cl    c      6.6810 *    -1.1135 *     3.3405 *  0.0000     2          
    61  Cl    c      6.6810 *     3.3405 *    -1.1135 *  0.0000     2          
    62  Na    c      6.6810 *     1.1135 *    -3.3405 *  0.0000     2          
    63  Na    c      6.6810 *    -3.3405 *     1.1135 *  0.0000     2          
    64  O     c      0.0000       5.5675 *     5.5675 *  0.0000     1          
    65  O     c     -4.4540 *     5.5675 *    -3.3405 *  0.0000     2          
    66  O     c     -4.4540 *    -3.3405 *     5.5675 *  0.0000     2          
    67  Na    c      0.0000       5.5675 *    -5.5675 *  0.0000     1          
    68  Na    c     -4.4540 *     5.5675 *     3.3405 *  0.0000     2          
    69  Na    c     -4.4540 *    -3.3405 *    -5.5675 *  0.0000     2          
    70  Na    c      0.0000      -5.5675 *     5.5675 *  0.0000     1          
    71  Na    c     -4.4540 *     3.3405 *     5.5675 *  0.0000     2          
    72  Na    c     -4.4540 *    -5.5675 *    -3.3405 *  0.0000     2          
    73  O     c      0.0000       1.1135 *    -7.7945 *  0.0000     1          
    74  O     c      0.0000      -7.7945 *     1.1135 *  0.0000     1          
    75  Na    c      0.0000       1.1135 *     7.7945 *  0.0000     1          
    76  Na    c      0.0000      -7.7945 *    -1.1135 *  0.0000     1          
    77  Na    c      0.0000      -1.1135 *    -7.7945 *  0.0000     1          
    78  Na    c      0.0000       7.7945 *     1.1135 *  0.0000     1          
    79  Cl    c      2.2270 *    -5.5675 *    -5.5675 *  0.0000     2          
    80  Na    c      2.2270 *     5.5675 *     5.5675 *  0.0000     2          
    81  Cl    c      2.2270 *    -1.1135 *     7.7945 *  0.0000     2          
    82  Cl    c      2.2270 *     7.7945 *    -1.1135 *  0.0000     2          
    83  Cl    c      6.6810 *     3.3405 *     3.3405 *  0.0000     2          
    84  Na    c      2.2270 *     1.1135 *    -7.7945 *  0.0000     2          
    85  Na    c      2.2270 *    -7.7945 *     1.1135 *  0.0000     2          
    86  Na    c      6.6810 *    -3.3405 *    -3.3405 *  0.0000     2          
    87  O     c      0.0000      -3.3405 *    -7.7945 *  0.0000     1          
    88  O     c      0.0000      -7.7945 *    -3.3405 *  0.0000     1          
    89  Na    c      0.0000      -3.3405 *     7.7945 *  0.0000     1          
    90  Na    c      0.0000      -7.7945 *     3.3405 *  0.0000     1          
    91  Na    c      0.0000       3.3405 *    -7.7945 *  0.0000     1          
    92  Na    c      0.0000       7.7945 *    -3.3405 *  0.0000     1          
    93  Cl    c      2.2270 *     3.3405 *     7.7945 *  0.0000     2          
    94  Cl    c      6.6810 *    -1.1135 *    -5.5675 *  0.0000     2          
    95  Cl    c      6.6810 *    -5.5675 *    -1.1135 *  0.0000     2          
    96  Na    c      2.2270 *    -3.3405 *    -7.7945 *  0.0000     2          
    97  Na    c      6.6810 *     1.1135 *     5.5675 *  0.0000     2          
    98  Na    c      6.6810 *     5.5675 *     1.1135 *  0.0000     2          
    99  Cl    c      2.2270 *     7.7945 *     3.3405 *  0.0000     2          
   100  Na    c      2.2270 *    -7.7945 *    -3.3405 *  0.0000     2          
   101  O     c      8.9079 *     1.1135 *     1.1135 *  0.0000     2          
   102  Na    c      8.9079 *     1.1135 *    -1.1135 *  0.0000     2          
   103  Na    c      8.9079 *    -1.1135 *     1.1135 *  0.0000     2          
   104  O     c      4.4540 *     5.5675 *     5.5675 *  0.0000     2          
   105  O     c      4.4540 *    -7.7945 *     1.1135 *  0.0000     2          
   106  O     c     -4.4540 *     1.1135 *    -7.7945 *  0.0000     2          
   107  Na    c      4.4540 *     5.5675 *    -5.5675 *  0.0000     2          
   108  Na    c      4.4540 *    -7.7945 *    -1.1135 *  0.0000     2          
   109  Na    c     -4.4540 *     1.1135 *     7.7945 *  0.0000     2          
   110  Na    c      4.4540 *     7.7945 *     1.1135 *  0.0000     2          
   111  Na    c      4.4540 *    -5.5675 *     5.5675 *  0.0000     2          
   112  Na    c     -4.4540 *    -1.1135 *    -7.7945 *  0.0000     2          
   113  Cl    c      6.6810 *     3.3405 *    -5.5675 *  0.0000     2          
   114  Cl    c      6.6810 *    -5.5675 *     3.3405 *  0.0000     2          
   115  Na    c      6.6810 *     5.5675 *    -3.3405 *  0.0000     2          
   116  Na    c      6.6810 *    -3.3405 *     5.5675 *  0.0000     2          
   117  O     c      8.9079 *     1.1135 *    -3.3405 *  0.0000     2          
   118  O     c      8.9079 *    -3.3405 *     1.1135 *  0.0000     2          
   119  Na    c      8.9079 *     1.1135 *     3.3405 *  0.0000     2          
   120  Na    c      8.9079 *    -3.3405 *    -1.1135 *  0.0000     2          
   121  Na    c      8.9079 *    -1.1135 *    -3.3405 *  0.0000     2          
   122  Na    c      8.9079 *     3.3405 *     1.1135 *  0.0000     2          
   123  O     c      0.0000       5.5675 *    -7.7945 *  0.0000     1          
   124  O     c      0.0000      -7.7945 *     5.5675 *  0.0000     1          
   125  O     c      4.4540 *    -3.3405 *    -7.7945 *  0.0000     2          
   126  O     c      4.4540 *    -7.7945 *    -3.3405 *  0.0000     2          
   127  Na    c      0.0000       5.5675 *     7.7945 *  0.0000     1          
   128  Na    c      0.0000      -7.7945 *    -5.5675 *  0.0000     1          
   129  Na    c      4.4540 *    -3.3405 *     7.7945 *  0.0000     2          
   130  Na    c      4.4540 *    -7.7945 *     3.3405 *  0.0000     2          
   131  Na    c      0.0000       7.7945 *     5.5675 *  0.0000     1          
   132  Na    c      0.0000      -5.5675 *    -7.7945 *  0.0000     1          
   133  Na    c      4.4540 *     3.3405 *    -7.7945 *  0.0000     2          
   134  Na    c      4.4540 *     7.7945 *    -3.3405 *  0.0000     2          
   135  Cl    c      2.2270 *    -5.5675 *     7.7945 *  0.0000     2          
   136  Na    c      2.2270 *     5.5675 *    -7.7945 *  0.0000     2          
   137  Cl    c      2.2270 *     7.7945 *    -5.5675 *  0.0000     2          
   138  Na    c      2.2270 *    -7.7945 *     5.5675 *  0.0000     2          
   139  O     c      0.0000       1.1135 *    10.0214 *  0.0000     1          
   140  O     c      0.0000      10.0214 *     1.1135 *  0.0000     1          
   141  Na    c      0.0000       1.1135 *   -10.0214 *  0.0000     1          
   142  Na    c      0.0000      10.0214 *    -1.1135 *  0.0000     1          
   143  Na    c      0.0000      -1.1135 *    10.0214 *  0.0000     1          
   144  Na    c      0.0000     -10.0214 *     1.1135 *  0.0000     1          
   145  O     c      8.9079 *    -3.3405 *    -3.3405 *  0.0000     2          
   146  Na    c      8.9079 *    -3.3405 *     3.3405 *  0.0000     2          
   147  Na    c      8.9079 *     3.3405 *    -3.3405 *  0.0000     2          
   148  Cl    c      2.2270 *    -1.1135 *   -10.0214 *  0.0000     2          
   149  Cl    c      2.2270 *   -10.0214 *    -1.1135 *  0.0000     2          
   150  Na    c      2.2270 *     1.1135 *    10.0214 *  0.0000     2          
   151  Na    c      2.2270 *    10.0214 *     1.1135 *  0.0000     2          
   152  Cl    c      6.6810 *    -5.5675 *    -5.5675 *  0.0000     2          
   153  Na    c      6.6810 *     5.5675 *     5.5675 *  0.0000     2          
   154  Cl    c      6.6810 *    -1.1135 *     7.7945 *  0.0000     2          
   155  Cl    c      6.6810 *     7.7945 *    -1.1135 *  0.0000     2          
   156  Na    c      6.6810 *     1.1135 *    -7.7945 *  0.0000     2          
   157  Na    c      6.6810 *    -7.7945 *     1.1135 *  0.0000     2          
   158  O     c      0.0000      10.0214 *    -3.3405 *  0.0000     1          
   159  O     c      0.0000      -3.3405 *    10.0214 *  0.0000     1          
   160  O     c      8.9079 *     5.5675 *     1.1135 *  0.0000     2          
   161  Na    c      0.0000      10.0214 *     3.3405 *  0.0000     1          
   162  Na    c      0.0000      -3.3405 *   -10.0214 *  0.0000     1          
   163  Na    c      8.9079 *     5.5675 *    -1.1135 *  0.0000     2          
   164  Na    c      0.0000       3.3405 *    10.0214 *  0.0000     1          
   165  Na    c      0.0000     -10.0214 *    -3.3405 *  0.0000     1          
   166  Na    c      8.9079 *    -5.5675 *     1.1135 *  0.0000     2          
   167  O     c      4.4540 *    -7.7945 *     5.5675 *  0.0000     2          
   168  O     c      8.9079 *     1.1135 *     5.5675 *  0.0000     2          
   169  O     c     -4.4540 *     5.5675 *    -7.7945 *  0.0000     2          
   170  Na    c      4.4540 *    -7.7945 *    -5.5675 *  0.0000     2          
   171  Na    c      8.9079 *     1.1135 *    -5.5675 *  0.0000     2          
   172  Na    c     -4.4540 *     5.5675 *     7.7945 *  0.0000     2          
   173  Na    c      4.4540 *     7.7945 *     5.5675 *  0.0000     2          
   174  Na    c      8.9079 *    -1.1135 *     5.5675 *  0.0000     2          
   175  Na    c     -4.4540 *    -5.5675 *    -7.7945 *  0.0000     2          
   176  Cl    c      2.2270 *     3.3405 *   -10.0214 *  0.0000     2          
   177  Na    c      2.2270 *    -3.3405 *    10.0214 *  0.0000     2          
   178  Cl    c      2.2270 *   -10.0214 *     3.3405 *  0.0000     2          
   179  Na    c      2.2270 *    10.0214 *    -3.3405 *  0.0000     2          
   180  Cl    c      6.6810 *     3.3405 *     7.7945 *  0.0000     2          
   181  Na    c      6.6810 *    -3.3405 *    -7.7945 *  0.0000     2          
   182  Cl    c      6.6810 *     7.7945 *     3.3405 *  0.0000     2          
   183  Na    c      6.6810 *    -7.7945 *    -3.3405 *  0.0000     2          
   184  O     c      4.4540 *    10.0214 *     1.1135 *  0.0000     2          
   185  O     c     -4.4540 *     1.1135 *    10.0214 *  0.0000     2          
   186  Na    c      4.4540 *    10.0214 *    -1.1135 *  0.0000     2          
   187  Na    c     -4.4540 *     1.1135 *   -10.0214 *  0.0000     2          
   188  Na    c      4.4540 *   -10.0214 *     1.1135 *  0.0000     2          
   189  Na    c     -4.4540 *    -1.1135 *    10.0214 *  0.0000     2          
   190  O     c      8.9079 *     5.5675 *    -3.3405 *  0.0000     2          
   191  Na    c      8.9079 *     5.5675 *     3.3405 *  0.0000     2          
   192  Na    c      8.9079 *    -5.5675 *    -3.3405 *  0.0000     2          
   193  O     c      0.0000      -7.7945 *    -7.7945 *  0.0000     1          
   194  O     c      8.9079 *    -3.3405 *     5.5675 *  0.0000     2          
   195  Na    c      0.0000      -7.7945 *     7.7945 *  0.0000     1          
   196  Na    c      8.9079 *    -3.3405 *    -5.5675 *  0.0000     2          
   197  Na    c      0.0000       7.7945 *    -7.7945 *  0.0000     1          
   198  Na    c      8.9079 *     3.3405 *     5.5675 *  0.0000     2          
   199  Cl    c     11.1349 *    -1.1135 *    -1.1135 *  0.0000     2          
   200  Na    c     11.1349 *     1.1135 *     1.1135 *  0.0000     2          
   201  Cl    c      2.2270 *     7.7945 *     7.7945 *  0.0000     2          
   202  Na    c      2.2270 *    -7.7945 *    -7.7945 *  0.0000     2          
   203  O     c      0.0000       5.5675 *    10.0214 *  0.0000     1          
   204  O     c      0.0000      10.0214 *     5.5675 *  0.0000     1          
   205  O     c      4.4540 *    10.0214 *    -3.3405 *  0.0000     2          
   206  O     c      4.4540 *    -3.3405 *    10.0214 *  0.0000     2          
   207  Na    c      0.0000       5.5675 *   -10.0214 *  0.0000     1          
   208  Na    c      0.0000      10.0214 *    -5.5675 *  0.0000     1          
   209  Na    c      4.4540 *    10.0214 *     3.3405 *  0.0000     2          
   210  Na    c      4.4540 *    -3.3405 *   -10.0214 *  0.0000     2          
   211  Na    c      0.0000      -5.5675 *    10.0214 *  0.0000     1          
   212  Na    c      0.0000     -10.0214 *     5.5675 *  0.0000     1          
   213  Na    c      4.4540 *     3.3405 *    10.0214 *  0.0000     2          
   214  Na    c      4.4540 *   -10.0214 *    -3.3405 *  0.0000     2          
   215  Cl    c      2.2270 *    -5.5675 *   -10.0214 *  0.0000     2          
   216  Cl    c      2.2270 *   -10.0214 *    -5.5675 *  0.0000     2          
   217  Cl    c      6.6810 *    -5.5675 *     7.7945 *  0.0000     2          
   218  Cl    c     11.1349 *    -1.1135 *     3.3405 *  0.0000     2          
   219  Cl    c     11.1349 *     3.3405 *    -1.1135 *  0.0000     2          
   220  Na    c      2.2270 *     5.5675 *    10.0214 *  0.0000     2          
   221  Na    c      2.2270 *    10.0214 *     5.5675 *  0.0000     2          
   222  Na    c      6.6810 *     5.5675 *    -7.7945 *  0.0000     2          
   223  Na    c     11.1349 *     1.1135 *    -3.3405 *  0.0000     2          
   224  Na    c     11.1349 *    -3.3405 *     1.1135 *  0.0000     2          
   225  Cl    c      6.6810 *     7.7945 *    -5.5675 *  0.0000     2          
   226  Na    c      6.6810 *    -7.7945 *     5.5675 *  0.0000     2          
   227  O     c      8.9079 *     1.1135 *    -7.7945 *  0.0000     2          
   228  O     c      8.9079 *     5.5675 *     5.5675 *  0.0000     2          
   229  O     c      8.9079 *    -7.7945 *     1.1135 *  0.0000     2          
   230  Na    c      8.9079 *     1.1135 *     7.7945 *  0.0000     2          
   231  Na    c      8.9079 *     5.5675 *    -5.5675 *  0.0000     2          
   232  Na    c      8.9079 *    -7.7945 *    -1.1135 *  0.0000     2          
   233  Na    c      8.9079 *    -1.1135 *    -7.7945 *  0.0000     2          
   234  Na    c      8.9079 *     7.7945 *     1.1135 *  0.0000     2          
   235  Na    c      8.9079 *    -5.5675 *     5.5675 *  0.0000     2          
   236  O     c      4.4540 *    -7.7945 *    -7.7945 *  0.0000     2          
   237  Na    c      4.4540 *    -7.7945 *     7.7945 *  0.0000     2          
   238  Na    c      4.4540 *     7.7945 *    -7.7945 *  0.0000     2          
   239  O     s      0.0000       1.1135 *     1.1135 *  0.0000     1          
   240  Cl    s      2.2270 *    -1.1135 *    -1.1135 *  0.0000     2          
   241  O     s      0.0000       1.1135 *    -3.3405 *  0.0000     1          
   242  O     s      0.0000      -3.3405 *     1.1135 *  0.0000     1          
   243  Cl    s      2.2270 *    -1.1135 *     3.3405 *  0.0000     2          
   244  Cl    s      2.2270 *     3.3405 *    -1.1135 *  0.0000     2          
   245  O     s     -4.4540 *     1.1135 *     1.1135 *  0.0000     2          
   246  O     s      0.0000      -3.3405 *    -3.3405 *  0.0000     1          
   247  Cl    s      2.2270 *     3.3405 *     3.3405 *  0.0000     2          
   248  O     s      0.0000       1.1135 *     5.5675 *  0.0000     1          
   249  O     s      0.0000       5.5675 *     1.1135 *  0.0000     1          
   250  O     s     -4.4540 *     1.1135 *    -3.3405 *  0.0000     2          
   251  O     s     -4.4540 *    -3.3405 *     1.1135 *  0.0000     2          
   252  Cl    s      2.2270 *    -1.1135 *    -5.5675 *  0.0000     2          
   253  Cl    s      2.2270 *    -5.5675 *    -1.1135 *  0.0000     2          
   254  O     s      0.0000       5.5675 *    -3.3405 *  0.0000     1          
   255  O     s      0.0000      -3.3405 *     5.5675 *  0.0000     1          
   256  O     s     -4.4540 *    -3.3405 *    -3.3405 *  0.0000     2          
   257  Cl    s      2.2270 *     3.3405 *    -5.5675 *  0.0000     2          
   258  Cl    s      2.2270 *    -5.5675 *     3.3405 *  0.0000     2          
   259  Cl    s      6.6810 *    -1.1135 *    -1.1135 *  0.0000     2          
   260  O     s     -4.4540 *     5.5675 *     1.1135 *  0.0000     2          
   261  O     s      4.4540 *     1.1135 *     5.5675 *  0.0000     2          
   262  Cl    s      6.6810 *    -1.1135 *     3.3405 *  0.0000     2          
   263  Cl    s      6.6810 *     3.3405 *    -1.1135 *  0.0000     2          
   264  O     s      0.0000       5.5675 *     5.5675 *  0.0000     1          
   265  O     s     -4.4540 *     5.5675 *    -3.3405 *  0.0000     2          
   266  O     s     -4.4540 *    -3.3405 *     5.5675 *  0.0000     2          
   267  O     s      0.0000       1.1135 *    -7.7945 *  0.0000     1          
   268  O     s      0.0000      -7.7945 *     1.1135 *  0.0000     1          
   269  Cl    s      2.2270 *    -5.5675 *    -5.5675 *  0.0000     2          
   270  Cl    s      2.2270 *    -1.1135 *     7.7945 *  0.0000     2          
   271  Cl    s      2.2270 *     7.7945 *    -1.1135 *  0.0000     2          
   272  Cl    s      6.6810 *     3.3405 *     3.3405 *  0.0000     2          
   273  O     s      0.0000      -3.3405 *    -7.7945 *  0.0000     1          
   274  O     s      0.0000      -7.7945 *    -3.3405 *  0.0000     1          
   275  Cl    s      2.2270 *     3.3405 *     7.7945 *  0.0000     2          
   276  Cl    s      6.6810 *    -1.1135 *    -5.5675 *  0.0000     2          
   277  Cl    s      6.6810 *    -5.5675 *    -1.1135 *  0.0000     2          
   278  Cl    s      2.2270 *     7.7945 *     3.3405 *  0.0000     2          
   279  O     s      8.9079 *     1.1135 *     1.1135 *  0.0000     2          
   280  O     s      4.4540 *     5.5675 *     5.5675 *  0.0000     2          
   281  O     s      4.4540 *    -7.7945 *     1.1135 *  0.0000     2          
   282  O     s     -4.4540 *     1.1135 *    -7.7945 *  0.0000     2          
   283  Cl    s      6.6810 *     3.3405 *    -5.5675 *  0.0000     2          
   284  Cl    s      6.6810 *    -5.5675 *     3.3405 *  0.0000     2          
   285  O     s      8.9079 *     1.1135 *    -3.3405 *  0.0000     2          
   286  O     s      8.9079 *    -3.3405 *     1.1135 *  0.0000     2          
   287  O     s      0.0000       5.5675 *    -7.7945 *  0.0000     1          
   288  O     s      0.0000      -7.7945 *     5.5675 *  0.0000     1          
   289  O     s      4.4540 *    -3.3405 *    -7.7945 *  0.0000     2          
   290  O     s      4.4540 *    -7.7945 *    -3.3405 *  0.0000     2          
   291  Cl    s      2.2270 *    -5.5675 *     7.7945 *  0.0000     2          
   292  Cl    s      2.2270 *     7.7945 *    -5.5675 *  0.0000     2          
   293  O     s      0.0000       1.1135 *    10.0214 *  0.0000     1          
   294  O     s      0.0000      10.0214 *     1.1135 *  0.0000     1          
   295  O     s      8.9079 *    -3.3405 *    -3.3405 *  0.0000     2          
   296  Cl    s      2.2270 *    -1.1135 *   -10.0214 *  0.0000     2          
   297  Cl    s      2.2270 *   -10.0214 *    -1.1135 *  0.0000     2          
   298  Cl    s      6.6810 *    -5.5675 *    -5.5675 *  0.0000     2          
   299  Cl    s      6.6810 *    -1.1135 *     7.7945 *  0.0000     2          
   300  Cl    s      6.6810 *     7.7945 *    -1.1135 *  0.0000     2          
   301  O     s      0.0000      10.0214 *    -3.3405 *  0.0000     1          
   302  O     s      0.0000      -3.3405 *    10.0214 *  0.0000     1          
   303  O     s      8.9079 *     5.5675 *     1.1135 *  0.0000     2          
   304  O     s      4.4540 *    -7.7945 *     5.5675 *  0.0000     2          
   305  O     s      8.9079 *     1.1135 *     5.5675 *  0.0000     2          
   306  O     s     -4.4540 *     5.5675 *    -7.7945 *  0.0000     2          
   307  Cl    s      2.2270 *     3.3405 *   -10.0214 *  0.0000     2          
   308  Cl    s      2.2270 *   -10.0214 *     3.3405 *  0.0000     2          
   309  Cl    s      6.6810 *     3.3405 *     7.7945 *  0.0000     2          
   310  Cl    s      6.6810 *     7.7945 *     3.3405 *  0.0000     2          
   311  O     s      4.4540 *    10.0214 *     1.1135 *  0.0000     2          
   312  O     s     -4.4540 *     1.1135 *    10.0214 *  0.0000     2          
   313  O     s      8.9079 *     5.5675 *    -3.3405 *  0.0000     2          
   314  O     s      0.0000      -7.7945 *    -7.7945 *  0.0000     1          
   315  O     s      8.9079 *    -3.3405 *     5.5675 *  0.0000     2          
   316  Cl    s     11.1349 *    -1.1135 *    -1.1135 *  0.0000     2          
   317  Cl    s      2.2270 *     7.7945 *     7.7945 *  0.0000     2          
   318  O     s      0.0000       5.5675 *    10.0214 *  0.0000     1          
   319  O     s      0.0000      10.0214 *     5.5675 *  0.0000     1          
   320  O     s      4.4540 *    10.0214 *    -3.3405 *  0.0000     2          
   321  O     s      4.4540 *    -3.3405 *    10.0214 *  0.0000     2          
   322  Cl    s      2.2270 *    -5.5675 *   -10.0214 *  0.0000     2          
   323  Cl    s      2.2270 *   -10.0214 *    -5.5675 *  0.0000     2          
   324  Cl    s      6.6810 *    -5.5675 *     7.7945 *  0.0000     2          
   325  Cl    s     11.1349 *    -1.1135 *     3.3405 *  0.0000     2          
   326  Cl    s     11.1349 *     3.3405 *    -1.1135 *  0.0000     2          
   327  Cl    s      6.6810 *     7.7945 *    -5.5675 *  0.0000     2          
   328  O     s      8.9079 *     1.1135 *    -7.7945 *  0.0000     2          
   329  O     s      8.9079 *     5.5675 *     5.5675 *  0.0000     2          
   330  O     s      8.9079 *    -7.7945 *     1.1135 *  0.0000     2          
   331  O     s      4.4540 *    -7.7945 *    -7.7945 *  0.0000     2          
--------------------------------------------------------------------------------

  Components of defect energy : 

--------------------------------------------------------------------------------
  Region 1 - region 1                   =      9.63048809 eV
  Region 1 - region 2a (unrelaxed)      =     -0.02478383 eV
  Region 1 - 2a (relaxed - correction)  =     -0.30209276 eV
  Region 1 (Total)                      =      9.30361150 eV
  Region 2a                             =      0.15096593 eV
  Region 2b                             =     -0.42941954 eV
--------------------------------------------------------------------------------
  Total defect energy                   =      9.02515789 eV
--------------------------------------------------------------------------------

  Largest displacement in region 2 =   0.0195 Angstroms


  Number of variables =      904

  Maximum number of calculations  =        1000
  Maximum Hessian update interval =          10
  Maximum step size               =   1.0000000
  Maximum parameter tolerance     =   0.0000100
  Maximum function  tolerance     =   0.0000100
  Maximum gradient  tolerance     =   0.0010000

  Symmetry adapted optimisation

  Symmetry to be used for second derivatives

  Newton-Raphson optimiser to be used

  BFGS hessian update to be used

  Lower half triangular hessian to be used

  Start of defect optimisation :

  Cycle:      0 Defect Energy:   9.025158  Gnorm:     0.021220  CPU:    6.254
  ** Hessian calculated **
  Cycle:      1 Defect Energy:   7.971668  Gnorm:     0.017849  CPU:   13.870
  ** Hessian calculated **
  Cycle:      2 Defect Energy:   6.387534  Gnorm:     0.007418  CPU:   19.315
  Cycle:      3 Defect Energy:   5.805573  Gnorm:     0.005269  CPU:   22.851
  Cycle:      4 Defect Energy:   5.446259  Gnorm:     0.004317  CPU:   27.064
  Cycle:      5 Defect Energy:   5.270727  Gnorm:     0.002637  CPU:   28.000
  Cycle:      6 Defect Energy:   5.138908  Gnorm:     0.001840  CPU:   28.921
  Cycle:      7 Defect Energy:   5.035022  Gnorm:     0.001372  CPU:   29.915
  Cycle:      8 Defect Energy:   4.964744  Gnorm:     0.001116  CPU:   30.811
  Cycle:      9 Defect Energy:   4.908482  Gnorm:     0.001034  CPU:   31.830
  Cycle:     10 Defect Energy:   4.865859  Gnorm:     0.001064  CPU:   32.819
  Cycle:     11 Defect Energy:   4.826232  Gnorm:     0.001099  CPU:   33.712
  ** Hessian calculated **
  Cycle:     12 Defect Energy:   4.812934  Gnorm:     0.000767  CPU:   38.862
  Cycle:     13 Defect Energy:   4.796427  Gnorm:     0.000699  CPU:   41.429
  Cycle:     14 Defect Energy:   4.775062  Gnorm:     0.000707  CPU:   42.549
  Cycle:     15 Defect Energy:   4.745108  Gnorm:     0.000679  CPU:   43.664
  Cycle:     16 Defect Energy:   4.708163  Gnorm:     0.000659  CPU:   44.732
  Cycle:     17 Defect Energy:   4.665779  Gnorm:     0.000968  CPU:   45.850
  Cycle:     18 Defect Energy:   4.636755  Gnorm:     0.000733  CPU:   47.140
  Cycle:     19 Defect Energy:   4.625636  Gnorm:     0.000674  CPU:   48.211
  Cycle:     20 Defect Energy:   4.613370  Gnorm:     0.000617  CPU:   49.252
  Cycle:     21 Defect Energy:   4.601357  Gnorm:     0.000582  CPU:   50.278
  ** Hessian calculated **
  Cycle:     22 Defect Energy:   4.594644  Gnorm:     0.000548  CPU:   53.145
  Cycle:     23 Defect Energy:   4.581476  Gnorm:     0.000456  CPU:   54.218
  Cycle:     24 Defect Energy:   4.572845  Gnorm:     0.000437  CPU:   55.278
  Cycle:     25 Defect Energy:   4.565991  Gnorm:     0.000402  CPU:   56.458
  Cycle:     26 Defect Energy:   4.566389  Gnorm:     0.000396  CPU:   57.384
  Cycle:     27 Defect Energy:   4.566470  Gnorm:     0.000421  CPU:   58.310
  ** Hessian calculated **
  Cycle:     28 Defect Energy:   4.564990  Gnorm:     0.000235  CPU:   60.909
  Cycle:     29 Defect Energy:   4.563780  Gnorm:     0.000191  CPU:   62.034
  Cycle:     30 Defect Energy:   4.562979  Gnorm:     0.000135  CPU:   62.983
  Cycle:     31 Defect Energy:   4.562284  Gnorm:     0.000125  CPU:   63.873
  Cycle:     32 Defect Energy:   4.561738  Gnorm:     0.000130  CPU:   64.788
  Cycle:     33 Defect Energy:   4.561228  Gnorm:     0.000123  CPU:   65.804
  Cycle:     34 Defect Energy:   4.560886  Gnorm:     0.000124  CPU:   66.731
  Cycle:     35 Defect Energy:   4.560518  Gnorm:     0.000113  CPU:   67.620
  Cycle:     36 Defect Energy:   4.560287  Gnorm:     0.000101  CPU:   68.492
  Cycle:     37 Defect Energy:   4.560007  Gnorm:     0.000089  CPU:   69.362
  ** Hessian calculated **
  Cycle:     38 Defect Energy:   4.559944  Gnorm:     0.000076  CPU:   71.535
  Cycle:     39 Defect Energy:   4.559824  Gnorm:     0.000066  CPU:   74.940
  Cycle:     40 Defect Energy:   4.559693  Gnorm:     0.000064  CPU:   77.215
  Cycle:     41 Defect Energy:   4.559482  Gnorm:     0.000054  CPU:   78.442
  Cycle:     42 Defect Energy:   4.559304  Gnorm:     0.000054  CPU:   79.564
  Cycle:     43 Defect Energy:   4.559039  Gnorm:     0.000077  CPU:   80.665
  Cycle:     44 Defect Energy:   4.558856  Gnorm:     0.000074  CPU:   81.826
  Cycle:     45 Defect Energy:   4.558657  Gnorm:     0.000095  CPU:   82.933
  Cycle:     46 Defect Energy:   4.558425  Gnorm:     0.000110  CPU:   83.980
  Cycle:     47 Defect Energy:   4.557938  Gnorm:     0.000143  CPU:   85.049
  ** Hessian calculated **
  Cycle:     48 Defect Energy:   4.557667  Gnorm:     0.000121  CPU:   87.922
  Cycle:     49 Defect Energy:   4.557279  Gnorm:     0.000107  CPU:   88.912
  Cycle:     50 Defect Energy:   4.556802  Gnorm:     0.000095  CPU:   89.911
  Cycle:     51 Defect Energy:   4.556228  Gnorm:     0.000084  CPU:   90.959
  Cycle:     52 Defect Energy:   4.555480  Gnorm:     0.000066  CPU:   92.054
  Cycle:     53 Defect Energy:   4.554737  Gnorm:     0.000104  CPU:   92.993
  Cycle:     54 Defect Energy:   4.553737  Gnorm:     0.000154  CPU:   93.944
  Cycle:     55 Defect Energy:   4.552536  Gnorm:     0.000192  CPU:   94.874
  Cycle:     56 Defect Energy:   4.550571  Gnorm:     0.000281  CPU:   95.808
  Cycle:     57 Defect Energy:   4.547586  Gnorm:     0.000397  CPU:   96.819
  ** Hessian calculated **
  Cycle:     58 Defect Energy:   4.545045  Gnorm:     0.000362  CPU:   99.287
  Cycle:     59 Defect Energy:   4.541742  Gnorm:     0.000334  CPU:  100.223
  Cycle:     60 Defect Energy:   4.537153  Gnorm:     0.000274  CPU:  101.154
  Cycle:     61 Defect Energy:   4.531336  Gnorm:     0.000253  CPU:  102.204
  Cycle:     62 Defect Energy:   4.524289  Gnorm:     0.000223  CPU:  103.066
  Cycle:     63 Defect Energy:   4.515203  Gnorm:     0.000270  CPU:  103.952
  Cycle:     64 Defect Energy:   4.505986  Gnorm:     0.000466  CPU:  104.826
  Cycle:     65 Defect Energy:   4.496006  Gnorm:     0.000564  CPU:  105.736
  Cycle:     66 Defect Energy:   4.488929  Gnorm:     0.000636  CPU:  106.734
  Cycle:     67 Defect Energy:   4.477133  Gnorm:     0.000806  CPU:  108.703
  ** Hessian calculated **
  Cycle:     68 Defect Energy:   4.465457  Gnorm:     0.000776  CPU:  113.980
  Cycle:     69 Defect Energy:   4.457632  Gnorm:     0.000757  CPU:  115.112
  ** Hessian calculated **
  Cycle:     70 Defect Energy:   4.450485  Gnorm:     0.000592  CPU:  118.131
  Cycle:     71 Defect Energy:   4.440758  Gnorm:     0.000504  CPU:  119.167
  Cycle:     72 Defect Energy:   4.428938  Gnorm:     0.000448  CPU:  120.202
  Cycle:     73 Defect Energy:   4.414835  Gnorm:     0.000418  CPU:  121.274
  Cycle:     74 Defect Energy:   4.402789  Gnorm:     0.000372  CPU:  122.390
  Cycle:     75 Defect Energy:   4.393660  Gnorm:     0.000434  CPU:  123.433
  Cycle:     76 Defect Energy:   4.384918  Gnorm:     0.000408  CPU:  124.443
  Cycle:     77 Defect Energy:   4.375123  Gnorm:     0.000470  CPU:  125.436
  Cycle:     78 Defect Energy:   4.360781  Gnorm:     0.000606  CPU:  126.502
  Cycle:     79 Defect Energy:   4.341071  Gnorm:     0.000760  CPU:  127.563
  ** Hessian calculated **
  Cycle:     80 Defect Energy:   4.332359  Gnorm:     0.000653  CPU:  130.128
  Cycle:     81 Defect Energy:   4.320744  Gnorm:     0.000575  CPU:  131.094
  Cycle:     82 Defect Energy:   4.305795  Gnorm:     0.000518  CPU:  132.165
  Cycle:     83 Defect Energy:   4.287491  Gnorm:     0.000509  CPU:  133.127
  Cycle:     84 Defect Energy:   4.266712  Gnorm:     0.000436  CPU:  134.101
  Cycle:     85 Defect Energy:   4.254772  Gnorm:     0.000457  CPU:  135.091
  Cycle:     86 Defect Energy:   4.244608  Gnorm:     0.000432  CPU:  136.034
  Cycle:     87 Defect Energy:   4.236383  Gnorm:     0.000475  CPU:  137.125
  Cycle:     88 Defect Energy:   4.224854  Gnorm:     0.000541  CPU:  138.011
  Cycle:     89 Defect Energy:   4.213715  Gnorm:     0.000572  CPU:  138.902
  ** Hessian calculated **
  Cycle:     90 Defect Energy:   4.195348  Gnorm:     0.000530  CPU:  141.344
  Cycle:     91 Defect Energy:   4.168479  Gnorm:     0.000455  CPU:  142.081
  Cycle:     92 Defect Energy:   4.143865  Gnorm:     0.000283  CPU:  145.191
  Cycle:     93 Defect Energy:   4.134927  Gnorm:     0.000217  CPU:  147.483
  Cycle:     94 Defect Energy:   4.131683  Gnorm:     0.000131  CPU:  148.586
  Cycle:     95 Defect Energy:   4.130627  Gnorm:     0.000076  CPU:  149.744
  Cycle:     96 Defect Energy:   4.130211  Gnorm:     0.000077  CPU:  150.896
  Cycle:     97 Defect Energy:   4.129840  Gnorm:     0.000035  CPU:  152.117
  Cycle:     98 Defect Energy:   4.129607  Gnorm:     0.000037  CPU:  153.181
  Cycle:     99 Defect Energy:   4.129449  Gnorm:     0.000033  CPU:  154.271
  ** Hessian calculated **
  Cycle:    100 Defect Energy:   4.129327  Gnorm:     0.000024  CPU:  157.161
  Cycle:    101 Defect Energy:   4.129275  Gnorm:     0.000018  CPU:  158.244
  Cycle:    102 Defect Energy:   4.129256  Gnorm:     0.000013  CPU:  159.280


  **** Optimisation achieved ****


  Final defect energy  =        4.12925208
  Final defect Gnorm   =        0.00000936

  Components of defect energy : 

--------------------------------------------------------------------------------
  Region 1 - region 1                   =      6.54592929 eV
  Region 1 - region 2a (unrelaxed)      =     -1.86811650 eV
  Region 1 - 2a (relaxed - correction)  =     -0.23728630 eV
  Region 1 (Total)                      =      4.44052648 eV
  Region 2a                             =      0.11838622 eV
  Region 2b                             =     -0.42966062 eV
--------------------------------------------------------------------------------
  Total defect energy                   =      4.12925208 eV
--------------------------------------------------------------------------------

  Largest displacement in region 2 =   0.0195 Angstroms

  Final coordinates of region 1 :

--------------------------------------------------------------------------------
   No.  Atomic        x           y           z          Radius      Charge
        Label       (Angs)      (Angs)      (Angs)       (Angs)       (e) 
--------------------------------------------------------------------------------
     1  Na    c     2.226987    0.979874    1.247113    0.000000    1.000000
     2  O     c     2.226987    2.685096    2.516618    0.000000    1.443000
     3  Cl    c     4.454366   -0.110754   -0.070201    0.000000    0.996000
     4  Cl    c    -0.000392   -0.110754   -0.070201    0.000000    0.996000
     5  Na    c     4.434819    2.655959    2.365063    0.000000    1.000000
     6  Na    c     0.019155    2.655959    2.365063    0.000000    1.000000
     7  O     c     2.226987    2.239165   -2.087812    0.000000    1.443000
     8  O     c     2.226987   -2.067503    2.215906    0.000000    1.443000
     9  Na    c     2.226987    1.939361    4.515580    0.000000    1.000000
    10  Na    c     2.226987   -2.407620    0.033621    0.000000    1.000000
    11  Na    c     2.226987    0.045503   -2.162118    0.000000    1.000000
    12  Na    c     2.226987    4.537404    1.435448    0.000000    1.000000
    13  Cl    c     4.497438    0.043929    4.624057    0.000000    0.996000
    14  Cl    c    -0.043465    0.043929    4.624057    0.000000    0.996000
    15  Cl    c     4.589505    4.558415   -0.056269    0.000000    0.996000
    16  Cl    c    -0.135531    4.558415   -0.056269    0.000000    0.996000
    17  Na    c     4.393351    2.206416   -1.880130    0.000000    1.000000
    18  Na    c     0.060623    2.206416   -1.880130    0.000000    1.000000
    19  Na    c     4.408331   -2.200301    2.216221    0.000000    1.000000
    20  Na    c     0.045643   -2.200301    2.216221    0.000000    1.000000
    21  O     c    -2.203929    2.263756    2.239108    0.000000    1.443000
    22  O     c     6.657902    2.263756    2.239108    0.000000    1.443000
    23  Na    c    -2.030289    0.055185    1.851424    0.000000    1.000000
    24  Na    c     6.484263    0.055185    1.851424    0.000000    1.000000
    25  O     c     2.226987   -2.214054   -2.216707    0.000000    1.443000
    26  Na    c     2.226987   -1.719446    4.386660    0.000000    1.000000
    27  Na    c    -2.342600    2.661866    0.023032    0.000000    1.000000
    28  Na    c     6.796574    2.661866    0.023032    0.000000    1.000000
    29  Na    c     2.226987    4.423142   -1.939911    0.000000    1.000000
    30  Cl    c     4.670269    4.565595    4.505511    0.000000    0.996000
    31  Cl    c    -0.216295    4.565595    4.505511    0.000000    0.996000
    32  Na    c     4.455751   -2.183730   -2.224739    0.000000    1.000000
    33  Na    c    -0.001777   -2.183730   -2.224739    0.000000    1.000000
    34  O     c     2.226987    2.221830    6.727927    0.000000    1.443000
    35  O     c     2.226987    6.689445    2.176561    0.000000    1.443000
    36  O     c    -2.189065    2.231921   -2.193307    0.000000    1.443000
    37  O     c     6.643038    2.231921   -2.193307    0.000000    1.443000
    38  O     c    -2.205198   -2.174302    2.227950    0.000000    1.443000
    39  O     c     6.659172   -2.174302    2.227950    0.000000    1.443000
    40  Na    c     2.226987    2.325123   -4.322808    0.000000    1.000000
    41  Na    c     2.226987    7.253656   -0.001442    0.000000    1.000000
    42  Na    c    -2.195123    1.901741    4.466807    0.000000    1.000000
    43  Na    c     6.649096    1.901741    4.466807    0.000000    1.000000
    44  Na    c    -2.187919   -2.592539    0.007240    0.000000    1.000000
    45  Na    c     6.641893   -2.592539    0.007240    0.000000    1.000000
    46  Na    c     2.226987   -0.017222    6.996569    0.000000    1.000000
    47  Na    c     2.226987   -4.313815    2.559036    0.000000    1.000000
    48  Na    c    -2.255662    0.013811   -1.826191    0.000000    1.000000
    49  Na    c     6.709636    0.013811   -1.826191    0.000000    1.000000
    50  Na    c    -2.439230    4.484356    2.608499    0.000000    1.000000
    51  Na    c     6.893203    4.484356    2.608499    0.000000    1.000000
    52  Cl    c     4.423754   -0.065982   -4.507938    0.000000    0.996000
    53  Cl    c     0.030220   -0.065982   -4.507938    0.000000    0.996000
    54  Cl    c     4.458058   -4.465539   -0.037813    0.000000    0.996000
    55  Cl    c    -0.004084   -4.465539   -0.037813    0.000000    0.996000
    56  Na    c     4.466072    2.257427    6.719592    0.000000    1.000000
    57  Na    c    -0.012099    2.257427    6.719592    0.000000    1.000000
    58  Na    c     4.470015    6.604739    2.179379    0.000000    1.000000
    59  Na    c    -0.016041    6.604739    2.179379    0.000000    1.000000
    60  O     c     2.226987    6.683373   -2.182807    0.000000    1.443000
    61  O     c     2.226987   -2.227487    6.625371    0.000000    1.443000
    62  O     c    -2.238964   -2.210385   -2.219933    0.000000    1.443000
    63  O     c     6.692937   -2.210385   -2.219933    0.000000    1.443000
    64  Na    c     2.226987    6.012138    4.345182    0.000000    1.000000
    65  Na    c     2.226987   -2.057809   -4.443296    0.000000    1.000000
    66  Na    c    -2.230152   -1.824398    4.450101    0.000000    1.000000
    67  Na    c     6.684126   -1.824398    4.450101    0.000000    1.000000
    68  Na    c     2.226987    4.432638    6.967316    0.000000    1.000000
    69  Na    c     2.226987   -4.426342   -2.476696    0.000000    1.000000
    70  Na    c    -2.127437    4.447036   -2.589202    0.000000    1.000000
    71  Na    c     6.581411    4.447036   -2.589202    0.000000    1.000000
    72  Cl    c     4.465985    4.529586   -4.515700    0.000000    0.996000
    73  Cl    c    -0.012011    4.529586   -4.515700    0.000000    0.996000
    74  Cl    c     4.512940   -4.484159    4.475194    0.000000    0.996000
    75  Cl    c    -0.058967   -4.484159    4.475194    0.000000    0.996000
    76  Na    c     4.458698    6.702027   -2.144648    0.000000    1.000000
    77  Na    c    -0.004724    6.702027   -2.144648    0.000000    1.000000
    78  Na    c     4.453134   -2.227374    6.611981    0.000000    1.000000
    79  Na    c     0.000840   -2.227374    6.611981    0.000000    1.000000
    80  Cl    c     8.917353    0.038547    0.032211    0.000000    0.996000
    81  Cl    c    -4.463379    0.038547    0.032211    0.000000    0.996000
    82  Na    c     8.894515    2.043418    2.282731    0.000000    1.000000
    83  Na    c    -4.440541    2.043418    2.282731    0.000000    1.000000
    84  O     c    -2.249198    6.698356    2.218730    0.000000    1.443000
    85  O     c     6.703172    6.698356    2.218730    0.000000    1.443000
    86  Na    c    -2.314604    6.383128   -0.003381    0.000000    1.000000
    87  Na    c     6.768577    6.383128   -0.003381    0.000000    1.000000
    88  Na    c    -2.318077   -4.396137    2.596275    0.000000    1.000000
    89  Na    c     6.772051   -4.396137    2.596275    0.000000    1.000000
    90  O     c     6.700566    2.236269    6.692232    0.000000    1.443000
    91  O     c    -2.246592    2.236269    6.692232    0.000000    1.443000
    92  Na    c     6.486859    1.887639   -4.411284    0.000000    1.000000
    93  Na    c    -2.032886    1.887639   -4.411284    0.000000    1.000000
    94  Na    c     6.587994    0.015258    7.036119    0.000000    1.000000
    95  Na    c    -2.134020    0.015258    7.036119    0.000000    1.000000
    96  Cl    c     8.935492    0.019302    4.462650    0.000000    0.996000
    97  Cl    c    -4.481518    0.019302    4.462650    0.000000    0.996000
    98  Cl    c     8.954260    4.517638    0.031331    0.000000    0.996000
    99  Cl    c    -4.500286    4.517638    0.031331    0.000000    0.996000
   100  Na    c     8.876034    2.259632   -2.359052    0.000000    1.000000
   101  Na    c    -4.422061    2.259632   -2.359052    0.000000    1.000000
   102  Na    c     8.886591   -2.008925    2.164211    0.000000    1.000000
   103  Na    c    -4.432617   -2.008925    2.164211    0.000000    1.000000
   104  O     c     2.226987    6.632497    6.577468    0.000000    1.443000
   105  O     c    -2.239021    6.675780   -2.231133    0.000000    1.443000
   106  O     c     6.692995    6.675780   -2.231133    0.000000    1.443000
   107  O     c    -2.232762   -2.207505    6.669980    0.000000    1.443000
   108  O     c     6.686736   -2.207505    6.669980    0.000000    1.443000
   109  Na    c     2.226987    6.406006   -4.422060    0.000000    1.000000
   110  Na    c    -2.173679    6.985422    4.443066    0.000000    1.000000
   111  Na    c     6.627652    6.985422    4.443066    0.000000    1.000000
   112  Na    c    -2.240370   -1.851291   -4.438534    0.000000    1.000000
   113  Na    c     6.694344   -1.851291   -4.438534    0.000000    1.000000
   114  Na    c     2.226987   -4.435462    6.306558    0.000000    1.000000
   115  Na    c    -2.325184    4.462972    6.386345    0.000000    1.000000
   116  Na    c     6.779157    4.462972    6.386345    0.000000    1.000000
   117  Na    c    -2.242145   -4.425979   -2.591378    0.000000    1.000000
   118  Na    c     6.696119   -4.425979   -2.591378    0.000000    1.000000
   119  O     c     2.226987    2.237155   -6.629411    0.000000    1.443000
   120  O     c     2.226987   -6.610456    2.234334    0.000000    1.443000
   121  Na    c     2.226987    2.204679    8.951697    0.000000    1.000000
   122  Na    c     2.226987   -6.345475    0.017641    0.000000    1.000000
   123  Na    c     2.226987    0.011869   -6.687293    0.000000    1.000000
   124  Na    c     2.226987    8.872524    2.661095    0.000000    1.000000
   125  Cl    c     4.444036   -4.498999   -4.476189    0.000000    0.996000
   126  Cl    c     0.009937   -4.498999   -4.476189    0.000000    0.996000
   127  Na    c     4.460326    6.590127    6.623422    0.000000    1.000000
   128  Na    c    -0.006352    6.590127    6.623422    0.000000    1.000000
   129  Cl    c     4.427143    0.004846    8.969881    0.000000    0.996000
   130  Cl    c     0.026831    0.004846    8.969881    0.000000    0.996000
   131  Cl    c     4.503269    8.987947   -0.037074    0.000000    0.996000
   132  Cl    c    -0.049295    8.987947   -0.037074    0.000000    0.996000
   133  Cl    c     8.983190    4.479456    4.508776    0.000000    0.996000
   134  Cl    c    -4.529217    4.479456    4.508776    0.000000    0.996000
   135  Na    c     4.441922    2.211109   -6.721312    0.000000    1.000000
   136  Na    c     0.012052    2.211109   -6.721312    0.000000    1.000000
   137  Na    c     4.451493   -6.529263    2.257975    0.000000    1.000000
   138  Na    c     0.002481   -6.529263    2.257975    0.000000    1.000000
   139  Na    c     8.908049   -2.234234   -2.190573    0.000000    1.000000
   140  Na    c    -4.454075   -2.234234   -2.190573    0.000000    1.000000
   141  O     c     2.226987   -2.235511   -6.674747    0.000000    1.443000
   142  O     c     2.226987   -6.664995   -2.205199    0.000000    1.443000
   143  Na    c     2.226987   -2.482694    8.867605    0.000000    1.000000
   144  Na    c     2.226987   -6.960188    4.437646    0.000000    1.000000
   145  Na    c     2.226987    4.445576   -6.801625    0.000000    1.000000
   146  Na    c     2.226987    8.895994   -2.587253    0.000000    1.000000
   147  Cl    c     4.444218    4.466440    8.939445    0.000000    0.996000
   148  Cl    c     0.009756    4.466440    8.939445    0.000000    0.996000
   149  Cl    c     8.946192    0.023474   -4.460702    0.000000    0.996000
   150  Cl    c    -4.492218    0.023474   -4.460702    0.000000    0.996000
   151  Cl    c     8.935160   -4.458769    0.001899    0.000000    0.996000
   152  Cl    c    -4.481186   -4.458769    0.001899    0.000000    0.996000
   153  Na    c     4.454587   -2.172117   -6.632075    0.000000    1.000000
   154  Na    c    -0.000614   -2.172117   -6.632075    0.000000    1.000000
   155  Na    c     8.915891    2.124705    6.646511    0.000000    1.000000
   156  Na    c    -4.461918    2.124705    6.646511    0.000000    1.000000
   157  Na    c     8.921404    6.815246    2.252304    0.000000    1.000000
   158  Na    c    -4.467431    6.815246    2.252304    0.000000    1.000000
   159  Cl    c     4.487357    8.983776    4.476512    0.000000    0.996000
   160  Cl    c    -0.033383    8.983776    4.476512    0.000000    0.996000
   161  Na    c     4.453460   -6.594991   -2.227064    0.000000    1.000000
   162  Na    c     0.000514   -6.594991   -2.227064    0.000000    1.000000
   163  O     c    11.128668    2.223885    2.213542    0.000000    1.443000
   164  O     c    -6.674694    2.223885    2.213542    0.000000    1.443000
   165  Na    c    11.048308    2.599939    0.000770    0.000000    1.000000
   166  Na    c    -6.594334    2.599939    0.000770    0.000000    1.000000
   167  Na    c    11.261913    0.015351    1.845922    0.000000    1.000000
   168  Na    c    -6.807939    0.015351    1.845922    0.000000    1.000000
   169  O     c     6.694451    6.690966    6.674289    0.000000    1.443000
   170  O     c    -2.240478    6.690966    6.674289    0.000000    1.443000
   171  O     c     6.679201   -6.631311    2.218315    0.000000    1.443000
   172  O     c    -2.225227   -6.631311    2.218315    0.000000    1.443000
   173  O     c    -2.216298    2.217625   -6.638427    0.000000    1.443000
   174  O     c     6.670272    2.217625   -6.638427    0.000000    1.443000
   175  Na    c     6.618929    6.941984   -4.445206    0.000000    1.000000
   176  Na    c    -2.164956    6.941984   -4.445206    0.000000    1.000000
   177  Na    c     6.679829   -6.362648    0.001273    0.000000    1.000000
   178  Na    c    -2.225856   -6.362648    0.001273    0.000000    1.000000
   179  Na    c    -2.271857    2.536034    8.901436    0.000000    1.000000
   180  Na    c     6.725831    2.536034    8.901436    0.000000    1.000000
   181  Na    c     6.660167    8.911114    1.942484    0.000000    1.000000
   182  Na    c    -2.206194    8.911114    1.942484    0.000000    1.000000
   183  Na    c     6.725812   -4.436113    6.413829    0.000000    1.000000
   184  Na    c    -2.271838   -4.436113    6.413829    0.000000    1.000000
   185  Na    c    -2.245321    0.002142   -6.973059    0.000000    1.000000
   186  Na    c     6.699295    0.002142   -6.973059    0.000000    1.000000
   187  Cl    c     8.930046    4.470528   -4.468987    0.000000    0.996000
   188  Cl    c    -4.476073    4.470528   -4.468987    0.000000    0.996000
   189  Cl    c     8.956188   -4.473495    4.492885    0.000000    0.996000
   190  Cl    c    -4.502215   -4.473495    4.492885    0.000000    0.996000
   191  Na    c     8.909987    6.606187   -2.295101    0.000000    1.000000
   192  Na    c    -4.456014    6.606187   -2.295101    0.000000    1.000000
   193  Na    c     8.906177   -2.133707    6.700655    0.000000    1.000000
   194  Na    c    -4.452203   -2.133707    6.700655    0.000000    1.000000
   195  O     c    11.116197    2.231415   -2.209209    0.000000    1.443000
   196  O     c    -6.662223    2.231415   -2.209209    0.000000    1.443000
   197  O     c    11.122657   -2.194404    2.216647    0.000000    1.443000
   198  O     c    -6.668683   -2.194404    2.216647    0.000000    1.443000
   199  Na    c    11.192884    1.922168    4.436485    0.000000    1.000000
   200  Na    c    -6.738910    1.922168    4.436485    0.000000    1.000000
   201  Na    c    11.148992   -2.558293    0.007373    0.000000    1.000000
   202  Na    c    -6.695018   -2.558293    0.007373    0.000000    1.000000
   203  Na    c    11.117864    0.010258   -1.930862    0.000000    1.000000
   204  Na    c    -6.663890    0.010258   -1.930862    0.000000    1.000000
   205  Na    c    11.046894    4.446256    2.534123    0.000000    1.000000
   206  Na    c    -6.592920    4.446256    2.534123    0.000000    1.000000
   207  O     c     2.226987    6.673931   -6.661631    0.000000    1.443000
   208  O     c     2.226987   -6.655046    6.658233    0.000000    1.443000
   209  O     c     6.684704   -2.221469   -6.658620    0.000000    1.443000
   210  O     c    -2.230730   -2.221469   -6.658620    0.000000    1.443000
   211  O     c     6.679862   -6.651783   -2.221360    0.000000    1.443000
   212  O     c    -2.225888   -6.651783   -2.221360    0.000000    1.443000
   213  Na    c     2.226987    6.843761    8.840698    0.000000    1.000000
   214  Na    c     2.226987   -6.824207   -4.440059    0.000000    1.000000
   215  Na    c     6.681259   -2.482106    8.887894    0.000000    1.000000
   216  Na    c    -2.227285   -2.482106    8.887894    0.000000    1.000000
   217  Na    c     6.675597   -6.890498    4.438952    0.000000    1.000000
   218  Na    c    -2.221624   -6.890498    4.438952    0.000000    1.000000
   219  Na    c     2.226987    8.865650    6.389276    0.000000    1.000000
   220  Na    c     2.226987   -4.453305   -6.554508    0.000000    1.000000
   221  Na    c     6.642864    4.452909   -6.460293    0.000000    1.000000
   222  Na    c    -2.188890    4.452909   -6.460293    0.000000    1.000000
   223  Na    c     6.732209    8.898533   -2.003085    0.000000    1.000000
   224  Na    c    -2.278235    8.898533   -2.003085    0.000000    1.000000
   225  Cl    c     4.466916   -4.470381    8.950298    0.000000    0.996000
   226  Cl    c    -0.012942   -4.470381    8.950298    0.000000    0.996000
   227  Na    c     4.449694    6.661771   -6.657463    0.000000    1.000000
   228  Na    c     0.004279    6.661771   -6.657463    0.000000    1.000000
   229  Cl    c     4.456686    8.959734   -4.483655    0.000000    0.996000
   230  Cl    c    -0.002712    8.959734   -4.483655    0.000000    0.996000
   231  Na    c     4.457264   -6.648092    6.642657    0.000000    1.000000
   232  Na    c    -0.003290   -6.648092    6.642657    0.000000    1.000000
   233  O     c     2.226987    2.226492   11.157579    0.000000    1.443000
   234  O     c     2.226987   11.104436    2.240143    0.000000    1.443000
   235  Na    c     2.226987    2.186696   -8.891391    0.000000    1.000000
   236  Na    c     2.226987   10.992096    0.006012    0.000000    1.000000
   237  Na    c     2.226987   -0.017197   11.097176    0.000000    1.000000
   238  Na    c     2.226987   -8.866560    2.051647    0.000000    1.000000
   239  O     c    11.135952   -2.214649   -2.205607    0.000000    1.443000
[...]
    251 y         -2.226987     -2.173650     0.053337    Cartesian   -2.40
    251 z          2.226987      2.228218     0.001231    Cartesian    0.06
    252 x          4.453974      4.448272    -0.005702    Cartesian   -0.13
    252 y          0.000000     -0.090009    -0.090009    Cartesian    0.00
    252 z         -4.453974     -4.525262    -0.071288    Cartesian    1.60
    253 x          4.453974      4.469996     0.016022    Cartesian    0.36
    253 y         -4.453974     -4.477413    -0.023439    Cartesian    0.53
    253 z          0.000000     -0.041865    -0.041865    Cartesian    0.00
    254 x          2.226987      2.226987     0.000000    Cartesian    0.00
    254 y          6.680961      6.710241     0.029280    Cartesian    0.44
    254 z         -2.226987     -2.191265     0.035722    Cartesian   -1.60
    255 x          2.226987      2.226987     0.000000    Cartesian    0.00
    255 y         -2.226987     -2.220865     0.006122    Cartesian   -0.27
    255 z          6.680961      6.642083    -0.038878    Cartesian   -0.58
    256 x         -2.226987     -2.246774    -0.019787    Cartesian    0.89
    256 y         -2.226987     -2.215688     0.011299    Cartesian   -0.51
    256 z         -2.226987     -2.223021     0.003966    Cartesian   -0.18
    257 x          4.453974      4.487698     0.033724    Cartesian    0.76
    257 y          4.453974      4.556101     0.102127    Cartesian    2.29
    257 z         -4.453974     -4.527606    -0.073632    Cartesian    1.65
    258 x          4.453974      4.518195     0.064221    Cartesian    1.44
    258 y         -4.453974     -4.498615    -0.044641    Cartesian    1.00
    258 z          4.453974      4.479674     0.025700    Cartesian    0.58
    259 x          8.907948      8.916611     0.008664    Cartesian    0.10
    259 y          0.000000      0.033105     0.033105    Cartesian    0.00
    259 z          0.000000      0.042107     0.042107    Cartesian    0.00
    260 x         -2.226987     -2.263080    -0.036093    Cartesian    1.62
    260 y          6.680961      6.710435     0.029475    Cartesian    0.44
    260 z          2.226987      2.224442    -0.002544    Cartesian   -0.11
    261 x          6.680961      6.703810     0.022850    Cartesian    0.34
    261 y          2.226987      2.230259     0.003272    Cartesian    0.15
    261 z          6.680961      6.702072     0.021111    Cartesian    0.32
    262 x          8.907948      8.932744     0.024796    Cartesian    0.28
    262 y          0.000000      0.024781     0.024781    Cartesian    0.00
    262 z          4.453974      4.458386     0.004413    Cartesian    0.10
    263 x          8.907948      8.949053     0.041106    Cartesian    0.46
    263 y          4.453974      4.513269     0.059295    Cartesian    1.33
    263 z          0.000000      0.031657     0.031657    Cartesian    0.00
    264 x          2.226987      2.226987     0.000000    Cartesian    0.00
    264 y          6.680961      6.607202    -0.073759    Cartesian   -1.10
    264 z          6.680961      6.614486    -0.066475    Cartesian   -0.99
    265 x         -2.226987     -2.242215    -0.015228    Cartesian    0.68
    265 y          6.680961      6.683316     0.002355    Cartesian    0.04
    265 z         -2.226987     -2.243593    -0.016606    Cartesian    0.75
    266 x         -2.226987     -2.234556    -0.007569    Cartesian    0.34
    266 y         -2.226987     -2.203836     0.023151    Cartesian   -1.04
    266 z          6.680961      6.682324     0.001363    Cartesian    0.02
    267 x          2.226987      2.226987     0.000000    Cartesian    0.00
    267 y          2.226987      2.239436     0.012449    Cartesian    0.56
    267 z         -6.680961     -6.672942     0.008018    Cartesian   -0.12
    268 x          2.226987      2.226987     0.000000    Cartesian    0.00
    268 y         -6.680961     -6.625211     0.055749    Cartesian   -0.83
    268 z          2.226987      2.242409     0.015422    Cartesian    0.69
    269 x          4.453974      4.448834    -0.005140    Cartesian   -0.12
    269 y         -4.453974     -4.511463    -0.057490    Cartesian    1.29
    269 z         -4.453974     -4.470364    -0.016390    Cartesian    0.37
    270 x          4.453974      4.426494    -0.027480    Cartesian   -0.62
    270 y          0.000000      0.012887     0.012887    Cartesian    0.00
    270 z          8.907948      8.962768     0.054821    Cartesian    0.62
    271 x          4.453974      4.504506     0.050532    Cartesian    1.13
    271 y          8.907948      8.989982     0.082035    Cartesian    0.92
    271 z          0.000000     -0.043526    -0.043526    Cartesian    0.00
    272 x          8.907948      8.979399     0.071452    Cartesian    0.80
    272 y          4.453974      4.486636     0.032663    Cartesian    0.73
    272 z          4.453974      4.500467     0.046494    Cartesian    1.04
    273 x          2.226987      2.226987     0.000000    Cartesian    0.00
    273 y         -2.226987     -2.227974    -0.000987    Cartesian    0.04
    273 z         -6.680961     -6.668951     0.012010    Cartesian   -0.18
    274 x          2.226987      2.226987     0.000000    Cartesian    0.00
    274 y         -6.680961     -6.657228     0.023732    Cartesian   -0.36
    274 z         -2.226987     -2.219388     0.007599    Cartesian   -0.34
    275 x          4.453974      4.438046    -0.015928    Cartesian   -0.36
    275 y          4.453974      4.459702     0.005728    Cartesian    0.13
    275 z          8.907948      8.938778     0.030830    Cartesian    0.35
    276 x          8.907948      8.947385     0.039438    Cartesian    0.44
    276 y          0.000000      0.024949     0.024949    Cartesian    0.00
    276 z         -4.453974     -4.468079    -0.014105    Cartesian    0.32
    277 x          8.907948      8.936536     0.028589    Cartesian    0.32
    277 y         -4.453974     -4.452507     0.001466    Cartesian   -0.03
    277 z          0.000000     -0.003490    -0.003490    Cartesian    0.00
    278 x          4.453974      4.483857     0.029883    Cartesian    0.67
    278 y          8.907948      8.996034     0.088086    Cartesian    0.99
    278 z          4.453974      4.479772     0.025799    Cartesian    0.58
    279 x         11.134934     11.137845     0.002910    Cartesian    0.03
    279 y          2.226987      2.221338    -0.005649    Cartesian   -0.25
    279 z          2.226987      2.214152    -0.012835    Cartesian   -0.58
    280 x          6.680961      6.700448     0.019487    Cartesian    0.29
    280 y          6.680961      6.710044     0.029083    Cartesian    0.44
    280 z          6.680961      6.673979    -0.006982    Cartesian   -0.10
    281 x          6.680961      6.682466     0.001505    Cartesian    0.02
    281 y         -6.680961     -6.638700     0.042261    Cartesian   -0.63
    281 z          2.226987      2.233862     0.006875    Cartesian    0.31
    282 x         -2.226987     -2.209424     0.017563    Cartesian   -0.79
    282 y          2.226987      2.209738    -0.017249    Cartesian   -0.77
    282 z         -6.680961     -6.652299     0.028661    Cartesian   -0.43
    283 x          8.907948      8.933418     0.025471    Cartesian    0.29
    283 y          4.453974      4.474005     0.020031    Cartesian    0.45
    283 z         -4.453974     -4.457476    -0.003502    Cartesian    0.08
    284 x          8.907948      8.953222     0.045274    Cartesian    0.51
    284 y         -4.453974     -4.489994    -0.036020    Cartesian    0.81
    284 z          4.453974      4.487753     0.033780    Cartesian    0.76
    285 x         11.134934     11.125992    -0.008943    Cartesian   -0.08
    285 y          2.226987      2.242112     0.015125    Cartesian    0.68
    285 z         -2.226987     -2.218106     0.008881    Cartesian   -0.40
    286 x         11.134934     11.134124    -0.000810    Cartesian   -0.01
    286 y         -2.226987     -2.197188     0.029799    Cartesian   -1.34
    286 z          2.226987      2.206829    -0.020158    Cartesian   -0.91
    287 x          2.226987      2.226987     0.000000    Cartesian    0.00
    287 y          6.680961      6.662646    -0.018315    Cartesian   -0.27
    287 z         -6.680961     -6.674522     0.006438    Cartesian   -0.10
    288 x          2.226987      2.226987     0.000000    Cartesian    0.00
    288 y         -6.680961     -6.670115     0.010846    Cartesian   -0.16
    288 z          6.680961      6.645493    -0.035467    Cartesian   -0.53
    289 x          6.680961      6.688179     0.007219    Cartesian    0.11
    289 y         -2.226987     -2.214991     0.011996    Cartesian   -0.54
    289 z         -6.680961     -6.670277     0.010684    Cartesian   -0.16
    290 x          6.680961      6.680306    -0.000654    Cartesian   -0.01
    290 y         -6.680961     -6.656824     0.024137    Cartesian   -0.36
    290 z         -2.226987     -2.236024    -0.009037    Cartesian    0.41
    291 x          4.453974      4.470149     0.016175    Cartesian    0.36
    291 y         -4.453974     -4.463311    -0.009337    Cartesian    0.21
    291 z          8.907948      8.969435     0.061488    Cartesian    0.69
    292 x          4.453974      4.450999    -0.002975    Cartesian   -0.07
    292 y          8.907948      8.962139     0.054191    Cartesian    0.61
    292 z         -4.453974     -4.483205    -0.029232    Cartesian    0.66
    293 x          2.226987      2.226987     0.000000    Cartesian    0.00
    293 y          2.226987      2.225106    -0.001880    Cartesian   -0.08
    293 z         11.134934     11.144881     0.009947    Cartesian    0.09
    294 x          2.226987      2.226987     0.000000    Cartesian    0.00
    294 y         11.134934     11.120590    -0.014345    Cartesian   -0.13
    294 z          2.226987      2.265974     0.038987    Cartesian    1.75
    295 x         11.134934     11.134272    -0.000662    Cartesian   -0.01
    295 y         -2.226987     -2.230489    -0.003502    Cartesian    0.16
    295 z         -2.226987     -2.201270     0.025717    Cartesian   -1.15
    296 x          4.453974      4.433296    -0.020678    Cartesian   -0.46
    296 y          0.000000      0.007325     0.007325    Cartesian    0.00
    296 z         -8.907948     -8.901104     0.006844    Cartesian   -0.08
    297 x          4.453974      4.459714     0.005740    Cartesian    0.13
    297 y         -8.907948     -9.021341    -0.113394    Cartesian    1.27
    297 z          0.000000     -0.006450    -0.006450    Cartesian    0.00
    298 x          8.907948      8.954849     0.046902    Cartesian    0.53
    298 y         -4.453974     -4.475994    -0.022021    Cartesian    0.49
    298 z         -4.453974     -4.462380    -0.008406    Cartesian    0.19
    299 x          8.907948      8.960036     0.052088    Cartesian    0.58
    299 y          0.000000     -0.005926    -0.005926    Cartesian    0.00
    299 z          8.907948      8.905720    -0.002227    Cartesian   -0.03
    300 x          8.907948      8.929465     0.021517    Cartesian    0.24
    300 y          8.907948      8.956573     0.048626    Cartesian    0.55
    300 z          0.000000      0.011720     0.011720    Cartesian    0.00
    301 x          2.226987      2.226987     0.000000    Cartesian    0.00
    301 y         11.134934     11.119307    -0.015627    Cartesian   -0.14
    301 z         -2.226987     -2.257466    -0.030479    Cartesian    1.37
    302 x          2.226987      2.226987     0.000000    Cartesian    0.00
    302 y         -2.226987     -2.257046    -0.030059    Cartesian    1.35
    302 z         11.134934     11.128562    -0.006372    Cartesian   -0.06
    303 x         11.134934     11.142930     0.007995    Cartesian    0.07
    303 y          6.680961      6.684885     0.003925    Cartesian    0.06
    303 z          2.226987      2.238789     0.011803    Cartesian    0.53
    304 x          6.680961      6.688777     0.007816    Cartesian    0.12
    304 y         -6.680961     -6.683706    -0.002745    Cartesian    0.04
    304 z          6.680961      6.652873    -0.028087    Cartesian   -0.42
    305 x         11.134934     11.147362     0.012427    Cartesian    0.11
    305 y          2.226987      2.206233    -0.020753    Cartesian   -0.93
    305 z          6.680961      6.671376    -0.009585    Cartesian   -0.14
    306 x         -2.226987     -2.225908     0.001079    Cartesian   -0.05
    306 y          6.680961      6.709610     0.028650    Cartesian    0.43
    306 z         -6.680961     -6.666902     0.014059    Cartesian   -0.21
    307 x          4.453974      4.469914     0.015940    Cartesian    0.36
    307 y          4.453974      4.449148    -0.004826    Cartesian   -0.11
    307 z         -8.907948     -8.945106    -0.037159    Cartesian    0.42
    308 x          4.453974      4.483945     0.029972    Cartesian    0.67
    308 y         -8.907948     -8.906732     0.001215    Cartesian   -0.01
    308 z          4.453974      4.467731     0.013757    Cartesian    0.31
    309 x          8.907948      8.928661     0.020713    Cartesian    0.23
    309 y          4.453974      4.459063     0.005089    Cartesian    0.11
    309 z          8.907948      8.981922     0.073975    Cartesian    0.83
    310 x          8.907948      8.975012     0.067065    Cartesian    0.75
    310 y          8.907948      8.914622     0.006674    Cartesian    0.07
    310 z          4.453974      4.466700     0.012726    Cartesian    0.29
    311 x          6.680961      6.684494     0.003533    Cartesian    0.05
    311 y         11.134934     11.141279     0.006345    Cartesian    0.06
    311 z          2.226987      2.201559    -0.025428    Cartesian   -1.14
    312 x         -2.226987     -2.232205    -0.005218    Cartesian    0.23
    312 y          2.226987      2.252983     0.025996    Cartesian    1.17
    312 z         11.134934     11.129266    -0.005668    Cartesian   -0.05
    313 x         11.134934     11.144246     0.009311    Cartesian    0.08
    313 y          6.680961      6.662413    -0.018548    Cartesian   -0.28
    313 z         -2.226987     -2.255101    -0.028114    Cartesian    1.26
    314 x          2.226987      2.226987     0.000000    Cartesian    0.00
    314 y         -6.680961     -6.693505    -0.012544    Cartesian    0.19
    314 z         -6.680961     -6.672261     0.008700    Cartesian   -0.13
    315 x         11.134934     11.140057     0.005123    Cartesian    0.05
    315 y         -2.226987     -2.187858     0.039129    Cartesian   -1.76
    315 z          6.680961      6.689146     0.008185    Cartesian    0.12
    316 x         13.361921     13.426282     0.064360    Cartesian    0.48
    316 y          0.000000      0.006556     0.006556    Cartesian    0.00
    316 z          0.000000     -0.031963    -0.031963    Cartesian    0.00
    317 x          4.453974      4.466959     0.012985    Cartesian    0.29
    317 y          8.907948      8.931241     0.023293    Cartesian    0.26
    317 z          8.907948      8.931103     0.023156    Cartesian    0.26
    318 x          2.226987      2.226987     0.000000    Cartesian    0.00
    318 y          6.680961      6.705499     0.024538    Cartesian    0.37
    318 z         11.134934     11.104031    -0.030904    Cartesian   -0.28
    319 x          2.226987      2.226987     0.000000    Cartesian    0.00
    319 y         11.134934     11.144119     0.009184    Cartesian    0.08
    319 z          6.680961      6.652727    -0.028234    Cartesian   -0.42
    320 x          6.680961      6.694896     0.013936    Cartesian    0.21
    320 y         11.134934     11.147261     0.012327    Cartesian    0.11
    320 z         -2.226987     -2.216652     0.010335    Cartesian   -0.46
    321 x          6.680961      6.685950     0.004989    Cartesian    0.07
    321 y         -2.226987     -2.241552    -0.014565    Cartesian    0.65
    321 z         11.134934     11.115685    -0.019249    Cartesian   -0.17
    322 x          4.453974      4.484781     0.030807    Cartesian    0.69
    322 y         -4.453974     -4.460415    -0.006441    Cartesian    0.14
    322 z         -8.907948     -8.967683    -0.059735    Cartesian    0.67
    323 x          4.453974      4.465307     0.011333    Cartesian    0.25
    323 y         -8.907948     -8.913851    -0.005903    Cartesian    0.07
    323 z         -4.453974     -4.496110    -0.042136    Cartesian    0.95
    324 x          8.907948      8.911091     0.003143    Cartesian    0.04
    324 y         -4.453974     -4.458796    -0.004822    Cartesian    0.11
    324 z          8.907948      8.942612     0.034664    Cartesian    0.39
    325 x         13.361921     13.402119     0.040198    Cartesian    0.30
    325 y          0.000000     -0.013422    -0.013422    Cartesian    0.00
    325 z          4.453974      4.479672     0.025699    Cartesian    0.58
    326 x         13.361921     13.423322     0.061401    Cartesian    0.46
    326 y          4.453974      4.447206    -0.006768    Cartesian   -0.15
    326 z          0.000000     -0.005264    -0.005264    Cartesian    0.00
    327 x          8.907948      8.973907     0.065960    Cartesian    0.74
    327 y          8.907948      8.924176     0.016228    Cartesian    0.18
    327 z         -4.453974     -4.474948    -0.020974    Cartesian    0.47
    328 x         11.134934     11.142023     0.007088    Cartesian    0.06
    328 y          2.226987      2.210650    -0.016336    Cartesian   -0.73
    328 z         -6.680961     -6.679114     0.001847    Cartesian   -0.03
    329 x         11.134934     11.145858     0.010924    Cartesian    0.10
    329 y          6.680961      6.702818     0.021858    Cartesian    0.33
    329 z          6.680961      6.668171    -0.012790    Cartesian   -0.19
    330 x         11.134934     11.132739    -0.002195    Cartesian   -0.02
    330 y         -6.680961     -6.669395     0.011565    Cartesian   -0.17
    330 z          2.226987      2.244182     0.017195    Cartesian    0.77
    331 x          6.680961      6.686408     0.005448    Cartesian    0.08
    331 y         -6.680961     -6.698678    -0.017717    Cartesian    0.27
    331 z         -6.680961     -6.661460     0.019501    Cartesian   -0.29
--------------------------------------------------------------------------------


  Time to end of optimisation  =      160.2825 seconds


  Peak dynamic memory used =     101.61 MB 


  Timing analysis for GULP :

--------------------------------------------------------------------------------
  Task / Subroutine                                          Time (Seconds)
--------------------------------------------------------------------------------
  Calculation of reciprocal space energy and derivatives          0.0006
  Calculation of reciprocal space energy using symmetry           0.0009
  Calculation of real space energy and derivatives                0.0036
  Calculation of real space energy using symmetry                 0.0086
  Calculation for region 1 energy and derivatives (2-b)          94.0761
  Calculation for region 2a energy                               58.3598
  Calculation for region 2b energy                                0.0269
  Calculation and manipulation of Hessian matrix                  0.3379
  Calculation of matrix inversion                                 6.6109
  Symmetry generation of equivalent positions                     0.0042
--------------------------------------------------------------------------------
  Total CPU time                                                160.2826
--------------------------------------------------------------------------------


  Dump file written as Na3OCl.grs


  Job Finished at 17:25.21  1st March      2021                               

