********************************************************************************
*                       GENERAL UTILITY LATTICE PROGRAM                        *
*                                 Julian Gale                                  *
*                       Curtin Institute for Computation                       *
*                    School of Molecular and Life Sciences                     *
*                    Curtin University, Western Australia                      *
********************************************************************************
* Version = 5.2.0 * Last modified =  10th September 2020                       *
********************************************************************************
*  optimise     - perform optimisation run                                     *
*  conp         - constant pressure calculation                                *
*  property     - calculate properties for final geometry                      *
*  defect       - perform defect calculation after bulk run                    *
*  compare      - compare initial and final structures                         *
********************************************************************************

  Job Started  at 17:23.24  1st March      2021                               

  Number of CPUs =     1


  Total number of configurations input =      1

********************************************************************************
*  Input for Configuration =   1                                               *
********************************************************************************

  Formula = ClONa3                                                      

  Number of irreducible atoms/shells =       5


  Total number atoms/shells =       7

  Dimensionality = 3               :  Bulk   


  Symmetry :

  Crystal family                   :  Cubic       
  Crystal class  (Groth - 1921)    :  Cubic Hexakisoctahedral              

  Space group (centrosymmetric)    :  P M 3 M         

  Patterson group                  :  P m -3 m 

  Cartesian lattice vectors (Angstroms) :

        4.504000    0.000000    0.000000
        0.000000    4.504000    0.000000
        0.000000    0.000000    4.504000

  Cell parameters (Angstroms/Degrees):

  a =       4.5040    alpha =  90.0000
  b =       4.5040    beta  =  90.0000
  c =       4.5040    gamma =  90.0000

  Initial cell volume =          91.368216 Angs**3

  Temperature of configuration =   0.00     K 

  Pressure of configuration =         0.000 GPa 

  Fractional coordinates of asymmetric unit :

--------------------------------------------------------------------------------
   No.  Atomic       x           y          z         Charge      Occupancy
        Label      (Frac)      (Frac)     (Frac)        (e)         (Frac)  
--------------------------------------------------------------------------------
      1 Cl    c    0.000000    0.000000    0.000000     0.99600    1.000000    
      2 O     c    0.500000    0.500000    0.500000     1.44300    1.000000    
      3 Na    c    0.500000    0.500000    0.000000     1.00000    1.000000    
      4 Cl    s    0.000000    0.000000    0.000000    -1.99600    1.000000    
      5 O     s    0.500000    0.500000    0.500000    -3.44300    1.000000    
--------------------------------------------------------------------------------


  Constraints : 

--------------------------------------------------------------------------------
  Constraint no.      Unconstrained     Constrained    Coefficient    Offset
                         Variable         Variable
--------------------------------------------------------------------------------
           1              Strain 1        Strain 2       1.00000      0.0000
           2              Strain 1        Strain 3       1.00000      0.0000
--------------------------------------------------------------------------------


********************************************************************************
*  General input information                                                   *
********************************************************************************

  Species output for all configurations : 

--------------------------------------------------------------------------------
  Species    Type    Atomic    Atomic    Charge       Radii (Angs)     Library
                     Number     Mass       (e)     Cova   Ionic  VDW   Symbol
--------------------------------------------------------------------------------
    Na       Core       11      22.99   1.000000   0.970  0.000  2.300          
    O        Core        8      16.00   1.443000   0.730  0.000  1.360          
    O        Shell       8       0.00  -3.443000   0.730  0.000  1.360          
    Cl       Core       17      35.45   0.996000   0.990  0.000  1.650          
    Cl       Shell      17       0.00  -1.996000   0.990  0.000  1.650          
--------------------------------------------------------------------------------


  Lattice summation method               =    Ewald          (3-D)
                                         =    Parry          (2-D)
                                         =    Saunders et al (1-D)
  Accuracy factor for lattice sums       =   12.000


  Analytic derivatives to be used

  Time limit = Infinity

  Maximum range for interatomic potentials =    100000.000000 Angstroms

  General interatomic potentials :

--------------------------------------------------------------------------------
Atom  Types   Potential      Parameter       Value         Units   Cutoffs(Ang)
  1     2                                                            Min /  Max 
--------------------------------------------------------------------------------
O    c O    s Spring (c-s)  Spring k 2       20.486200    eV*Ang^-2 0.000  0.800
                            Spring k 4       0.0000000    eV*Ang^-4 
--------------------------------------------------------------------------------
Cl   c Cl   s Spring (c-s)  Spring k 2       10.001500    eV*Ang^-2 0.000  0.800
                            Spring k 4       0.0000000    eV*Ang^-4 
--------------------------------------------------------------------------------
Na   c Na   c Buckingham    Buckingham A     29281.710    eV        0.000 12.000
                            Buckingham rho  0.37200000E-01Ang       
                            Buckingham C     0.0000000    eV*Ang^6  
--------------------------------------------------------------------------------
Na   c O    s Buckingham    Buckingham A     602.40000    eV        0.000 12.000
                            Buckingham rho  0.34280000    Ang       
                            Buckingham C     0.0000000    eV*Ang^6  
--------------------------------------------------------------------------------
Na   c Cl   s Buckingham    Buckingham A     3515.6900    eV        0.000 12.000
                            Buckingham rho  0.27460000    Ang       
                            Buckingham C     0.0000000    eV*Ang^6  
--------------------------------------------------------------------------------
O    s O    s Buckingham    Buckingham A     25201.690    eV        0.000 12.000
                            Buckingham rho  0.16450000    Ang       
                            Buckingham C     13.190000    eV*Ang^6  
--------------------------------------------------------------------------------
O    s Cl   s Buckingham    Buckingham A     1105.8600    eV        0.000 12.000
                            Buckingham rho  0.31330000    Ang       
                            Buckingham C     62.200000    eV*Ang^6  
--------------------------------------------------------------------------------
Cl   s Cl   s Buckingham    Buckingham A     31408.750    eV        0.000 12.000
                            Buckingham rho  0.13660000    Ang       
                            Buckingham C     14.530000    eV*Ang^6  
--------------------------------------------------------------------------------

********************************************************************************
*  Output for configuration   1                                                *
********************************************************************************


  Components of energy : 

--------------------------------------------------------------------------------
  Interatomic potentials     =           5.33200327 eV    
  Monopole - monopole (real) =         -10.03624526 eV    
  Monopole - monopole (recip)=         -29.53581274 eV    
  Monopole - monopole (total)=         -39.57205800 eV    
--------------------------------------------------------------------------------
  Total lattice energy       =         -34.24005473 eV    
--------------------------------------------------------------------------------
  Total lattice energy       =           -3303.6419 kJ/(mole unit cells)
--------------------------------------------------------------------------------


  Number of variables =        1

  Maximum number of calculations  =          1000
  Maximum Hessian update interval =            10
  Maximum step size               =   1.000000000
  Maximum parameter tolerance     =   0.000010000
  Maximum function  tolerance     =   0.000010000
  Maximum gradient  tolerance     =   0.001000000
  Maximum gradient  component     =   0.010000000

  Symmetry constrained optimisation

  Symmetry used for second derivatives

  Cell parameters to be optimised using strains

  Newton-Raphson optimiser to be used

  BFGS hessian update to be used

  Lower half triangular hessian to be used

  Start of bulk optimisation :

  Cycle:      0 Energy:       -34.240055  Gnorm:      2.245244  CPU:    0.017
  ** Hessian calculated **
  Cycle:      1 Energy:       -34.252747  Gnorm:      0.013309  CPU:    0.023


  **** Optimisation achieved ****


  Final energy =     -34.25274716 eV
  Final Gnorm  =       0.00056121

  Components of energy : 

--------------------------------------------------------------------------------
  Interatomic potentials     =           5.76377683 eV    
  Monopole - monopole (real) =         -10.14897050 eV    
  Monopole - monopole (recip)=         -29.86755349 eV    
  Monopole - monopole (total)=         -40.01652399 eV    
--------------------------------------------------------------------------------
  Total lattice energy       =         -34.25274716 eV    
--------------------------------------------------------------------------------
  Total lattice energy       =           -3304.8665 kJ/(mole unit cells)
--------------------------------------------------------------------------------

  Final asymmetric unit coordinates :

--------------------------------------------------------------------------------
   No.  Atomic        x           y           z         Radius
        Label       (Frac)      (Frac)      (Frac)       (Angs) 
--------------------------------------------------------------------------------
     1  Cl    c     0.000000    0.000000    0.000000    0.000000
     2  O     c     0.500000    0.500000    0.500000    0.000000
     3  Na    c     0.500000    0.500000    0.000000    0.000000
     4  Cl    s     0.000000    0.000000    0.000000    0.000000
     5  O     s     0.500000    0.500000    0.500000    0.000000
--------------------------------------------------------------------------------

  Final Cartesian lattice vectors (Angstroms) :

        4.453974    0.000000    0.000000
        0.000000    4.453974    0.000000
        0.000000    0.000000    4.453974


  Final cell parameters and derivatives :

--------------------------------------------------------------------------------
       a            4.453974 Angstrom     dE/de1(xx)     0.000561 eV/strain
       b            4.453974 Angstrom     dE/de2(yy)     0.000000 eV/strain
       c            4.453974 Angstrom     dE/de3(zz)     0.000000 eV/strain
       alpha       90.000000 Degrees      dE/de4(yz)     0.000000 eV/strain
       beta        90.000000 Degrees      dE/de5(xz)     0.000000 eV/strain
       gamma       90.000000 Degrees      dE/de6(xy)     0.000000 eV/strain
--------------------------------------------------------------------------------

  Primitive cell volume =            88.357409 Angs**3

  Density of cell =      2.263141 g/cm**3

  Non-primitive cell volume =            88.357409 Angs**3


  Final internal derivatives :

--------------------------------------------------------------------------------
   No.  Atomic          a             b             c           Radius
        Label          (eV)          (eV)          (eV)        (eV/Angs)
--------------------------------------------------------------------------------
      1 Cl    c       0.000000      0.000000      0.000000      0.000000
      2 O     c       0.000000      0.000000      0.000000      0.000000
      3 Na    c       0.000000      0.000000      0.000000      0.000000
      4 Cl    s       0.000000      0.000000      0.000000      0.000000
      5 O     s       0.000000      0.000000      0.000000      0.000000
--------------------------------------------------------------------------------
  Maximum abs         0.000000      0.000000      0.000000      0.000000
--------------------------------------------------------------------------------

  Comparison of initial and final structures : 

--------------------------------------------------------------------------------
  Parameter   Initial value   Final value   Difference    Units      Percent
--------------------------------------------------------------------------------
    Volume        91.368216     88.357409    -3.010807    Angs**3     -3.30
    a              4.504000      4.453974    -0.050026    Angstroms   -1.11
    b              4.504000      4.453974    -0.050026    Angstroms   -1.11
    c              4.504000      4.453974    -0.050026    Angstroms   -1.11
    alpha         90.000000     90.000000     0.000000    Degrees      0.00
    beta          90.000000     90.000000     0.000000    Degrees      0.00
    gamma         90.000000     90.000000     0.000000    Degrees      0.00
      1 x          0.000000      0.000000     0.000000    Fractional   0.00
      1 y          0.000000      0.000000     0.000000    Fractional   0.00
      1 z          0.000000      0.000000     0.000000    Fractional   0.00
      2 x          0.500000      0.500000     0.000000    Fractional   0.00
      2 y          0.500000      0.500000     0.000000    Fractional   0.00
      2 z          0.500000      0.500000     0.000000    Fractional   0.00
      3 x          0.500000      0.500000     0.000000    Fractional   0.00
      3 y          0.500000      0.500000     0.000000    Fractional   0.00
      3 z          0.000000      0.000000     0.000000    Fractional   0.00
      4 x          0.000000      0.000000     0.000000    Fractional   0.00
      4 y          0.000000      0.000000     0.000000    Fractional   0.00
      4 z          0.000000      0.000000     0.000000    Fractional   0.00
      5 x          0.500000      0.500000     0.000000    Fractional   0.00
      5 y          0.500000      0.500000     0.000000    Fractional   0.00
      5 z          0.500000      0.500000     0.000000    Fractional   0.00
--------------------------------------------------------------------------------


  Born effective charge tensors : 

-------------------------------------------------------------------------------
  Atom             x           y             z
-------------------------------------------------------------------------------
    1 Cl    x      -1.4271      0.0000      0.0000
            y       0.0000     -1.4271      0.0000
            z       0.0000      0.0000     -1.4271
-------------------------------------------------------------------------------
    2 O     x      -1.6137     -0.0000     -0.0000
            y      -0.0000     -1.6137     -0.0000
            z      -0.0000     -0.0000     -1.6137
-------------------------------------------------------------------------------
    3 Na    x       0.8295     -0.0000     -0.0000
            y      -0.0000      0.8295      0.0000
            z      -0.0000      0.0000      1.3817
-------------------------------------------------------------------------------




  Elastic Constant Matrix: (Units=GPa)

-------------------------------------------------------------------------------
  Indices      1         2         3         4         5         6    
-------------------------------------------------------------------------------
       1     82.8226   21.5342   21.5342    0.0000   -0.0000   -0.0000
       2     21.5342   82.8226   21.5342   -0.0000    0.0000   -0.0000
       3     21.5342   21.5342   82.8226    0.0000    0.0000   -0.0000
       4      0.0000   -0.0000    0.0000   21.5346   -0.0000    0.0000
       5     -0.0000    0.0000    0.0000   -0.0000   21.5346    0.0000
       6     -0.0000   -0.0000   -0.0000    0.0000    0.0000   21.5346
-------------------------------------------------------------------------------


  Elastic Compliance Matrix: (Units=1/GPa)

-------------------------------------------------------------------------------
  Indices      1         2         3         4         5         6    
-------------------------------------------------------------------------------
       1    0.013525 -0.002791 -0.002791 -0.000000  0.000000  0.000000
       2   -0.002791  0.013525 -0.002791  0.000000 -0.000000  0.000000
       3   -0.002791 -0.002791  0.013525 -0.000000 -0.000000  0.000000
       4   -0.000000  0.000000 -0.000000  0.046437  0.000000 -0.000000
       5    0.000000 -0.000000 -0.000000  0.000000  0.046437 -0.000000
       6    0.000000  0.000000  0.000000 -0.000000 -0.000000  0.046437
-------------------------------------------------------------------------------

  Mechanical properties :

-------------------------------------------------------------------------------
  Convention :                    Reuss         Voigt         Hill
-------------------------------------------------------------------------------
  Bulk  Modulus (GPa)     =      41.96371      41.96371      41.96371
  Shear Modulus (GPa)     =      24.44079      25.17843      24.80961
-------------------------------------------------------------------------------
  Velocity S-wave (km/s)  =       3.28626       3.33548       3.31096
  Velocity P-wave (km/s)  =       5.73948       5.77721       5.75837
-------------------------------------------------------------------------------
  Compressibility (1/GPa) =    0.02383011
-------------------------------------------------------------------------------
  Stress axis :                     x             y             z
-------------------------------------------------------------------------------
  Youngs Moduli (GPa)     =      73.93539      73.93539      73.93539
-------------------------------------------------------------------------------
  Poissons Ratio (x)      =                     0.20635       0.20635
  Poissons Ratio (y)      =       0.20635                     0.20635
  Poissons Ratio (z)      =       0.20635       0.20635
-------------------------------------------------------------------------------


  Piezoelectric Strain Matrix: (Units=C/m**2)

-------------------------------------------------------------------------------
  Indices      1         2         3         4         5         6    
-------------------------------------------------------------------------------
       x     0.00000  -0.00000   0.00000   0.00000  -0.00000  -0.00000
       y    -0.00000  -0.00000  -0.00000  -0.00000   0.00000   0.00000
       z    -0.00000  -0.00000   0.00000   0.00000   0.00000   0.00000
-------------------------------------------------------------------------------


  Piezoelectric Stress Matrix: (Units=10**-11 C/N)

-------------------------------------------------------------------------------
  Indices      1         2         3         4         5         6    
-------------------------------------------------------------------------------
       x     0.00000  -0.00000  -0.00000   0.00000  -0.00000  -0.00000
       y    -0.00000   0.00000   0.00000  -0.00000   0.00000   0.00000
       z    -0.00000  -0.00000   0.00000   0.00000   0.00000   0.00000
-------------------------------------------------------------------------------


  Static dielectric constant tensor : 

-------------------------------------------------------------------------------
              x         y         z
-------------------------------------------------------------------------------
       x    28.60451  -0.00000  -0.00000
       y    -0.00000  28.60451  -0.00000
       z    -0.00000  -0.00000  28.60451
--------------------------------------------------------------------------------

  High frequency dielectric constant tensor : 

-------------------------------------------------------------------------------
              x         y         z
-------------------------------------------------------------------------------
       x     3.92296  -0.00000  -0.00000
       y    -0.00000   3.92296   0.00000
       z    -0.00000   0.00000   3.92296
-------------------------------------------------------------------------------

  Static refractive indices : 

-------------------------------------------------------------------------------
    1 =    5.34832      2 =    5.34832      3 =    5.34832
-------------------------------------------------------------------------------

  High frequency refractive indices : 

-------------------------------------------------------------------------------
    1 =    1.98065      2 =    1.98065      3 =    1.98065
-------------------------------------------------------------------------------


  Time to end of optimisation =       0.0349 seconds

********************************************************************************
*  Defect calculation for configuration   1 :                                  *
********************************************************************************

  Total number of defects =      3

  Total charge on defect  =  -1.00

  Defect centre is at   0.5000   0.2500   0.2500  Frac

  Region 1 radius =  12.0000      Number of ions =    575

  Number of symmetry inequivalent region 1 ions  =    331

  Region 2 radius =  16.0000      Number of ions =    818

  Number of symmetry inequivalent region 2a ions =    447

  Region 2a mode = 4 : screened electrostatics due to region 1 
                       neglect correction to region 1 forces from 2a
                       region 2a displacements based on defects only

  Region 2a ions will only interact with defects in region 1

  Vacancies:

--------------------------------------------------------------------------------
    Specification type     Symbol/Number         x          y          z
--------------------------------------------------------------------------------
    Fractional                               0.500000   0.500000   0.000000
    Fractional                               0.500000   0.000000   0.500000
--------------------------------------------------------------------------------

  Interstitials:

--------------------------------------------------------------------------------
    Specification type     Symbol/Number         x          y          z
--------------------------------------------------------------------------------
    Atom/Fractional         Na               0.500000   0.240000   0.260000
--------------------------------------------------------------------------------


  Symmetry reduced region 1 (Relative to defect centre) :

--------------------------------------------------------------------------------
   No.   Atomic       x            y             z       Radius  Multiplicity   
         Label      (Angs)       (Angs)        (Angs)    (Angs)     
--------------------------------------------------------------------------------
     1  Na    c      0.0000      -0.0445       0.0445    0.0000     1    Defect
     2  O     c      0.0000       1.1135 *     1.1135 *  0.0000     1          
     3  Cl    c      2.2270 *    -1.1135 *    -1.1135 *  0.0000     2          
     4  Na    c      2.2270 *     1.1135 *     1.1135 *  0.0000     2          
     5  O     c      0.0000       1.1135 *    -3.3405 *  0.0000     1          
     6  O     c      0.0000      -3.3405 *     1.1135 *  0.0000     1          
     7  Na    c      0.0000       1.1135 *     3.3405 *  0.0000     1          
     8  Na    c      0.0000      -3.3405 *    -1.1135 *  0.0000     1          
     9  Na    c      0.0000      -1.1135 *    -3.3405 *  0.0000     1          
    10  Na    c      0.0000       3.3405 *     1.1135 *  0.0000     1          
    11  Cl    c      2.2270 *    -1.1135 *     3.3405 *  0.0000     2          
    12  Cl    c      2.2270 *     3.3405 *    -1.1135 *  0.0000     2          
    13  Na    c      2.2270 *     1.1135 *    -3.3405 *  0.0000     2          
    14  Na    c      2.2270 *    -3.3405 *     1.1135 *  0.0000     2          
    15  O     c     -4.4540 *     1.1135 *     1.1135 *  0.0000     2          
    16  Na    c     -4.4540 *    -1.1135 *     1.1135 *  0.0000     2          
    17  O     c      0.0000      -3.3405 *    -3.3405 *  0.0000     1          
    18  Na    c      0.0000      -3.3405 *     3.3405 *  0.0000     1          
    19  Na    c     -4.4540 *     1.1135 *    -1.1135 *  0.0000     2          
    20  Na    c      0.0000       3.3405 *    -3.3405 *  0.0000     1          
    21  Cl    c      2.2270 *     3.3405 *     3.3405 *  0.0000     2          
    22  Na    c      2.2270 *    -3.3405 *    -3.3405 *  0.0000     2          
    23  O     c      0.0000       1.1135 *     5.5675 *  0.0000     1          
    24  O     c      0.0000       5.5675 *     1.1135 *  0.0000     1          
    25  O     c     -4.4540 *     1.1135 *    -3.3405 *  0.0000     2          
    26  O     c     -4.4540 *    -3.3405 *     1.1135 *  0.0000     2          
    27  Na    c      0.0000       1.1135 *    -5.5675 *  0.0000     1          
    28  Na    c      0.0000       5.5675 *    -1.1135 *  0.0000     1          
    29  Na    c     -4.4540 *     1.1135 *     3.3405 *  0.0000     2          
    30  Na    c     -4.4540 *    -3.3405 *    -1.1135 *  0.0000     2          
    31  Na    c      0.0000      -1.1135 *     5.5675 *  0.0000     1          
    32  Na    c      0.0000      -5.5675 *     1.1135 *  0.0000     1          
    33  Na    c     -4.4540 *    -1.1135 *    -3.3405 *  0.0000     2          
    34  Na    c     -4.4540 *     3.3405 *     1.1135 *  0.0000     2          
    35  Cl    c      2.2270 *    -1.1135 *    -5.5675 *  0.0000     2          
    36  Cl    c      2.2270 *    -5.5675 *    -1.1135 *  0.0000     2          
    37  Na    c      2.2270 *     1.1135 *     5.5675 *  0.0000     2          
    38  Na    c      2.2270 *     5.5675 *     1.1135 *  0.0000     2          
    39  O     c      0.0000       5.5675 *    -3.3405 *  0.0000     1          
    40  O     c      0.0000      -3.3405 *     5.5675 *  0.0000     1          
    41  O     c     -4.4540 *    -3.3405 *    -3.3405 *  0.0000     2          
    42  Na    c      0.0000       5.5675 *     3.3405 *  0.0000     1          
    43  Na    c      0.0000      -3.3405 *    -5.5675 *  0.0000     1          
    44  Na    c     -4.4540 *    -3.3405 *     3.3405 *  0.0000     2          
    45  Na    c      0.0000       3.3405 *     5.5675 *  0.0000     1          
    46  Na    c      0.0000      -5.5675 *    -3.3405 *  0.0000     1          
    47  Na    c     -4.4540 *     3.3405 *    -3.3405 *  0.0000     2          
    48  Cl    c      2.2270 *     3.3405 *    -5.5675 *  0.0000     2          
    49  Cl    c      2.2270 *    -5.5675 *     3.3405 *  0.0000     2          
    50  Na    c      2.2270 *     5.5675 *    -3.3405 *  0.0000     2          
    51  Na    c      2.2270 *    -3.3405 *     5.5675 *  0.0000     2          
    52  Cl    c      6.6810 *    -1.1135 *    -1.1135 *  0.0000     2          
    53  Na    c      6.6810 *     1.1135 *     1.1135 *  0.0000     2          
    54  O     c     -4.4540 *     5.5675 *     1.1135 *  0.0000     2          
    55  Na    c     -4.4540 *     5.5675 *    -1.1135 *  0.0000     2          
    56  Na    c     -4.4540 *    -5.5675 *     1.1135 *  0.0000     2          
    57  O     c      4.4540 *     1.1135 *     5.5675 *  0.0000     2          
    58  Na    c      4.4540 *     1.1135 *    -5.5675 *  0.0000     2          
    59  Na    c      4.4540 *    -1.1135 *     5.5675 *  0.0000     2          
    60  Cl    c      6.6810 *    -1.1135 *     3.3405 *  0.0000     2          
    61  Cl    c      6.6810 *     3.3405 *    -1.1135 *  0.0000     2          
    62  Na    c      6.6810 *     1.1135 *    -3.3405 *  0.0000     2          
    63  Na    c      6.6810 *    -3.3405 *     1.1135 *  0.0000     2          
    64  O     c      0.0000       5.5675 *     5.5675 *  0.0000     1          
    65  O     c     -4.4540 *     5.5675 *    -3.3405 *  0.0000     2          
    66  O     c     -4.4540 *    -3.3405 *     5.5675 *  0.0000     2          
    67  Na    c      0.0000       5.5675 *    -5.5675 *  0.0000     1          
    68  Na    c     -4.4540 *     5.5675 *     3.3405 *  0.0000     2          
    69  Na    c     -4.4540 *    -3.3405 *    -5.5675 *  0.0000     2          
    70  Na    c      0.0000      -5.5675 *     5.5675 *  0.0000     1          
    71  Na    c     -4.4540 *     3.3405 *     5.5675 *  0.0000     2          
    72  Na    c     -4.4540 *    -5.5675 *    -3.3405 *  0.0000     2          
    73  O     c      0.0000       1.1135 *    -7.7945 *  0.0000     1          
    74  O     c      0.0000      -7.7945 *     1.1135 *  0.0000     1          
    75  Na    c      0.0000       1.1135 *     7.7945 *  0.0000     1          
    76  Na    c      0.0000      -7.7945 *    -1.1135 *  0.0000     1          
    77  Na    c      0.0000      -1.1135 *    -7.7945 *  0.0000     1          
    78  Na    c      0.0000       7.7945 *     1.1135 *  0.0000     1          
    79  Cl    c      2.2270 *    -5.5675 *    -5.5675 *  0.0000     2          
    80  Na    c      2.2270 *     5.5675 *     5.5675 *  0.0000     2          
    81  Cl    c      2.2270 *    -1.1135 *     7.7945 *  0.0000     2          
    82  Cl    c      2.2270 *     7.7945 *    -1.1135 *  0.0000     2          
    83  Cl    c      6.6810 *     3.3405 *     3.3405 *  0.0000     2          
    84  Na    c      2.2270 *     1.1135 *    -7.7945 *  0.0000     2          
    85  Na    c      2.2270 *    -7.7945 *     1.1135 *  0.0000     2          
    86  Na    c      6.6810 *    -3.3405 *    -3.3405 *  0.0000     2          
    87  O     c      0.0000      -3.3405 *    -7.7945 *  0.0000     1          
    88  O     c      0.0000      -7.7945 *    -3.3405 *  0.0000     1          
    89  Na    c      0.0000      -3.3405 *     7.7945 *  0.0000     1          
    90  Na    c      0.0000      -7.7945 *     3.3405 *  0.0000     1          
    91  Na    c      0.0000       3.3405 *    -7.7945 *  0.0000     1          
    92  Na    c      0.0000       7.7945 *    -3.3405 *  0.0000     1          
    93  Cl    c      2.2270 *     3.3405 *     7.7945 *  0.0000     2          
    94  Cl    c      6.6810 *    -1.1135 *    -5.5675 *  0.0000     2          
    95  Cl    c      6.6810 *    -5.5675 *    -1.1135 *  0.0000     2          
    96  Na    c      2.2270 *    -3.3405 *    -7.7945 *  0.0000     2          
    97  Na    c      6.6810 *     1.1135 *     5.5675 *  0.0000     2          
    98  Na    c      6.6810 *     5.5675 *     1.1135 *  0.0000     2          
    99  Cl    c      2.2270 *     7.7945 *     3.3405 *  0.0000     2          
   100  Na    c      2.2270 *    -7.7945 *    -3.3405 *  0.0000     2          
   101  O     c      8.9079 *     1.1135 *     1.1135 *  0.0000     2          
   102  Na    c      8.9079 *     1.1135 *    -1.1135 *  0.0000     2          
   103  Na    c      8.9079 *    -1.1135 *     1.1135 *  0.0000     2          
   104  O     c      4.4540 *     5.5675 *     5.5675 *  0.0000     2          
   105  O     c      4.4540 *    -7.7945 *     1.1135 *  0.0000     2          
   106  O     c     -4.4540 *     1.1135 *    -7.7945 *  0.0000     2          
   107  Na    c      4.4540 *     5.5675 *    -5.5675 *  0.0000     2          
   108  Na    c      4.4540 *    -7.7945 *    -1.1135 *  0.0000     2          
   109  Na    c     -4.4540 *     1.1135 *     7.7945 *  0.0000     2          
   110  Na    c      4.4540 *     7.7945 *     1.1135 *  0.0000     2          
   111  Na    c      4.4540 *    -5.5675 *     5.5675 *  0.0000     2          
   112  Na    c     -4.4540 *    -1.1135 *    -7.7945 *  0.0000     2          
   113  Cl    c      6.6810 *     3.3405 *    -5.5675 *  0.0000     2          
   114  Cl    c      6.6810 *    -5.5675 *     3.3405 *  0.0000     2          
   115  Na    c      6.6810 *     5.5675 *    -3.3405 *  0.0000     2          
   116  Na    c      6.6810 *    -3.3405 *     5.5675 *  0.0000     2          
   117  O     c      8.9079 *     1.1135 *    -3.3405 *  0.0000     2          
   118  O     c      8.9079 *    -3.3405 *     1.1135 *  0.0000     2          
   119  Na    c      8.9079 *     1.1135 *     3.3405 *  0.0000     2          
   120  Na    c      8.9079 *    -3.3405 *    -1.1135 *  0.0000     2          
   121  Na    c      8.9079 *    -1.1135 *    -3.3405 *  0.0000     2          
   122  Na    c      8.9079 *     3.3405 *     1.1135 *  0.0000     2          
   123  O     c      0.0000       5.5675 *    -7.7945 *  0.0000     1          
   124  O     c      0.0000      -7.7945 *     5.5675 *  0.0000     1          
   125  O     c      4.4540 *    -3.3405 *    -7.7945 *  0.0000     2          
   126  O     c      4.4540 *    -7.7945 *    -3.3405 *  0.0000     2          
   127  Na    c      0.0000       5.5675 *     7.7945 *  0.0000     1          
   128  Na    c      0.0000      -7.7945 *    -5.5675 *  0.0000     1          
   129  Na    c      4.4540 *    -3.3405 *     7.7945 *  0.0000     2          
   130  Na    c      4.4540 *    -7.7945 *     3.3405 *  0.0000     2          
   131  Na    c      0.0000       7.7945 *     5.5675 *  0.0000     1          
   132  Na    c      0.0000      -5.5675 *    -7.7945 *  0.0000     1          
   133  Na    c      4.4540 *     3.3405 *    -7.7945 *  0.0000     2          
   134  Na    c      4.4540 *     7.7945 *    -3.3405 *  0.0000     2          
   135  Cl    c      2.2270 *    -5.5675 *     7.7945 *  0.0000     2          
   136  Na    c      2.2270 *     5.5675 *    -7.7945 *  0.0000     2          
   137  Cl    c      2.2270 *     7.7945 *    -5.5675 *  0.0000     2          
   138  Na    c      2.2270 *    -7.7945 *     5.5675 *  0.0000     2          
   139  O     c      0.0000       1.1135 *    10.0214 *  0.0000     1          
   140  O     c      0.0000      10.0214 *     1.1135 *  0.0000     1          
   141  Na    c      0.0000       1.1135 *   -10.0214 *  0.0000     1          
   142  Na    c      0.0000      10.0214 *    -1.1135 *  0.0000     1          
   143  Na    c      0.0000      -1.1135 *    10.0214 *  0.0000     1          
   144  Na    c      0.0000     -10.0214 *     1.1135 *  0.0000     1          
   145  O     c      8.9079 *    -3.3405 *    -3.3405 *  0.0000     2          
   146  Na    c      8.9079 *    -3.3405 *     3.3405 *  0.0000     2          
   147  Na    c      8.9079 *     3.3405 *    -3.3405 *  0.0000     2          
   148  Cl    c      2.2270 *    -1.1135 *   -10.0214 *  0.0000     2          
   149  Cl    c      2.2270 *   -10.0214 *    -1.1135 *  0.0000     2          
   150  Na    c      2.2270 *     1.1135 *    10.0214 *  0.0000     2          
   151  Na    c      2.2270 *    10.0214 *     1.1135 *  0.0000     2          
   152  Cl    c      6.6810 *    -5.5675 *    -5.5675 *  0.0000     2          
   153  Na    c      6.6810 *     5.5675 *     5.5675 *  0.0000     2          
   154  Cl    c      6.6810 *    -1.1135 *     7.7945 *  0.0000     2          
   155  Cl    c      6.6810 *     7.7945 *    -1.1135 *  0.0000     2          
   156  Na    c      6.6810 *     1.1135 *    -7.7945 *  0.0000     2          
   157  Na    c      6.6810 *    -7.7945 *     1.1135 *  0.0000     2          
   158  O     c      0.0000      10.0214 *    -3.3405 *  0.0000     1          
   159  O     c      0.0000      -3.3405 *    10.0214 *  0.0000     1          
   160  O     c      8.9079 *     5.5675 *     1.1135 *  0.0000     2          
   161  Na    c      0.0000      10.0214 *     3.3405 *  0.0000     1          
   162  Na    c      0.0000      -3.3405 *   -10.0214 *  0.0000     1          
   163  Na    c      8.9079 *     5.5675 *    -1.1135 *  0.0000     2          
   164  Na    c      0.0000       3.3405 *    10.0214 *  0.0000     1          
   165  Na    c      0.0000     -10.0214 *    -3.3405 *  0.0000     1          
   166  Na    c      8.9079 *    -5.5675 *     1.1135 *  0.0000     2          
   167  O     c      4.4540 *    -7.7945 *     5.5675 *  0.0000     2          
   168  O     c      8.9079 *     1.1135 *     5.5675 *  0.0000     2          
   169  O     c     -4.4540 *     5.5675 *    -7.7945 *  0.0000     2          
   170  Na    c      4.4540 *    -7.7945 *    -5.5675 *  0.0000     2          
   171  Na    c      8.9079 *     1.1135 *    -5.5675 *  0.0000     2          
   172  Na    c     -4.4540 *     5.5675 *     7.7945 *  0.0000     2          
   173  Na    c      4.4540 *     7.7945 *     5.5675 *  0.0000     2          
   174  Na    c      8.9079 *    -1.1135 *     5.5675 *  0.0000     2          
   175  Na    c     -4.4540 *    -5.5675 *    -7.7945 *  0.0000     2          
   176  Cl    c      2.2270 *     3.3405 *   -10.0214 *  0.0000     2          
   177  Na    c      2.2270 *    -3.3405 *    10.0214 *  0.0000     2          
   178  Cl    c      2.2270 *   -10.0214 *     3.3405 *  0.0000     2          
   179  Na    c      2.2270 *    10.0214 *    -3.3405 *  0.0000     2          
   180  Cl    c      6.6810 *     3.3405 *     7.7945 *  0.0000     2          
   181  Na    c      6.6810 *    -3.3405 *    -7.7945 *  0.0000     2          
   182  Cl    c      6.6810 *     7.7945 *     3.3405 *  0.0000     2          
   183  Na    c      6.6810 *    -7.7945 *    -3.3405 *  0.0000     2          
   184  O     c      4.4540 *    10.0214 *     1.1135 *  0.0000     2          
   185  O     c     -4.4540 *     1.1135 *    10.0214 *  0.0000     2          
   186  Na    c      4.4540 *    10.0214 *    -1.1135 *  0.0000     2          
   187  Na    c     -4.4540 *     1.1135 *   -10.0214 *  0.0000     2          
   188  Na    c      4.4540 *   -10.0214 *     1.1135 *  0.0000     2          
   189  Na    c     -4.4540 *    -1.1135 *    10.0214 *  0.0000     2          
   190  O     c      8.9079 *     5.5675 *    -3.3405 *  0.0000     2          
   191  Na    c      8.9079 *     5.5675 *     3.3405 *  0.0000     2          
   192  Na    c      8.9079 *    -5.5675 *    -3.3405 *  0.0000     2          
   193  O     c      0.0000      -7.7945 *    -7.7945 *  0.0000     1          
   194  O     c      8.9079 *    -3.3405 *     5.5675 *  0.0000     2          
   195  Na    c      0.0000      -7.7945 *     7.7945 *  0.0000     1          
   196  Na    c      8.9079 *    -3.3405 *    -5.5675 *  0.0000     2          
   197  Na    c      0.0000       7.7945 *    -7.7945 *  0.0000     1          
   198  Na    c      8.9079 *     3.3405 *     5.5675 *  0.0000     2          
   199  Cl    c     11.1349 *    -1.1135 *    -1.1135 *  0.0000     2          
   200  Na    c     11.1349 *     1.1135 *     1.1135 *  0.0000     2          
   201  Cl    c      2.2270 *     7.7945 *     7.7945 *  0.0000     2          
   202  Na    c      2.2270 *    -7.7945 *    -7.7945 *  0.0000     2          
   203  O     c      0.0000       5.5675 *    10.0214 *  0.0000     1          
   204  O     c      0.0000      10.0214 *     5.5675 *  0.0000     1          
   205  O     c      4.4540 *    10.0214 *    -3.3405 *  0.0000     2          
   206  O     c      4.4540 *    -3.3405 *    10.0214 *  0.0000     2          
   207  Na    c      0.0000       5.5675 *   -10.0214 *  0.0000     1          
   208  Na    c      0.0000      10.0214 *    -5.5675 *  0.0000     1          
   209  Na    c      4.4540 *    10.0214 *     3.3405 *  0.0000     2          
   210  Na    c      4.4540 *    -3.3405 *   -10.0214 *  0.0000     2          
   211  Na    c      0.0000      -5.5675 *    10.0214 *  0.0000     1          
   212  Na    c      0.0000     -10.0214 *     5.5675 *  0.0000     1          
   213  Na    c      4.4540 *     3.3405 *    10.0214 *  0.0000     2          
   214  Na    c      4.4540 *   -10.0214 *    -3.3405 *  0.0000     2          
   215  Cl    c      2.2270 *    -5.5675 *   -10.0214 *  0.0000     2          
   216  Cl    c      2.2270 *   -10.0214 *    -5.5675 *  0.0000     2          
   217  Cl    c      6.6810 *    -5.5675 *     7.7945 *  0.0000     2          
   218  Cl    c     11.1349 *    -1.1135 *     3.3405 *  0.0000     2          
   219  Cl    c     11.1349 *     3.3405 *    -1.1135 *  0.0000     2          
   220  Na    c      2.2270 *     5.5675 *    10.0214 *  0.0000     2          
   221  Na    c      2.2270 *    10.0214 *     5.5675 *  0.0000     2          
   222  Na    c      6.6810 *     5.5675 *    -7.7945 *  0.0000     2          
   223  Na    c     11.1349 *     1.1135 *    -3.3405 *  0.0000     2          
   224  Na    c     11.1349 *    -3.3405 *     1.1135 *  0.0000     2          
   225  Cl    c      6.6810 *     7.7945 *    -5.5675 *  0.0000     2          
   226  Na    c      6.6810 *    -7.7945 *     5.5675 *  0.0000     2          
   227  O     c      8.9079 *     1.1135 *    -7.7945 *  0.0000     2          
   228  O     c      8.9079 *     5.5675 *     5.5675 *  0.0000     2          
   229  O     c      8.9079 *    -7.7945 *     1.1135 *  0.0000     2          
   230  Na    c      8.9079 *     1.1135 *     7.7945 *  0.0000     2          
   231  Na    c      8.9079 *     5.5675 *    -5.5675 *  0.0000     2          
   232  Na    c      8.9079 *    -7.7945 *    -1.1135 *  0.0000     2          
   233  Na    c      8.9079 *    -1.1135 *    -7.7945 *  0.0000     2          
   234  Na    c      8.9079 *     7.7945 *     1.1135 *  0.0000     2          
   235  Na    c      8.9079 *    -5.5675 *     5.5675 *  0.0000     2          
   236  O     c      4.4540 *    -7.7945 *    -7.7945 *  0.0000     2          
   237  Na    c      4.4540 *    -7.7945 *     7.7945 *  0.0000     2          
   238  Na    c      4.4540 *     7.7945 *    -7.7945 *  0.0000     2          
   239  O     s      0.0000       1.1135 *     1.1135 *  0.0000     1          
   240  Cl    s      2.2270 *    -1.1135 *    -1.1135 *  0.0000     2          
   241  O     s      0.0000       1.1135 *    -3.3405 *  0.0000     1          
   242  O     s      0.0000      -3.3405 *     1.1135 *  0.0000     1          
   243  Cl    s      2.2270 *    -1.1135 *     3.3405 *  0.0000     2          
   244  Cl    s      2.2270 *     3.3405 *    -1.1135 *  0.0000     2          
   245  O     s     -4.4540 *     1.1135 *     1.1135 *  0.0000     2          
   246  O     s      0.0000      -3.3405 *    -3.3405 *  0.0000     1          
   247  Cl    s      2.2270 *     3.3405 *     3.3405 *  0.0000     2          
   248  O     s      0.0000       1.1135 *     5.5675 *  0.0000     1          
   249  O     s      0.0000       5.5675 *     1.1135 *  0.0000     1          
   250  O     s     -4.4540 *     1.1135 *    -3.3405 *  0.0000     2          
   251  O     s     -4.4540 *    -3.3405 *     1.1135 *  0.0000     2          
   252  Cl    s      2.2270 *    -1.1135 *    -5.5675 *  0.0000     2          
   253  Cl    s      2.2270 *    -5.5675 *    -1.1135 *  0.0000     2          
   254  O     s      0.0000       5.5675 *    -3.3405 *  0.0000     1          
   255  O     s      0.0000      -3.3405 *     5.5675 *  0.0000     1          
   256  O     s     -4.4540 *    -3.3405 *    -3.3405 *  0.0000     2          
   257  Cl    s      2.2270 *     3.3405 *    -5.5675 *  0.0000     2          
   258  Cl    s      2.2270 *    -5.5675 *     3.3405 *  0.0000     2          
   259  Cl    s      6.6810 *    -1.1135 *    -1.1135 *  0.0000     2          
   260  O     s     -4.4540 *     5.5675 *     1.1135 *  0.0000     2          
   261  O     s      4.4540 *     1.1135 *     5.5675 *  0.0000     2          
   262  Cl    s      6.6810 *    -1.1135 *     3.3405 *  0.0000     2          
   263  Cl    s      6.6810 *     3.3405 *    -1.1135 *  0.0000     2          
   264  O     s      0.0000       5.5675 *     5.5675 *  0.0000     1          
   265  O     s     -4.4540 *     5.5675 *    -3.3405 *  0.0000     2          
   266  O     s     -4.4540 *    -3.3405 *     5.5675 *  0.0000     2          
   267  O     s      0.0000       1.1135 *    -7.7945 *  0.0000     1          
   268  O     s      0.0000      -7.7945 *     1.1135 *  0.0000     1          
   269  Cl    s      2.2270 *    -5.5675 *    -5.5675 *  0.0000     2          
   270  Cl    s      2.2270 *    -1.1135 *     7.7945 *  0.0000     2          
   271  Cl    s      2.2270 *     7.7945 *    -1.1135 *  0.0000     2          
   272  Cl    s      6.6810 *     3.3405 *     3.3405 *  0.0000     2          
   273  O     s      0.0000      -3.3405 *    -7.7945 *  0.0000     1          
   274  O     s      0.0000      -7.7945 *    -3.3405 *  0.0000     1          
   275  Cl    s      2.2270 *     3.3405 *     7.7945 *  0.0000     2          
   276  Cl    s      6.6810 *    -1.1135 *    -5.5675 *  0.0000     2          
   277  Cl    s      6.6810 *    -5.5675 *    -1.1135 *  0.0000     2          
   278  Cl    s      2.2270 *     7.7945 *     3.3405 *  0.0000     2          
   279  O     s      8.9079 *     1.1135 *     1.1135 *  0.0000     2          
   280  O     s      4.4540 *     5.5675 *     5.5675 *  0.0000     2          
   281  O     s      4.4540 *    -7.7945 *     1.1135 *  0.0000     2          
   282  O     s     -4.4540 *     1.1135 *    -7.7945 *  0.0000     2          
   283  Cl    s      6.6810 *     3.3405 *    -5.5675 *  0.0000     2          
   284  Cl    s      6.6810 *    -5.5675 *     3.3405 *  0.0000     2          
   285  O     s      8.9079 *     1.1135 *    -3.3405 *  0.0000     2          
   286  O     s      8.9079 *    -3.3405 *     1.1135 *  0.0000     2          
   287  O     s      0.0000       5.5675 *    -7.7945 *  0.0000     1          
   288  O     s      0.0000      -7.7945 *     5.5675 *  0.0000     1          
   289  O     s      4.4540 *    -3.3405 *    -7.7945 *  0.0000     2          
   290  O     s      4.4540 *    -7.7945 *    -3.3405 *  0.0000     2          
   291  Cl    s      2.2270 *    -5.5675 *     7.7945 *  0.0000     2          
   292  Cl    s      2.2270 *     7.7945 *    -5.5675 *  0.0000     2          
   293  O     s      0.0000       1.1135 *    10.0214 *  0.0000     1          
   294  O     s      0.0000      10.0214 *     1.1135 *  0.0000     1          
   295  O     s      8.9079 *    -3.3405 *    -3.3405 *  0.0000     2          
   296  Cl    s      2.2270 *    -1.1135 *   -10.0214 *  0.0000     2          
   297  Cl    s      2.2270 *   -10.0214 *    -1.1135 *  0.0000     2          
   298  Cl    s      6.6810 *    -5.5675 *    -5.5675 *  0.0000     2          
   299  Cl    s      6.6810 *    -1.1135 *     7.7945 *  0.0000     2          
   300  Cl    s      6.6810 *     7.7945 *    -1.1135 *  0.0000     2          
   301  O     s      0.0000      10.0214 *    -3.3405 *  0.0000     1          
   302  O     s      0.0000      -3.3405 *    10.0214 *  0.0000     1          
   303  O     s      8.9079 *     5.5675 *     1.1135 *  0.0000     2          
   304  O     s      4.4540 *    -7.7945 *     5.5675 *  0.0000     2          
   305  O     s      8.9079 *     1.1135 *     5.5675 *  0.0000     2          
   306  O     s     -4.4540 *     5.5675 *    -7.7945 *  0.0000     2          
   307  Cl    s      2.2270 *     3.3405 *   -10.0214 *  0.0000     2          
   308  Cl    s      2.2270 *   -10.0214 *     3.3405 *  0.0000     2          
   309  Cl    s      6.6810 *     3.3405 *     7.7945 *  0.0000     2          
   310  Cl    s      6.6810 *     7.7945 *     3.3405 *  0.0000     2          
   311  O     s      4.4540 *    10.0214 *     1.1135 *  0.0000     2          
   312  O     s     -4.4540 *     1.1135 *    10.0214 *  0.0000     2          
   313  O     s      8.9079 *     5.5675 *    -3.3405 *  0.0000     2          
   314  O     s      0.0000      -7.7945 *    -7.7945 *  0.0000     1          
   315  O     s      8.9079 *    -3.3405 *     5.5675 *  0.0000     2          
   316  Cl    s     11.1349 *    -1.1135 *    -1.1135 *  0.0000     2          
   317  Cl    s      2.2270 *     7.7945 *     7.7945 *  0.0000     2          
   318  O     s      0.0000       5.5675 *    10.0214 *  0.0000     1          
   319  O     s      0.0000      10.0214 *     5.5675 *  0.0000     1          
   320  O     s      4.4540 *    10.0214 *    -3.3405 *  0.0000     2          
   321  O     s      4.4540 *    -3.3405 *    10.0214 *  0.0000     2          
   322  Cl    s      2.2270 *    -5.5675 *   -10.0214 *  0.0000     2          
   323  Cl    s      2.2270 *   -10.0214 *    -5.5675 *  0.0000     2          
   324  Cl    s      6.6810 *    -5.5675 *     7.7945 *  0.0000     2          
   325  Cl    s     11.1349 *    -1.1135 *     3.3405 *  0.0000     2          
   326  Cl    s     11.1349 *     3.3405 *    -1.1135 *  0.0000     2          
   327  Cl    s      6.6810 *     7.7945 *    -5.5675 *  0.0000     2          
   328  O     s      8.9079 *     1.1135 *    -7.7945 *  0.0000     2          
   329  O     s      8.9079 *     5.5675 *     5.5675 *  0.0000     2          
   330  O     s      8.9079 *    -7.7945 *     1.1135 *  0.0000     2          
   331  O     s      4.4540 *    -7.7945 *    -7.7945 *  0.0000     2          
--------------------------------------------------------------------------------

  Components of defect energy : 

--------------------------------------------------------------------------------
  Region 1 - region 1                   =      9.71753591 eV
  Region 1 - region 2a (unrelaxed)      =     -0.02495664 eV
  Region 1 - 2a (relaxed - correction)  =     -0.30200118 eV
  Region 1 (Total)                      =      9.39057809 eV
  Region 2a                             =      0.15092024 eV
  Region 2b                             =     -0.42938381 eV
--------------------------------------------------------------------------------
  Total defect energy                   =      9.11211452 eV
--------------------------------------------------------------------------------

  Largest displacement in region 2 =   0.0192 Angstroms


  Number of variables =      904

  Maximum number of calculations  =        1000
  Maximum Hessian update interval =          10
  Maximum step size               =   1.0000000
  Maximum parameter tolerance     =   0.0000100
  Maximum function  tolerance     =   0.0000100
  Maximum gradient  tolerance     =   0.0010000

  Symmetry adapted optimisation

  Symmetry to be used for second derivatives

  Newton-Raphson optimiser to be used

  BFGS hessian update to be used

  Lower half triangular hessian to be used

  Start of defect optimisation :

  Cycle:      0 Defect Energy:   9.112115  Gnorm:     0.021311  CPU:    3.133
  ** Hessian calculated **
  Cycle:      1 Defect Energy:   6.884432  Gnorm:     0.008529  CPU:    8.306
  Cycle:      2 Defect Energy:   6.052695  Gnorm:     0.006223  CPU:   11.894
  Cycle:      3 Defect Energy:   5.586443  Gnorm:     0.004905  CPU:   16.278
  Cycle:      4 Defect Energy:   5.278444  Gnorm:     0.003784  CPU:   20.338
  Cycle:      5 Defect Energy:   5.156181  Gnorm:     0.002388  CPU:   21.193
  Cycle:      6 Defect Energy:   5.056552  Gnorm:     0.001733  CPU:   22.056
  Cycle:      7 Defect Energy:   4.972139  Gnorm:     0.001285  CPU:   22.926
  Cycle:      8 Defect Energy:   4.901911  Gnorm:     0.001147  CPU:   23.907
  Cycle:      9 Defect Energy:   4.850217  Gnorm:     0.001171  CPU:   24.461
  Cycle:     10 Defect Energy:   4.804715  Gnorm:     0.001208  CPU:   28.387
  ** Hessian calculated **
  Cycle:     11 Defect Energy:   4.750470  Gnorm:     0.001129  CPU:   32.258
  Cycle:     12 Defect Energy:   4.663756  Gnorm:     0.000900  CPU:   33.359
  Cycle:     13 Defect Energy:   4.621909  Gnorm:     0.000680  CPU:   34.603
  Cycle:     14 Defect Energy:   4.680951  Gnorm:     0.001179  CPU:   35.680
  ** Hessian calculated **
  Cycle:     15 Defect Energy:   4.639909  Gnorm:     0.000845  CPU:   38.390
  Cycle:     16 Defect Energy:   4.614561  Gnorm:     0.000607  CPU:   39.513
  Cycle:     17 Defect Energy:   4.598743  Gnorm:     0.000386  CPU:   40.516
  Cycle:     18 Defect Energy:   4.599106  Gnorm:     0.000580  CPU:   41.516
  ** Hessian calculated **
  Cycle:     19 Defect Energy:   4.583606  Gnorm:     0.000425  CPU:   44.206
  Cycle:     20 Defect Energy:   4.572854  Gnorm:     0.000346  CPU:   45.140
  Cycle:     21 Defect Energy:   4.563324  Gnorm:     0.000211  CPU:   46.077
  Cycle:     22 Defect Energy:   4.557980  Gnorm:     0.000225  CPU:   47.022
  Cycle:     23 Defect Energy:   4.551188  Gnorm:     0.000302  CPU:   47.948
  Cycle:     24 Defect Energy:   4.547246  Gnorm:     0.000294  CPU:   48.960
  ** Hessian calculated **
  Cycle:     25 Defect Energy:   4.546553  Gnorm:     0.000167  CPU:   51.425
  Cycle:     26 Defect Energy:   4.545883  Gnorm:     0.000124  CPU:   52.343
  Cycle:     27 Defect Energy:   4.545362  Gnorm:     0.000102  CPU:   53.292
  Cycle:     28 Defect Energy:   4.544600  Gnorm:     0.000117  CPU:   54.268
  Cycle:     29 Defect Energy:   4.543893  Gnorm:     0.000147  CPU:   55.195
  Cycle:     30 Defect Energy:   4.542976  Gnorm:     0.000156  CPU:   56.105
  Cycle:     31 Defect Energy:   4.542092  Gnorm:     0.000163  CPU:   56.986
  Cycle:     32 Defect Energy:   4.540980  Gnorm:     0.000167  CPU:   57.901
  Cycle:     33 Defect Energy:   4.539718  Gnorm:     0.000168  CPU:   58.810
  Cycle:     34 Defect Energy:   4.538061  Gnorm:     0.000180  CPU:   59.768
  ** Hessian calculated **
  Cycle:     35 Defect Energy:   4.537615  Gnorm:     0.000152  CPU:   66.168
  Cycle:     36 Defect Energy:   4.536985  Gnorm:     0.000136  CPU:   67.243
  Cycle:     37 Defect Energy:   4.536180  Gnorm:     0.000131  CPU:   68.364
  Cycle:     38 Defect Energy:   4.535102  Gnorm:     0.000114  CPU:   69.446
  Cycle:     39 Defect Energy:   4.533855  Gnorm:     0.000113  CPU:   70.654
  Cycle:     40 Defect Energy:   4.532498  Gnorm:     0.000153  CPU:   71.700
  Cycle:     41 Defect Energy:   4.531577  Gnorm:     0.000129  CPU:   72.722
  Cycle:     42 Defect Energy:   4.530628  Gnorm:     0.000155  CPU:   73.779
  Cycle:     43 Defect Energy:   4.529363  Gnorm:     0.000186  CPU:   74.880
  Cycle:     44 Defect Energy:   4.527241  Gnorm:     0.000235  CPU:   75.913
  ** Hessian calculated **
  Cycle:     45 Defect Energy:   4.526475  Gnorm:     0.000199  CPU:   78.644
  Cycle:     46 Defect Energy:   4.525294  Gnorm:     0.000178  CPU:   79.722
  Cycle:     47 Defect Energy:   4.523769  Gnorm:     0.000172  CPU:   80.685
  Cycle:     48 Defect Energy:   4.521590  Gnorm:     0.000148  CPU:   81.649
  Cycle:     49 Defect Energy:   4.518963  Gnorm:     0.000142  CPU:   82.585
  Cycle:     50 Defect Energy:   4.515486  Gnorm:     0.000207  CPU:   83.534
  Cycle:     51 Defect Energy:   4.511122  Gnorm:     0.000229  CPU:   84.307
  Cycle:     52 Defect Energy:   4.505512  Gnorm:     0.000343  CPU:   85.043
  Cycle:     53 Defect Energy:   4.498444  Gnorm:     0.000504  CPU:   85.952
  Cycle:     54 Defect Energy:   4.492098  Gnorm:     0.000577  CPU:   86.886
  ** Hessian calculated **
  Cycle:     55 Defect Energy:   4.486525  Gnorm:     0.000519  CPU:   89.589
  Cycle:     56 Defect Energy:   4.479165  Gnorm:     0.000482  CPU:   90.474
  Cycle:     57 Defect Energy:   4.469264  Gnorm:     0.000426  CPU:   91.350
  Cycle:     58 Defect Energy:   4.457116  Gnorm:     0.000394  CPU:   92.270
  Cycle:     59 Defect Energy:   4.443164  Gnorm:     0.000294  CPU:   93.154
  Cycle:     60 Defect Energy:   4.436112  Gnorm:     0.000294  CPU:   94.049
  Cycle:     61 Defect Energy:   4.430093  Gnorm:     0.000370  CPU:   94.930
  Cycle:     62 Defect Energy:   4.425539  Gnorm:     0.000344  CPU:   97.384
  Cycle:     63 Defect Energy:   4.421039  Gnorm:     0.000345  CPU:  100.312
  Cycle:     64 Defect Energy:   4.416194  Gnorm:     0.000381  CPU:  101.461
  ** Hessian calculated **
  Cycle:     65 Defect Energy:   4.414221  Gnorm:     0.000322  CPU:  104.412
  Cycle:     66 Defect Energy:   4.411689  Gnorm:     0.000291  CPU:  105.623
  Cycle:     67 Defect Energy:   4.408265  Gnorm:     0.000277  CPU:  106.687
  Cycle:     68 Defect Energy:   4.404066  Gnorm:     0.000238  CPU:  107.776
  Cycle:     69 Defect Energy:   4.399146  Gnorm:     0.000234  CPU:  108.808
  Cycle:     70 Defect Energy:   4.395787  Gnorm:     0.000275  CPU:  109.963
  Cycle:     71 Defect Energy:   4.392954  Gnorm:     0.000223  CPU:  111.069
  Cycle:     72 Defect Energy:   4.390102  Gnorm:     0.000255  CPU:  112.096
  Cycle:     73 Defect Energy:   4.386106  Gnorm:     0.000308  CPU:  113.066
  Cycle:     74 Defect Energy:   4.380411  Gnorm:     0.000376  CPU:  113.976
  ** Hessian calculated **
  Cycle:     75 Defect Energy:   4.378493  Gnorm:     0.000317  CPU:  116.646
  Cycle:     76 Defect Energy:   4.375761  Gnorm:     0.000289  CPU:  117.661
  Cycle:     77 Defect Energy:   4.372190  Gnorm:     0.000272  CPU:  118.622
  Cycle:     78 Defect Energy:   4.367393  Gnorm:     0.000237  CPU:  119.655
  Cycle:     79 Defect Energy:   4.361718  Gnorm:     0.000229  CPU:  120.594
  Cycle:     80 Defect Energy:   4.355625  Gnorm:     0.000377  CPU:  121.478
  Cycle:     81 Defect Energy:   4.350810  Gnorm:     0.000285  CPU:  122.416
  Cycle:     82 Defect Energy:   4.345981  Gnorm:     0.000353  CPU:  123.334
  Cycle:     83 Defect Energy:   4.339121  Gnorm:     0.000446  CPU:  124.255
  Cycle:     84 Defect Energy:   4.328718  Gnorm:     0.000613  CPU:  125.267
  ** Hessian calculated **
  Cycle:     85 Defect Energy:   4.323054  Gnorm:     0.000501  CPU:  127.661
  Cycle:     86 Defect Energy:   4.315206  Gnorm:     0.000444  CPU:  128.594
  Cycle:     87 Defect Energy:   4.305089  Gnorm:     0.000426  CPU:  129.474
  Cycle:     88 Defect Energy:   4.291717  Gnorm:     0.000341  CPU:  130.415
  Cycle:     89 Defect Energy:   4.276041  Gnorm:     0.000317  CPU:  131.011
  Cycle:     90 Defect Energy:   4.261612  Gnorm:     0.000566  CPU:  135.445
  Cycle:     91 Defect Energy:   4.247598  Gnorm:     0.000431  CPU:  136.938
  Cycle:     92 Defect Energy:   4.237314  Gnorm:     0.000528  CPU:  138.016
  Cycle:     93 Defect Energy:   4.224017  Gnorm:     0.000671  CPU:  139.051
  Cycle:     94 Defect Energy:   4.211673  Gnorm:     0.000679  CPU:  140.095
  ** Hessian calculated **
  Cycle:     95 Defect Energy:   4.185803  Gnorm:     0.000617  CPU:  142.905
  Cycle:     96 Defect Energy:   4.144956  Gnorm:     0.000476  CPU:  143.929
  Cycle:     97 Defect Energy:   4.132107  Gnorm:     0.000412  CPU:  144.958
  ** Hessian calculated **
  Cycle:     98 Defect Energy:   4.125757  Gnorm:     0.000298  CPU:  147.816
  Cycle:     99 Defect Energy:   4.122504  Gnorm:     0.000206  CPU:  148.830
  Cycle:    100 Defect Energy:   4.120981  Gnorm:     0.000141  CPU:  149.777
  Cycle:    101 Defect Energy:   4.120287  Gnorm:     0.000107  CPU:  150.731
  Cycle:    102 Defect Energy:   4.119922  Gnorm:     0.000069  CPU:  151.788
  Cycle:    103 Defect Energy:   4.119765  Gnorm:     0.000047  CPU:  152.808
  Cycle:    104 Defect Energy:   4.119750  Gnorm:     0.000045  CPU:  153.799
  ** Hessian calculated **
  Cycle:    105 Defect Energy:   4.119707  Gnorm:     0.000031  CPU:  156.495
  Cycle:    106 Defect Energy:   4.119692  Gnorm:     0.000022  CPU:  157.516


  **** Optimisation achieved ****


  Final defect energy  =        4.11968825
  Final defect Gnorm   =        0.00001541

  Components of defect energy : 

--------------------------------------------------------------------------------
  Region 1 - region 1                   =      6.50534426 eV
  Region 1 - region 2a (unrelaxed)      =     -1.83767674 eV
  Region 1 - 2a (relaxed - correction)  =     -0.23672326 eV
  Region 1 (Total)                      =      4.43094425 eV
  Region 2a                             =      0.11816628 eV
  Region 2b                             =     -0.42942228 eV
--------------------------------------------------------------------------------
  Total defect energy                   =      4.11968825 eV
--------------------------------------------------------------------------------

  Largest displacement in region 2 =   0.0192 Angstroms

  Final coordinates of region 1 :

--------------------------------------------------------------------------------
   No.  Atomic        x           y           z          Radius      Charge
        Label       (Angs)      (Angs)      (Angs)       (Angs)       (e) 
--------------------------------------------------------------------------------
     1  Na    c     2.226987    1.068954    1.158033    0.000000    1.000000
     2  O     c     2.226987    2.631845    2.602090    0.000000    1.443000
     3  Cl    c     4.481231   -0.096400   -0.061293    0.000000    0.996000
     4  Cl    c    -0.027257   -0.096400   -0.061293    0.000000    0.996000
     5  Na    c     4.429508    2.567100    2.486142    0.000000    1.000000
     6  Na    c     0.024466    2.567100    2.486142    0.000000    1.000000
     7  O     c     2.226987    2.237351   -2.085628    0.000000    1.443000
     8  O     c     2.226987   -2.057525    2.240656    0.000000    1.443000
     9  Na    c     2.226987    1.700179    4.525852    0.000000    1.000000
    10  Na    c     2.226987   -2.251201    0.045261    0.000000    1.000000
    11  Na    c     2.226987    0.056133   -2.382146    0.000000    1.000000
    12  Na    c     2.226987    4.533409    1.619732    0.000000    1.000000
    13  Cl    c     4.545232    0.011090    4.604430    0.000000    0.996000
    14  Cl    c    -0.091258    0.011090    4.604430    0.000000    0.996000
    15  Cl    c     4.555800    4.575096   -0.014527    0.000000    0.996000
    16  Cl    c    -0.101826    4.575096   -0.014527    0.000000    0.996000
    17  Na    c     4.399878    2.168255   -1.978873    0.000000    1.000000
    18  Na    c     0.054096    2.168255   -1.978873    0.000000    1.000000
    19  Na    c     4.405165   -2.084516    2.284647    0.000000    1.000000
    20  Na    c     0.048809   -2.084516    2.284647    0.000000    1.000000
    21  O     c    -2.200609    2.264730    2.258665    0.000000    1.443000
    22  O     c     6.654582    2.264730    2.258665    0.000000    1.443000
    23  Na    c    -2.100372    0.050732    1.844548    0.000000    1.000000
    24  Na    c     6.554346    0.050732    1.844548    0.000000    1.000000
    25  O     c     2.226987   -2.195630   -2.210668    0.000000    1.443000
    26  Na    c     2.226987   -1.762883    4.419053    0.000000    1.000000
    27  Na    c    -2.226162    2.672298    0.036915    0.000000    1.000000
    28  Na    c     6.680135    2.672298    0.036915    0.000000    1.000000
    29  Na    c     2.226987    4.414790   -1.789512    0.000000    1.000000
    30  Cl    c     4.609325    4.589266    4.543792    0.000000    0.996000
    31  Cl    c    -0.155351    4.589266    4.543792    0.000000    0.996000
    32  Na    c     4.455957   -2.122723   -2.270990    0.000000    1.000000
    33  Na    c    -0.001983   -2.122723   -2.270990    0.000000    1.000000
    34  O     c     2.226987    2.173218    6.724395    0.000000    1.443000
    35  O     c     2.226987    6.726118    2.148355    0.000000    1.443000
    36  O     c    -2.194477    2.231649   -2.185068    0.000000    1.443000
    37  O     c     6.648451    2.231649   -2.185068    0.000000    1.443000
    38  O     c    -2.201044   -2.180959    2.229672    0.000000    1.443000
    39  O     c     6.655018   -2.180959    2.229672    0.000000    1.443000
    40  Na    c     2.226987    2.517428   -4.318889    0.000000    1.000000
    41  Na    c     2.226987    7.232037   -0.034448    0.000000    1.000000
    42  Na    c    -2.286581    1.857114    4.475584    0.000000    1.000000
    43  Na    c     6.740554    1.857114    4.475584    0.000000    1.000000
    44  Na    c    -2.094363   -2.589775    0.009950    0.000000    1.000000
    45  Na    c     6.548337   -2.589775    0.009950    0.000000    1.000000
    46  Na    c     2.226987   -0.028111    7.170459    0.000000    1.000000
    47  Na    c     2.226987   -4.306995    2.463260    0.000000    1.000000
    48  Na    c    -2.294493    0.009953   -1.824024    0.000000    1.000000
    49  Na    c     6.748467    0.009953   -1.824024    0.000000    1.000000
    50  Na    c    -2.367647    4.484681    2.644023    0.000000    1.000000
    51  Na    c     6.821620    4.484681    2.644023    0.000000    1.000000
    52  Cl    c     4.455560   -0.066967   -4.480607    0.000000    0.996000
    53  Cl    c    -0.001586   -0.066967   -4.480607    0.000000    0.996000
    54  Cl    c     4.437720   -4.503815   -0.050476    0.000000    0.996000
    55  Cl    c     0.016254   -4.503815   -0.050476    0.000000    0.996000
    56  Na    c     4.468241    2.259965    6.676188    0.000000    1.000000
    57  Na    c    -0.014267    2.259965    6.676188    0.000000    1.000000
    58  Na    c     4.472939    6.656594    2.084435    0.000000    1.000000
    59  Na    c    -0.018966    6.656594    2.084435    0.000000    1.000000
    60  O     c     2.226987    6.663190   -2.206429    0.000000    1.443000
    61  O     c     2.226987   -2.216899    6.654982    0.000000    1.443000
    62  O     c    -2.238627   -2.214673   -2.213841    0.000000    1.443000
    63  O     c     6.692601   -2.214673   -2.213841    0.000000    1.443000
    64  Na    c     2.226987    6.382381    4.357666    0.000000    1.000000
    65  Na    c     2.226987   -2.347072   -4.438672    0.000000    1.000000
    66  Na    c    -2.294074   -1.840776    4.452641    0.000000    1.000000
    67  Na    c     6.748048   -1.840776    4.452641    0.000000    1.000000
    68  Na    c     2.226987    4.383275    6.462766    0.000000    1.000000
    69  Na    c     2.226987   -4.424995   -2.232306    0.000000    1.000000
    70  Na    c    -2.129119    4.442033   -2.601863    0.000000    1.000000
    71  Na    c     6.583093    4.442033   -2.601863    0.000000    1.000000
    72  Cl    c     4.489514    4.511100   -4.533549    0.000000    0.996000
    73  Cl    c    -0.035540    4.511100   -4.533549    0.000000    0.996000
    74  Cl    c     4.498687   -4.491474    4.493392    0.000000    0.996000
    75  Cl    c    -0.044714   -4.491474    4.493392    0.000000    0.996000
    76  Na    c     4.461108    6.691605   -2.110877    0.000000    1.000000
    77  Na    c    -0.007135    6.691605   -2.110877    0.000000    1.000000
    78  Na    c     4.457706   -2.244808    6.595601    0.000000    1.000000
    79  Na    c    -0.003732   -2.244808    6.595601    0.000000    1.000000
    80  Cl    c     8.918596    0.003477    0.044220    0.000000    0.996000
    81  Cl    c    -4.464622    0.003477    0.044220    0.000000    0.996000
    82  Na    c     8.895763    2.133686    2.207503    0.000000    1.000000
    83  Na    c    -4.441789    2.133686    2.207503    0.000000    1.000000
    84  O     c    -2.251458    6.692972    2.225651    0.000000    1.443000
    85  O     c     6.705432    6.692972    2.225651    0.000000    1.443000
    86  Na    c    -2.385220    6.364779   -0.000054    0.000000    1.000000
    87  Na    c     6.839194    6.364779   -0.000054    0.000000    1.000000
    88  Na    c    -2.239854   -4.398784    2.597777    0.000000    1.000000
    89  Na    c     6.693828   -4.398784    2.597777    0.000000    1.000000
    90  O     c     6.701999    2.233223    6.691774    0.000000    1.443000
    91  O     c    -2.248025    2.233223    6.691774    0.000000    1.443000
    92  Na    c     6.593447    1.868641   -4.410406    0.000000    1.000000
    93  Na    c    -2.139473    1.868641   -4.410406    0.000000    1.000000
    94  Na    c     6.571510    0.010287    7.042743    0.000000    1.000000
    95  Na    c    -2.117536    0.010287    7.042743    0.000000    1.000000
    96  Cl    c     8.963865    0.011159    4.487664    0.000000    0.996000
    97  Cl    c    -4.509891    0.011159    4.487664    0.000000    0.996000
    98  Cl    c     8.962582    4.438475   -0.005579    0.000000    0.996000
    99  Cl    c    -4.508608    4.438475   -0.005579    0.000000    0.996000
   100  Na    c     8.883818    2.322841   -2.215368    0.000000    1.000000
   101  Na    c    -4.429844    2.322841   -2.215368    0.000000    1.000000
   102  Na    c     8.885227   -2.106557    2.107658    0.000000    1.000000
   103  Na    c    -4.431253   -2.106557    2.107658    0.000000    1.000000
   104  O     c     2.226987    6.625657    6.614487    0.000000    1.443000
   105  O     c    -2.239332    6.663972   -2.227603    0.000000    1.443000
   106  O     c     6.693305    6.663972   -2.227603    0.000000    1.443000
   107  O     c    -2.238388   -2.210680    6.676237    0.000000    1.443000
   108  O     c     6.692362   -2.210680    6.676237    0.000000    1.443000
   109  Na    c     2.226987    6.329623   -4.430042    0.000000    1.000000
   110  Na    c    -2.058725    7.000429    4.446811    0.000000    1.000000
   111  Na    c     6.512699    7.000429    4.446811    0.000000    1.000000
   112  Na    c    -2.312477   -1.862663   -4.436424    0.000000    1.000000
   113  Na    c     6.766451   -1.862663   -4.436424    0.000000    1.000000
   114  Na    c     2.226987   -4.433655    6.309838    0.000000    1.000000
   115  Na    c    -2.345249    4.462422    6.377863    0.000000    1.000000
   116  Na    c     6.799223    4.462422    6.377863    0.000000    1.000000
   117  Na    c    -2.153255   -4.423748   -2.588713    0.000000    1.000000
   118  Na    c     6.607229   -4.423748   -2.588713    0.000000    1.000000
   119  O     c     2.226987    2.246157   -6.617054    0.000000    1.443000
   120  O     c     2.226987   -6.616492    2.239824    0.000000    1.443000
   121  Na    c     2.226987    2.517061    8.925587    0.000000    1.000000
   122  Na    c     2.226987   -6.482104    0.018748    0.000000    1.000000
   123  Na    c     2.226987    0.021638   -6.468300    0.000000    1.000000
   124  Na    c     2.226987    8.915994    2.558635    0.000000    1.000000
   125  Cl    c     4.421572   -4.482779   -4.490363    0.000000    0.996000
   126  Cl    c     0.032402   -4.482779   -4.490363    0.000000    0.996000
   127  Na    c     4.461788    6.554785    6.706010    0.000000    1.000000
   128  Na    c    -0.007815    6.554785    6.706010    0.000000    1.000000
   129  Cl    c     4.463930   -0.008535    8.993547    0.000000    0.996000
   130  Cl    c    -0.009956   -0.008535    8.993547    0.000000    0.996000
   131  Cl    c     4.505322    8.975865   -0.027311    0.000000    0.996000
   132  Cl    c    -0.051349    8.975865   -0.027311    0.000000    0.996000
   133  Cl    c     8.995823    4.500865    4.481674    0.000000    0.996000
   134  Cl    c    -4.541849    4.500865    4.481674    0.000000    0.996000
   135  Na    c     4.445272    2.315503   -6.642975    0.000000    1.000000
   136  Na    c     0.008702    2.315503   -6.642975    0.000000    1.000000
   137  Na    c     4.447971   -6.567550    2.177920    0.000000    1.000000
   138  Na    c     0.006003   -6.567550    2.177920    0.000000    1.000000
   139  Na    c     8.906016   -2.314657   -2.095137    0.000000    1.000000
   140  Na    c    -4.452043   -2.314657   -2.095137    0.000000    1.000000
   141  O     c     2.226987   -2.217937   -6.671345    0.000000    1.443000
   142  O     c     2.226987   -6.673589   -2.214094    0.000000    1.443000
   143  Na    c     2.226987   -2.576149    8.879129    0.000000    1.000000
   144  Na    c     2.226987   -6.915912    4.441223    0.000000    1.000000
   145  Na    c     2.226987    4.448464   -6.930687    0.000000    1.000000
   146  Na    c     2.226987    8.881227   -2.608640    0.000000    1.000000
   147  Cl    c     4.453711    4.479863    8.936950    0.000000    0.996000
   148  Cl    c     0.000263    4.479863    8.936950    0.000000    0.996000
   149  Cl    c     8.938940    0.026463   -4.479625    0.000000    0.996000
   150  Cl    c    -4.484966    0.026463   -4.479625    0.000000    0.996000
   151  Cl    c     8.945121   -4.450123    0.000981    0.000000    0.996000
   152  Cl    c    -4.491148   -4.450123    0.000981    0.000000    0.996000
   153  Na    c     4.455616   -2.243603   -6.579898    0.000000    1.000000
   154  Na    c    -0.001643   -2.243603   -6.579898    0.000000    1.000000
   155  Na    c     8.917632    2.079820    6.720445    0.000000    1.000000
   156  Na    c    -4.463658    2.079820    6.720445    0.000000    1.000000
   157  Na    c     8.919648    6.765399    2.401833    0.000000    1.000000
   158  Na    c    -4.465674    6.765399    2.401833    0.000000    1.000000
   159  Cl    c     4.435580    8.984538    4.472478    0.000000    0.996000
   160  Cl    c     0.018394    8.984538    4.472478    0.000000    0.996000
   161  Na    c     4.453457   -6.644753   -2.162957    0.000000    1.000000
   162  Na    c     0.000516   -6.644753   -2.162957    0.000000    1.000000
   163  O     c    11.130863    2.212740    2.231945    0.000000    1.443000
   164  O     c    -6.676889    2.212740    2.231945    0.000000    1.443000
   165  Na    c    11.130729    1.861046    0.012963    0.000000    1.000000
   166  Na    c    -6.676756    1.861046    0.012963    0.000000    1.000000
   167  Na    c    11.192162    0.005451    2.629208    0.000000    1.000000
   168  Na    c    -6.738188    0.005451    2.629208    0.000000    1.000000
   169  O     c     6.696015    6.694012    6.667807    0.000000    1.443000
   170  O     c    -2.242041    6.694012    6.667807    0.000000    1.443000
   171  O     c     6.674649   -6.631520    2.218356    0.000000    1.443000
   172  O     c    -2.220676   -6.631520    2.218356    0.000000    1.443000
   173  O     c    -2.219373    2.216036   -6.642354    0.000000    1.443000
   174  O     c     6.673347    2.216036   -6.642354    0.000000    1.443000
   175  Na    c     6.589299    6.950663   -4.444813    0.000000    1.000000
   176  Na    c    -2.135326    6.950663   -4.444813    0.000000    1.000000
   177  Na    c     6.756268   -6.375517   -0.005662    0.000000    1.000000
   178  Na    c    -2.302295   -6.375517   -0.005662    0.000000    1.000000
   179  Na    c    -2.248845    2.532369    8.903371    0.000000    1.000000
   180  Na    c     6.702819    2.532369    8.903371    0.000000    1.000000
   181  Na    c     6.700350    8.907093    1.934660    0.000000    1.000000
   182  Na    c    -2.246376    8.907093    1.934660    0.000000    1.000000
   183  Na    c     6.736837   -4.437733    6.412313    0.000000    1.000000
   184  Na    c    -2.282863   -4.437733    6.412313    0.000000    1.000000
   185  Na    c    -2.123094    0.006675   -6.977349    0.000000    1.000000
   186  Na    c     6.577067    0.006675   -6.977349    0.000000    1.000000
   187  Cl    c     8.952966    4.467646   -4.453576    0.000000    0.996000
   188  Cl    c    -4.498993    4.467646   -4.453576    0.000000    0.996000
   189  Cl    c     8.935511   -4.496122    4.469548    0.000000    0.996000
   190  Cl    c    -4.481538   -4.496122    4.469548    0.000000    0.996000
   191  Na    c     8.912006    6.603369   -2.359871    0.000000    1.000000
   192  Na    c    -4.458032    6.603369   -2.359871    0.000000    1.000000
   193  Na    c     8.909281   -2.120733    6.741615    0.000000    1.000000
   194  Na    c    -4.455307   -2.120733    6.741615    0.000000    1.000000
   195  O     c    11.122770    2.212599   -2.200725    0.000000    1.443000
   196  O     c    -6.668796    2.212599   -2.200725    0.000000    1.443000
   197  O     c    11.123198   -2.203032    2.232368    0.000000    1.443000
   198  O     c    -6.669225   -2.203032    2.232368    0.000000    1.443000
   199  Na    c    11.118648    2.560210    4.448672    0.000000    1.000000
   200  Na    c    -6.664674    2.560210    4.448672    0.000000    1.000000
   201  Na    c    11.212330   -1.905544    0.011739    0.000000    1.000000
   202  Na    c    -6.758356   -1.905544    0.011739    0.000000    1.000000
   203  Na    c    11.080241    0.002913   -2.560321    0.000000    1.000000
   204  Na    c    -6.626267    0.002913   -2.560321    0.000000    1.000000
   205  Na    c    11.088833    4.439612    1.927135    0.000000    1.000000
   206  Na    c    -6.634860    4.439612    1.927135    0.000000    1.000000
   207  O     c     2.226987    6.666715   -6.661493    0.000000    1.443000
   208  O     c     2.226987   -6.653121    6.666455    0.000000    1.443000
   209  O     c     6.684203   -2.211420   -6.662159    0.000000    1.443000
   210  O     c    -2.230229   -2.211420   -6.662159    0.000000    1.443000
   211  O     c     6.680719   -6.648098   -2.232294    0.000000    1.443000
   212  O     c    -2.226745   -6.648098   -2.232294    0.000000    1.443000
   213  Na    c     2.226987    6.572315    8.862468    0.000000    1.000000
   214  Na    c     2.226987   -6.649581   -4.448268    0.000000    1.000000
   215  Na    c     6.649304   -2.470234    8.893056    0.000000    1.000000
   216  Na    c    -2.195330   -2.470234    8.893056    0.000000    1.000000
   217  Na    c     6.586031   -6.887070    4.439260    0.000000    1.000000
   218  Na    c    -2.132057   -6.887070    4.439260    0.000000    1.000000
   219  Na    c     2.226987    8.865961    6.536160    0.000000    1.000000
   220  Na    c     2.226987   -4.446191   -6.743746    0.000000    1.000000
   221  Na    c     6.741808    4.451643   -6.461394    0.000000    1.000000
   222  Na    c    -2.287834    4.451643   -6.461394    0.000000    1.000000
   223  Na    c     6.748999    8.892763   -2.013116    0.000000    1.000000
   224  Na    c    -2.295026    8.892763   -2.013116    0.000000    1.000000
   225  Cl    c     4.472714   -4.484619    8.950488    0.000000    0.996000
   226  Cl    c    -0.018740   -4.484619    8.950488    0.000000    0.996000
   227  Na    c     4.453971    6.611022   -6.681022    0.000000    1.000000
   228  Na    c     0.000003    6.611022   -6.681022    0.000000    1.000000
   229  Cl    c     4.459230    8.968602   -4.481060    0.000000    0.996000
   230  Cl    c    -0.005257    8.968602   -4.481060    0.000000    0.996000
   231  Na    c     4.453606   -6.632961    6.684181    0.000000    1.000000
   232  Na    c     0.000368   -6.632961    6.684181    0.000000    1.000000
   233  O     c     2.226987    2.231628   11.136966    0.000000    1.443000
   234  O     c     2.226987   11.129878    2.226486    0.000000    1.443000
   235  Na    c     2.226987    2.082248   -8.877519    0.000000    1.000000
[...]
    251 y         -2.226987     -2.181116     0.045871    Cartesian   -2.06
    251 z          2.226987      2.229607     0.002620    Cartesian    0.12
    252 x          4.453974      4.473736     0.019762    Cartesian    0.44
    252 y          0.000000     -0.086804    -0.086804    Cartesian    0.00
    252 z         -4.453974     -4.489004    -0.035030    Cartesian    0.79
    253 x          4.453974      4.452515    -0.001459    Cartesian   -0.03
    253 y         -4.453974     -4.521708    -0.067734    Cartesian    1.52
    253 z          0.000000     -0.061654    -0.061654    Cartesian    0.00
    254 x          2.226987      2.226987     0.000000    Cartesian    0.00
    254 y          6.680961      6.692477     0.011517    Cartesian    0.17
    254 z         -2.226987     -2.197642     0.029345    Cartesian   -1.32
    255 x          2.226987      2.226987     0.000000    Cartesian    0.00
    255 y         -2.226987     -2.221246     0.005741    Cartesian   -0.26
    255 z          6.680961      6.668399    -0.012562    Cartesian   -0.19
    256 x         -2.226987     -2.241126    -0.014139    Cartesian    0.63
    256 y         -2.226987     -2.222959     0.004027    Cartesian   -0.18
    256 z         -2.226987     -2.213451     0.013535    Cartesian   -0.61
    257 x          4.453974      4.502147     0.048174    Cartesian    1.08
    257 y          4.453974      4.527523     0.073549    Cartesian    1.65
    257 z         -4.453974     -4.546697    -0.092723    Cartesian    2.08
    258 x          4.453974      4.510497     0.056523    Cartesian    1.27
    258 y         -4.453974     -4.503293    -0.049319    Cartesian    1.11
    258 z          4.453974      4.507274     0.053300    Cartesian    1.20
    259 x          8.907948      8.915387     0.007439    Cartesian    0.08
    259 y          0.000000      0.002474     0.002474    Cartesian    0.00
    259 z          0.000000      0.053217     0.053217    Cartesian    0.00
    260 x         -2.226987     -2.260735    -0.033748    Cartesian    1.52
    260 y          6.680961      6.702848     0.021887    Cartesian    0.33
    260 z          2.226987      2.236223     0.009236    Cartesian    0.41
    261 x          6.680961      6.707652     0.026691    Cartesian    0.40
    261 y          2.226987      2.221794    -0.005193    Cartesian   -0.23
    261 z          6.680961      6.702126     0.021166    Cartesian    0.32
    262 x          8.907948      8.955496     0.047548    Cartesian    0.53
    262 y          0.000000      0.015842     0.015842    Cartesian    0.00
    262 z          4.453974      4.488080     0.034106    Cartesian    0.77
    263 x          8.907948      8.957188     0.049240    Cartesian    0.55
    263 y          4.453974      4.436169    -0.017805    Cartesian   -0.40
    263 z          0.000000     -0.005511    -0.005511    Cartesian    0.00
    264 x          2.226987      2.226987     0.000000    Cartesian    0.00
    264 y          6.680961      6.602003    -0.078958    Cartesian   -1.18
    264 z          6.680961      6.621063    -0.059898    Cartesian   -0.90
    265 x         -2.226987     -2.243675    -0.016688    Cartesian    0.75
    265 y          6.680961      6.669551    -0.011410    Cartesian   -0.17
    265 z         -2.226987     -2.243744    -0.016757    Cartesian    0.75
    266 x         -2.226987     -2.241472    -0.014486    Cartesian    0.65
    266 y         -2.226987     -2.206892     0.020095    Cartesian   -0.90
    266 z          6.680961      6.690871     0.009910    Cartesian    0.15
    267 x          2.226987      2.226987     0.000000    Cartesian    0.00
    267 y          2.226987      2.260501     0.033515    Cartesian    1.50
    267 z         -6.680961     -6.647964     0.032997    Cartesian   -0.49
    268 x          2.226987      2.226987     0.000000    Cartesian    0.00
    268 y         -6.680961     -6.640790     0.040171    Cartesian   -0.60
    268 z          2.226987      2.234470     0.007483    Cartesian    0.34
    269 x          4.453974      4.426544    -0.027429    Cartesian   -0.62
    269 y         -4.453974     -4.483933    -0.029960    Cartesian    0.67
    269 z         -4.453974     -4.488199    -0.034226    Cartesian    0.77
    270 x          4.453974      4.467457     0.013483    Cartesian    0.30
    270 y          0.000000     -0.008427    -0.008427    Cartesian    0.00
    270 z          8.907948      8.988800     0.080852    Cartesian    0.91
    271 x          4.453974      4.504301     0.050327    Cartesian    1.13
    271 y          8.907948      8.971425     0.063478    Cartesian    0.71
    271 z          0.000000     -0.029018    -0.029018    Cartesian    0.00
    272 x          8.907948      8.991692     0.083745    Cartesian    0.94
    272 y          4.453974      4.505847     0.051873    Cartesian    1.16
    272 z          4.453974      4.478155     0.024181    Cartesian    0.54
    273 x          2.226987      2.226987     0.000000    Cartesian    0.00
    273 y         -2.226987     -2.232262    -0.005275    Cartesian    0.24
    273 z         -6.680961     -6.657232     0.023728    Cartesian   -0.36
    274 x          2.226987      2.226987     0.000000    Cartesian    0.00
    274 y         -6.680961     -6.667082     0.013878    Cartesian   -0.21
    274 z         -2.226987     -2.208841     0.018146    Cartesian   -0.81
    275 x          4.453974      4.450043    -0.003931    Cartesian   -0.09
    275 y          4.453974      4.476738     0.022764    Cartesian    0.51
    275 z          8.907948      8.942847     0.034899    Cartesian    0.39
    276 x          8.907948      8.938932     0.030984    Cartesian    0.35
    276 y          0.000000      0.023702     0.023702    Cartesian    0.00
    276 z         -4.453974     -4.480601    -0.026627    Cartesian    0.60
    277 x          8.907948      8.948364     0.040417    Cartesian    0.45
    277 y         -4.453974     -4.453991    -0.000018    Cartesian    0.00
    277 z          0.000000     -0.002625    -0.002625    Cartesian    0.00
    278 x          4.453974      4.437326    -0.016648    Cartesian   -0.37
    278 y          8.907948      8.991469     0.083521    Cartesian    0.94
    278 z          4.453974      4.470388     0.016414    Cartesian    0.37
    279 x         11.134934     11.136236     0.001301    Cartesian    0.01
    279 y          2.226987      2.210005    -0.016982    Cartesian   -0.76
    279 z          2.226987      2.236318     0.009332    Cartesian    0.42
    280 x          6.680961      6.698628     0.017667    Cartesian    0.26
    280 y          6.680961      6.714158     0.033197    Cartesian    0.50
    280 z          6.680961      6.669322    -0.011639    Cartesian   -0.17
    281 x          6.680961      6.675181    -0.005780    Cartesian   -0.09
    281 y         -6.680961     -6.637500     0.043461    Cartesian   -0.65
    281 z          2.226987      2.237401     0.010414    Cartesian    0.47
    282 x         -2.226987     -2.213730     0.013257    Cartesian   -0.60
    282 y          2.226987      2.205314    -0.021673    Cartesian   -0.97
    282 z         -6.680961     -6.657074     0.023887    Cartesian   -0.36
    283 x          8.907948      8.956390     0.048442    Cartesian    0.54
    283 y          4.453974      4.471167     0.017193    Cartesian    0.39
    283 z         -4.453974     -4.450939     0.003034    Cartesian   -0.07
    284 x          8.907948      8.931707     0.023759    Cartesian    0.27
    284 y         -4.453974     -4.499195    -0.045221    Cartesian    1.02
    284 z          4.453974      4.473937     0.019963    Cartesian    0.45
    285 x         11.134934     11.131330    -0.003605    Cartesian   -0.03
    285 y          2.226987      2.210452    -0.016535    Cartesian   -0.74
    285 z         -2.226987     -2.210389     0.016598    Cartesian   -0.75
    286 x         11.134934     11.134073    -0.000861    Cartesian   -0.01
    286 y         -2.226987     -2.202983     0.024004    Cartesian   -1.08
    286 z          2.226987      2.238403     0.011416    Cartesian    0.51
    287 x          2.226987      2.226987     0.000000    Cartesian    0.00
    287 y          6.680961      6.649393    -0.031568    Cartesian   -0.47
    287 z         -6.680961     -6.683371    -0.002410    Cartesian    0.04
    288 x          2.226987      2.226987     0.000000    Cartesian    0.00
    288 y         -6.680961     -6.665182     0.015779    Cartesian   -0.24
    288 z          6.680961      6.657020    -0.023941    Cartesian   -0.36
    289 x          6.680961      6.685394     0.004433    Cartesian    0.07
    289 y         -2.226987     -2.201284     0.025702    Cartesian   -1.15
    289 z         -6.680961     -6.678223     0.002738    Cartesian   -0.04
    290 x          6.680961      6.679275    -0.001686    Cartesian   -0.03
    290 y         -6.680961     -6.651024     0.029937    Cartesian   -0.45
    290 z         -2.226987     -2.251492    -0.024505    Cartesian    1.10
    291 x          4.453974      4.472908     0.018934    Cartesian    0.43
    291 y         -4.453974     -4.477013    -0.023039    Cartesian    0.52
    291 z          8.907948      8.966579     0.058632    Cartesian    0.66
    292 x          4.453974      4.455238     0.001264    Cartesian    0.03
    292 y          8.907948      8.974292     0.066344    Cartesian    0.74
    292 z         -4.453974     -4.478671    -0.024697    Cartesian    0.55
    293 x          2.226987      2.226987     0.000000    Cartesian    0.00
    293 y          2.226987      2.247135     0.020148    Cartesian    0.90
    293 z         11.134934     11.136618     0.001684    Cartesian    0.02
    294 x          2.226987      2.226987     0.000000    Cartesian    0.00
    294 y         11.134934     11.132850    -0.002085    Cartesian   -0.02
    294 z          2.226987      2.249080     0.022093    Cartesian    0.99
    295 x         11.134934     11.135471     0.000537    Cartesian    0.00
    295 y         -2.226987     -2.210816     0.016171    Cartesian   -0.73
    295 z         -2.226987     -2.216694     0.010292    Cartesian   -0.46
    296 x          4.453974      4.422139    -0.031835    Cartesian   -0.71
    296 y          0.000000     -0.001889    -0.001889    Cartesian    0.00
    296 z         -8.907948     -8.948971    -0.041023    Cartesian    0.46
    297 x          4.453974      4.463722     0.009748    Cartesian    0.22
    297 y         -8.907948     -8.985973    -0.078025    Cartesian    0.88
    297 z          0.000000      0.001719     0.001719    Cartesian    0.00
    298 x          8.907948      8.943256     0.035308    Cartesian    0.40
    298 y         -4.453974     -4.472686    -0.018712    Cartesian    0.42
    298 z         -4.453974     -4.462622    -0.008648    Cartesian    0.19
    299 x          8.907948      8.941586     0.033639    Cartesian    0.38
    299 y          0.000000      0.008493     0.008493    Cartesian    0.00
    299 z          8.907948      8.934198     0.026251    Cartesian    0.29
    300 x          8.907948      8.933036     0.025088    Cartesian    0.28
    300 y          8.907948      8.938858     0.030910    Cartesian    0.35
    300 z          0.000000     -0.009366    -0.009366    Cartesian    0.00
    301 x          2.226987      2.226987     0.000000    Cartesian    0.00
    301 y         11.134934     11.114156    -0.020779    Cartesian   -0.19
    301 z         -2.226987     -2.262659    -0.035672    Cartesian    1.60
    302 x          2.226987      2.226987     0.000000    Cartesian    0.00
    302 y         -2.226987     -2.260436    -0.033449    Cartesian    1.50
    302 z         11.134934     11.122367    -0.012568    Cartesian   -0.11
    303 x         11.134934     11.139516     0.004582    Cartesian    0.04
    303 y          6.680961      6.680846    -0.000114    Cartesian   -0.00
    303 z          2.226987      2.225669    -0.001318    Cartesian   -0.06
    304 x          6.680961      6.685441     0.004481    Cartesian    0.07
    304 y         -6.680961     -6.686254    -0.005293    Cartesian    0.08
    304 z          6.680961      6.655217    -0.025744    Cartesian   -0.39
    305 x         11.134934     11.139938     0.005003    Cartesian    0.04
    305 y          2.226987      2.228831     0.001844    Cartesian    0.08
    305 z          6.680961      6.676605    -0.004355    Cartesian   -0.07
    306 x         -2.226987     -2.230206    -0.003219    Cartesian    0.14
    306 y          6.680961      6.708288     0.027328    Cartesian    0.41
    306 z         -6.680961     -6.663808     0.017152    Cartesian   -0.26
    307 x          4.453974      4.475544     0.021570    Cartesian    0.48
    307 y          4.453974      4.465041     0.011067    Cartesian    0.25
    307 z         -8.907948     -8.933856    -0.025909    Cartesian    0.29
    308 x          4.453974      4.472920     0.018946    Cartesian    0.43
    308 y         -8.907948     -8.918997    -0.011049    Cartesian    0.12
    308 z          4.453974      4.471589     0.017615    Cartesian    0.40
    309 x          8.907948      8.932582     0.024634    Cartesian    0.28
    309 y          4.453974      4.470404     0.016430    Cartesian    0.37
    309 z          8.907948      8.945473     0.037526    Cartesian    0.42
    310 x          8.907948      8.964020     0.056073    Cartesian    0.63
    310 y          8.907948      8.941424     0.033476    Cartesian    0.38
    310 z          4.453974      4.445870    -0.008104    Cartesian   -0.18
    311 x          6.680961      6.687083     0.006122    Cartesian    0.09
    311 y         11.134934     11.137213     0.002278    Cartesian    0.02
    311 z          2.226987      2.198642    -0.028345    Cartesian   -1.27
    312 x         -2.226987     -2.229600    -0.002613    Cartesian    0.12
    312 y          2.226987      2.256124     0.029137    Cartesian    1.31
    312 z         11.134934     11.129948    -0.004986    Cartesian   -0.04
    313 x         11.134934     11.142679     0.007745    Cartesian    0.07
    313 y          6.680961      6.681385     0.000425    Cartesian    0.01
    313 z         -2.226987     -2.202027     0.024960    Cartesian   -1.12
    314 x          2.226987      2.226987     0.000000    Cartesian    0.00
    314 y         -6.680961     -6.675102     0.005859    Cartesian   -0.09
    314 z         -6.680961     -6.694359    -0.013399    Cartesian    0.20
    315 x         11.134934     11.134555    -0.000379    Cartesian   -0.00
    315 y         -2.226987     -2.243616    -0.016629    Cartesian    0.75
    315 z          6.680961      6.670019    -0.010942    Cartesian   -0.16
    316 x         13.361921     13.420630     0.058709    Cartesian    0.44
    316 y          0.000000     -0.001049    -0.001049    Cartesian    0.00
    316 z          0.000000     -0.003850    -0.003850    Cartesian    0.00
    317 x          4.453974      4.483481     0.029507    Cartesian    0.66
    317 y          8.907948      8.933619     0.025671    Cartesian    0.29
    317 z          8.907948      8.928618     0.020670    Cartesian    0.23
    318 x          2.226987      2.226987     0.000000    Cartesian    0.00
    318 y          6.680961      6.684463     0.003502    Cartesian    0.05
    318 z         11.134934     11.122993    -0.011942    Cartesian   -0.11
    319 x          2.226987      2.226987     0.000000    Cartesian    0.00
    319 y         11.134934     11.145298     0.010363    Cartesian    0.09
    319 z          6.680961      6.668744    -0.012217    Cartesian   -0.18
    320 x          6.680961      6.692504     0.011544    Cartesian    0.17
    320 y         11.134934     11.146735     0.011800    Cartesian    0.11
    320 z         -2.226987     -2.213738     0.013249    Cartesian   -0.59
    321 x          6.680961      6.688258     0.007298    Cartesian    0.11
    321 y         -2.226987     -2.246159    -0.019172    Cartesian    0.86
    321 z         11.134934     11.118034    -0.016901    Cartesian   -0.15
    322 x          4.453974      4.475256     0.021282    Cartesian    0.48
    322 y         -4.453974     -4.479499    -0.025525    Cartesian    0.57
    322 z         -8.907948     -8.948328    -0.040381    Cartesian    0.45
    323 x          4.453974      4.473366     0.019392    Cartesian    0.44
    323 y         -8.907948     -8.927328    -0.019381    Cartesian    0.22
    323 z         -4.453974     -4.483321    -0.029348    Cartesian    0.66
    324 x          8.907948      8.950512     0.042564    Cartesian    0.48
    324 y         -4.453974     -4.461370    -0.007396    Cartesian    0.17
    324 z          8.907948      8.941592     0.033644    Cartesian    0.38
    325 x         13.361921     13.424572     0.062651    Cartesian    0.47
    325 y          0.000000     -0.011134    -0.011134    Cartesian    0.00
    325 z          4.453974      4.489144     0.035170    Cartesian    0.79
    326 x         13.361921     13.413881     0.051959    Cartesian    0.39
    326 y          4.453974      4.441446    -0.012528    Cartesian   -0.28
    326 z          0.000000      0.008726     0.008726    Cartesian    0.00
    327 x          8.907948      8.935803     0.027855    Cartesian    0.31
    327 y          8.907948      8.920448     0.012500    Cartesian    0.14
    327 z         -4.453974     -4.459488    -0.005514    Cartesian    0.12
    328 x         11.134934     11.147420     0.012486    Cartesian    0.11
    328 y          2.226987      2.242024     0.015037    Cartesian    0.68
    328 z         -6.680961     -6.660284     0.020677    Cartesian   -0.31
    329 x         11.134934     11.144396     0.009462    Cartesian    0.08
    329 y          6.680961      6.674375    -0.006585    Cartesian   -0.10
    329 z          6.680961      6.693661     0.012701    Cartesian    0.19
    330 x         11.134934     11.128303    -0.006632    Cartesian   -0.06
    330 y         -6.680961     -6.691358    -0.010397    Cartesian    0.16
    330 z          2.226987      2.213082    -0.013905    Cartesian   -0.62
    331 x          6.680961      6.686982     0.006021    Cartesian    0.09
    331 y         -6.680961     -6.693200    -0.012239    Cartesian    0.18
    331 z         -6.680961     -6.665826     0.015134    Cartesian   -0.23
--------------------------------------------------------------------------------


  Time to end of optimisation  =      158.4466 seconds


  Peak dynamic memory used =     101.61 MB 


  Timing analysis for GULP :

--------------------------------------------------------------------------------
  Task / Subroutine                                          Time (Seconds)
--------------------------------------------------------------------------------
  Calculation of reciprocal space energy and derivatives          0.0009
  Calculation of reciprocal space energy using symmetry           0.0012
  Calculation of real space energy and derivatives                0.0049
  Calculation of real space energy using symmetry                 0.0119
  Calculation for region 1 energy and derivatives (2-b)          92.9086
  Calculation for region 2a energy                               57.3425
  Calculation for region 2b energy                                0.0256
  Calculation and manipulation of Hessian matrix                  0.2821
  Calculation of matrix inversion                                 7.2365
  Symmetry generation of equivalent positions                     0.0054
--------------------------------------------------------------------------------
  Total CPU time                                                158.4467
--------------------------------------------------------------------------------


  Dump file written as Na3OCl.grs


  Job Finished at 17:26.07  1st March      2021                               

