********************************************************************************
*                       GENERAL UTILITY LATTICE PROGRAM                        *
*                                 Julian Gale                                  *
*                       Curtin Institute for Computation                       *
*                    School of Molecular and Life Sciences                     *
*                    Curtin University, Western Australia                      *
********************************************************************************
* Version = 5.2.0 * Last modified =  10th September 2020                       *
********************************************************************************
*  optimise     - perform optimisation run                                     *
*  conp         - constant pressure calculation                                *
*  property     - calculate properties for final geometry                      *
*  defect       - perform defect calculation after bulk run                    *
*  compare      - compare initial and final structures                         *
********************************************************************************

  Job Started  at 17:25.22  1st March      2021                               

  Number of CPUs =     1


  Total number of configurations input =      1

********************************************************************************
*  Input for Configuration =   1                                               *
********************************************************************************

  Formula = ClONa3                                                      

  Number of irreducible atoms/shells =       5


  Total number atoms/shells =       7

  Dimensionality = 3               :  Bulk   


  Symmetry :

  Crystal family                   :  Cubic       
  Crystal class  (Groth - 1921)    :  Cubic Hexakisoctahedral              

  Space group (centrosymmetric)    :  P M 3 M         

  Patterson group                  :  P m -3 m 

  Cartesian lattice vectors (Angstroms) :

        4.504000    0.000000    0.000000
        0.000000    4.504000    0.000000
        0.000000    0.000000    4.504000

  Cell parameters (Angstroms/Degrees):

  a =       4.5040    alpha =  90.0000
  b =       4.5040    beta  =  90.0000
  c =       4.5040    gamma =  90.0000

  Initial cell volume =          91.368216 Angs**3

  Temperature of configuration =   0.00     K 

  Pressure of configuration =         0.000 GPa 

  Fractional coordinates of asymmetric unit :

--------------------------------------------------------------------------------
   No.  Atomic       x           y          z         Charge      Occupancy
        Label      (Frac)      (Frac)     (Frac)        (e)         (Frac)  
--------------------------------------------------------------------------------
      1 Cl    c    0.000000    0.000000    0.000000     0.99600    1.000000    
      2 O     c    0.500000    0.500000    0.500000     1.44300    1.000000    
      3 Na    c    0.500000    0.500000    0.000000     1.00000    1.000000    
      4 Cl    s    0.000000    0.000000    0.000000    -1.99600    1.000000    
      5 O     s    0.500000    0.500000    0.500000    -3.44300    1.000000    
--------------------------------------------------------------------------------


  Constraints : 

--------------------------------------------------------------------------------
  Constraint no.      Unconstrained     Constrained    Coefficient    Offset
                         Variable         Variable
--------------------------------------------------------------------------------
           1              Strain 1        Strain 2       1.00000      0.0000
           2              Strain 1        Strain 3       1.00000      0.0000
--------------------------------------------------------------------------------


********************************************************************************
*  General input information                                                   *
********************************************************************************

  Species output for all configurations : 

--------------------------------------------------------------------------------
  Species    Type    Atomic    Atomic    Charge       Radii (Angs)     Library
                     Number     Mass       (e)     Cova   Ionic  VDW   Symbol
--------------------------------------------------------------------------------
    Na       Core       11      22.99   1.000000   0.970  0.000  2.300          
    O        Core        8      16.00   1.443000   0.730  0.000  1.360          
    O        Shell       8       0.00  -3.443000   0.730  0.000  1.360          
    Cl       Core       17      35.45   0.996000   0.990  0.000  1.650          
    Cl       Shell      17       0.00  -1.996000   0.990  0.000  1.650          
--------------------------------------------------------------------------------


  Lattice summation method               =    Ewald          (3-D)
                                         =    Parry          (2-D)
                                         =    Saunders et al (1-D)
  Accuracy factor for lattice sums       =   12.000


  Analytic derivatives to be used

  Time limit = Infinity

  Maximum range for interatomic potentials =    100000.000000 Angstroms

  General interatomic potentials :

--------------------------------------------------------------------------------
Atom  Types   Potential      Parameter       Value         Units   Cutoffs(Ang)
  1     2                                                            Min /  Max 
--------------------------------------------------------------------------------
O    c O    s Spring (c-s)  Spring k 2       20.486200    eV*Ang^-2 0.000  0.800
                            Spring k 4       0.0000000    eV*Ang^-4 
--------------------------------------------------------------------------------
Cl   c Cl   s Spring (c-s)  Spring k 2       10.001500    eV*Ang^-2 0.000  0.800
                            Spring k 4       0.0000000    eV*Ang^-4 
--------------------------------------------------------------------------------
Na   c Na   c Buckingham    Buckingham A     29281.710    eV        0.000 12.000
                            Buckingham rho  0.37200000E-01Ang       
                            Buckingham C     0.0000000    eV*Ang^6  
--------------------------------------------------------------------------------
Na   c O    s Buckingham    Buckingham A     602.40000    eV        0.000 12.000
                            Buckingham rho  0.34280000    Ang       
                            Buckingham C     0.0000000    eV*Ang^6  
--------------------------------------------------------------------------------
Na   c Cl   s Buckingham    Buckingham A     3515.6900    eV        0.000 12.000
                            Buckingham rho  0.27460000    Ang       
                            Buckingham C     0.0000000    eV*Ang^6  
--------------------------------------------------------------------------------
O    s O    s Buckingham    Buckingham A     25201.690    eV        0.000 12.000
                            Buckingham rho  0.16450000    Ang       
                            Buckingham C     13.190000    eV*Ang^6  
--------------------------------------------------------------------------------
O    s Cl   s Buckingham    Buckingham A     1105.8600    eV        0.000 12.000
                            Buckingham rho  0.31330000    Ang       
                            Buckingham C     62.200000    eV*Ang^6  
--------------------------------------------------------------------------------
Cl   s Cl   s Buckingham    Buckingham A     31408.750    eV        0.000 12.000
                            Buckingham rho  0.13660000    Ang       
                            Buckingham C     14.530000    eV*Ang^6  
--------------------------------------------------------------------------------

********************************************************************************
*  Output for configuration   1                                                *
********************************************************************************


  Components of energy : 

--------------------------------------------------------------------------------
  Interatomic potentials     =           5.33200327 eV    
  Monopole - monopole (real) =         -10.03624526 eV    
  Monopole - monopole (recip)=         -29.53581274 eV    
  Monopole - monopole (total)=         -39.57205800 eV    
--------------------------------------------------------------------------------
  Total lattice energy       =         -34.24005473 eV    
--------------------------------------------------------------------------------
  Total lattice energy       =           -3303.6419 kJ/(mole unit cells)
--------------------------------------------------------------------------------


  Number of variables =        1

  Maximum number of calculations  =          1000
  Maximum Hessian update interval =            10
  Maximum step size               =   1.000000000
  Maximum parameter tolerance     =   0.000010000
  Maximum function  tolerance     =   0.000010000
  Maximum gradient  tolerance     =   0.001000000
  Maximum gradient  component     =   0.010000000

  Symmetry constrained optimisation

  Symmetry used for second derivatives

  Cell parameters to be optimised using strains

  Newton-Raphson optimiser to be used

  BFGS hessian update to be used

  Lower half triangular hessian to be used

  Start of bulk optimisation :

  Cycle:      0 Energy:       -34.240055  Gnorm:      2.245244  CPU:    0.016
  ** Hessian calculated **
  Cycle:      1 Energy:       -34.252747  Gnorm:      0.013309  CPU:    0.021


  **** Optimisation achieved ****


  Final energy =     -34.25274716 eV
  Final Gnorm  =       0.00056121

  Components of energy : 

--------------------------------------------------------------------------------
  Interatomic potentials     =           5.76377683 eV    
  Monopole - monopole (real) =         -10.14897050 eV    
  Monopole - monopole (recip)=         -29.86755349 eV    
  Monopole - monopole (total)=         -40.01652399 eV    
--------------------------------------------------------------------------------
  Total lattice energy       =         -34.25274716 eV    
--------------------------------------------------------------------------------
  Total lattice energy       =           -3304.8665 kJ/(mole unit cells)
--------------------------------------------------------------------------------

  Final asymmetric unit coordinates :

--------------------------------------------------------------------------------
   No.  Atomic        x           y           z         Radius
        Label       (Frac)      (Frac)      (Frac)       (Angs) 
--------------------------------------------------------------------------------
     1  Cl    c     0.000000    0.000000    0.000000    0.000000
     2  O     c     0.500000    0.500000    0.500000    0.000000
     3  Na    c     0.500000    0.500000    0.000000    0.000000
     4  Cl    s     0.000000    0.000000    0.000000    0.000000
     5  O     s     0.500000    0.500000    0.500000    0.000000
--------------------------------------------------------------------------------

  Final Cartesian lattice vectors (Angstroms) :

        4.453974    0.000000    0.000000
        0.000000    4.453974    0.000000
        0.000000    0.000000    4.453974


  Final cell parameters and derivatives :

--------------------------------------------------------------------------------
       a            4.453974 Angstrom     dE/de1(xx)     0.000561 eV/strain
       b            4.453974 Angstrom     dE/de2(yy)     0.000000 eV/strain
       c            4.453974 Angstrom     dE/de3(zz)     0.000000 eV/strain
       alpha       90.000000 Degrees      dE/de4(yz)     0.000000 eV/strain
       beta        90.000000 Degrees      dE/de5(xz)     0.000000 eV/strain
       gamma       90.000000 Degrees      dE/de6(xy)     0.000000 eV/strain
--------------------------------------------------------------------------------

  Primitive cell volume =            88.357409 Angs**3

  Density of cell =      2.263141 g/cm**3

  Non-primitive cell volume =            88.357409 Angs**3


  Final internal derivatives :

--------------------------------------------------------------------------------
   No.  Atomic          a             b             c           Radius
        Label          (eV)          (eV)          (eV)        (eV/Angs)
--------------------------------------------------------------------------------
      1 Cl    c       0.000000      0.000000      0.000000      0.000000
      2 O     c       0.000000      0.000000      0.000000      0.000000
      3 Na    c       0.000000      0.000000      0.000000      0.000000
      4 Cl    s       0.000000      0.000000      0.000000      0.000000
      5 O     s       0.000000      0.000000      0.000000      0.000000
--------------------------------------------------------------------------------
  Maximum abs         0.000000      0.000000      0.000000      0.000000
--------------------------------------------------------------------------------

  Comparison of initial and final structures : 

--------------------------------------------------------------------------------
  Parameter   Initial value   Final value   Difference    Units      Percent
--------------------------------------------------------------------------------
    Volume        91.368216     88.357409    -3.010807    Angs**3     -3.30
    a              4.504000      4.453974    -0.050026    Angstroms   -1.11
    b              4.504000      4.453974    -0.050026    Angstroms   -1.11
    c              4.504000      4.453974    -0.050026    Angstroms   -1.11
    alpha         90.000000     90.000000     0.000000    Degrees      0.00
    beta          90.000000     90.000000     0.000000    Degrees      0.00
    gamma         90.000000     90.000000     0.000000    Degrees      0.00
      1 x          0.000000      0.000000     0.000000    Fractional   0.00
      1 y          0.000000      0.000000     0.000000    Fractional   0.00
      1 z          0.000000      0.000000     0.000000    Fractional   0.00
      2 x          0.500000      0.500000     0.000000    Fractional   0.00
      2 y          0.500000      0.500000     0.000000    Fractional   0.00
      2 z          0.500000      0.500000     0.000000    Fractional   0.00
      3 x          0.500000      0.500000     0.000000    Fractional   0.00
      3 y          0.500000      0.500000     0.000000    Fractional   0.00
      3 z          0.000000      0.000000     0.000000    Fractional   0.00
      4 x          0.000000      0.000000     0.000000    Fractional   0.00
      4 y          0.000000      0.000000     0.000000    Fractional   0.00
      4 z          0.000000      0.000000     0.000000    Fractional   0.00
      5 x          0.500000      0.500000     0.000000    Fractional   0.00
      5 y          0.500000      0.500000     0.000000    Fractional   0.00
      5 z          0.500000      0.500000     0.000000    Fractional   0.00
--------------------------------------------------------------------------------


  Born effective charge tensors : 

-------------------------------------------------------------------------------
  Atom             x           y             z
-------------------------------------------------------------------------------
    1 Cl    x      -1.4271      0.0000      0.0000
            y       0.0000     -1.4271      0.0000
            z       0.0000      0.0000     -1.4271
-------------------------------------------------------------------------------
    2 O     x      -1.6137     -0.0000     -0.0000
            y      -0.0000     -1.6137     -0.0000
            z      -0.0000     -0.0000     -1.6137
-------------------------------------------------------------------------------
    3 Na    x       0.8295     -0.0000     -0.0000
            y      -0.0000      0.8295      0.0000
            z      -0.0000      0.0000      1.3817
-------------------------------------------------------------------------------




  Elastic Constant Matrix: (Units=GPa)

-------------------------------------------------------------------------------
  Indices      1         2         3         4         5         6    
-------------------------------------------------------------------------------
       1     82.8226   21.5342   21.5342    0.0000   -0.0000   -0.0000
       2     21.5342   82.8226   21.5342   -0.0000    0.0000   -0.0000
       3     21.5342   21.5342   82.8226    0.0000    0.0000   -0.0000
       4      0.0000   -0.0000    0.0000   21.5346   -0.0000    0.0000
       5     -0.0000    0.0000    0.0000   -0.0000   21.5346    0.0000
       6     -0.0000   -0.0000   -0.0000    0.0000    0.0000   21.5346
-------------------------------------------------------------------------------


  Elastic Compliance Matrix: (Units=1/GPa)

-------------------------------------------------------------------------------
  Indices      1         2         3         4         5         6    
-------------------------------------------------------------------------------
       1    0.013525 -0.002791 -0.002791 -0.000000  0.000000  0.000000
       2   -0.002791  0.013525 -0.002791  0.000000 -0.000000  0.000000
       3   -0.002791 -0.002791  0.013525 -0.000000 -0.000000  0.000000
       4   -0.000000  0.000000 -0.000000  0.046437  0.000000 -0.000000
       5    0.000000 -0.000000 -0.000000  0.000000  0.046437 -0.000000
       6    0.000000  0.000000  0.000000 -0.000000 -0.000000  0.046437
-------------------------------------------------------------------------------

  Mechanical properties :

-------------------------------------------------------------------------------
  Convention :                    Reuss         Voigt         Hill
-------------------------------------------------------------------------------
  Bulk  Modulus (GPa)     =      41.96371      41.96371      41.96371
  Shear Modulus (GPa)     =      24.44079      25.17843      24.80961
-------------------------------------------------------------------------------
  Velocity S-wave (km/s)  =       3.28626       3.33548       3.31096
  Velocity P-wave (km/s)  =       5.73948       5.77721       5.75837
-------------------------------------------------------------------------------
  Compressibility (1/GPa) =    0.02383011
-------------------------------------------------------------------------------
  Stress axis :                     x             y             z
-------------------------------------------------------------------------------
  Youngs Moduli (GPa)     =      73.93539      73.93539      73.93539
-------------------------------------------------------------------------------
  Poissons Ratio (x)      =                     0.20635       0.20635
  Poissons Ratio (y)      =       0.20635                     0.20635
  Poissons Ratio (z)      =       0.20635       0.20635
-------------------------------------------------------------------------------


  Piezoelectric Strain Matrix: (Units=C/m**2)

-------------------------------------------------------------------------------
  Indices      1         2         3         4         5         6    
-------------------------------------------------------------------------------
       x     0.00000  -0.00000   0.00000   0.00000  -0.00000  -0.00000
       y    -0.00000  -0.00000  -0.00000  -0.00000   0.00000   0.00000
       z    -0.00000  -0.00000   0.00000   0.00000   0.00000   0.00000
-------------------------------------------------------------------------------


  Piezoelectric Stress Matrix: (Units=10**-11 C/N)

-------------------------------------------------------------------------------
  Indices      1         2         3         4         5         6    
-------------------------------------------------------------------------------
       x     0.00000  -0.00000  -0.00000   0.00000  -0.00000  -0.00000
       y    -0.00000   0.00000   0.00000  -0.00000   0.00000   0.00000
       z    -0.00000  -0.00000   0.00000   0.00000   0.00000   0.00000
-------------------------------------------------------------------------------


  Static dielectric constant tensor : 

-------------------------------------------------------------------------------
              x         y         z
-------------------------------------------------------------------------------
       x    28.60451  -0.00000  -0.00000
       y    -0.00000  28.60451  -0.00000
       z    -0.00000  -0.00000  28.60451
--------------------------------------------------------------------------------

  High frequency dielectric constant tensor : 

-------------------------------------------------------------------------------
              x         y         z
-------------------------------------------------------------------------------
       x     3.92296  -0.00000  -0.00000
       y    -0.00000   3.92296   0.00000
       z    -0.00000   0.00000   3.92296
-------------------------------------------------------------------------------

  Static refractive indices : 

-------------------------------------------------------------------------------
    1 =    5.34832      2 =    5.34832      3 =    5.34832
-------------------------------------------------------------------------------

  High frequency refractive indices : 

-------------------------------------------------------------------------------
    1 =    1.98065      2 =    1.98065      3 =    1.98065
-------------------------------------------------------------------------------


  Time to end of optimisation =       0.0312 seconds

********************************************************************************
*  Defect calculation for configuration   1 :                                  *
********************************************************************************

  Total number of defects =      3

  Total charge on defect  =  -1.00

  Defect centre is at   0.5000   0.2500   0.2500  Frac

  Region 1 radius =  12.0000      Number of ions =    575

  Number of symmetry inequivalent region 1 ions  =    331

  Region 2 radius =  16.0000      Number of ions =    818

  Number of symmetry inequivalent region 2a ions =    447

  Region 2a mode = 4 : screened electrostatics due to region 1 
                       neglect correction to region 1 forces from 2a
                       region 2a displacements based on defects only

  Region 2a ions will only interact with defects in region 1

  Vacancies:

--------------------------------------------------------------------------------
    Specification type     Symbol/Number         x          y          z
--------------------------------------------------------------------------------
    Fractional                               0.500000   0.500000   0.000000
    Fractional                               0.500000   0.000000   0.500000
--------------------------------------------------------------------------------

  Interstitials:

--------------------------------------------------------------------------------
    Specification type     Symbol/Number         x          y          z
--------------------------------------------------------------------------------
    Atom/Fractional         Na               0.500000   0.030000   0.470000
--------------------------------------------------------------------------------


  Symmetry reduced region 1 (Relative to defect centre) :

--------------------------------------------------------------------------------
   No.   Atomic       x            y             z       Radius  Multiplicity   
         Label      (Angs)       (Angs)        (Angs)    (Angs)     
--------------------------------------------------------------------------------
     1  Na    c      0.0000      -0.9799       0.9799    0.0000     1    Defect
     2  O     c      0.0000       1.1135 *     1.1135 *  0.0000     1          
     3  Cl    c      2.2270 *    -1.1135 *    -1.1135 *  0.0000     2          
     4  Na    c      2.2270 *     1.1135 *     1.1135 *  0.0000     2          
     5  O     c      0.0000       1.1135 *    -3.3405 *  0.0000     1          
     6  O     c      0.0000      -3.3405 *     1.1135 *  0.0000     1          
     7  Na    c      0.0000       1.1135 *     3.3405 *  0.0000     1          
     8  Na    c      0.0000      -3.3405 *    -1.1135 *  0.0000     1          
     9  Na    c      0.0000      -1.1135 *    -3.3405 *  0.0000     1          
    10  Na    c      0.0000       3.3405 *     1.1135 *  0.0000     1          
    11  Cl    c      2.2270 *    -1.1135 *     3.3405 *  0.0000     2          
    12  Cl    c      2.2270 *     3.3405 *    -1.1135 *  0.0000     2          
    13  Na    c      2.2270 *     1.1135 *    -3.3405 *  0.0000     2          
    14  Na    c      2.2270 *    -3.3405 *     1.1135 *  0.0000     2          
    15  O     c     -4.4540 *     1.1135 *     1.1135 *  0.0000     2          
    16  Na    c     -4.4540 *    -1.1135 *     1.1135 *  0.0000     2          
    17  O     c      0.0000      -3.3405 *    -3.3405 *  0.0000     1          
    18  Na    c      0.0000      -3.3405 *     3.3405 *  0.0000     1          
    19  Na    c     -4.4540 *     1.1135 *    -1.1135 *  0.0000     2          
    20  Na    c      0.0000       3.3405 *    -3.3405 *  0.0000     1          
    21  Cl    c      2.2270 *     3.3405 *     3.3405 *  0.0000     2          
    22  Na    c      2.2270 *    -3.3405 *    -3.3405 *  0.0000     2          
    23  O     c      0.0000       1.1135 *     5.5675 *  0.0000     1          
    24  O     c      0.0000       5.5675 *     1.1135 *  0.0000     1          
    25  O     c     -4.4540 *     1.1135 *    -3.3405 *  0.0000     2          
    26  O     c     -4.4540 *    -3.3405 *     1.1135 *  0.0000     2          
    27  Na    c      0.0000       1.1135 *    -5.5675 *  0.0000     1          
    28  Na    c      0.0000       5.5675 *    -1.1135 *  0.0000     1          
    29  Na    c     -4.4540 *     1.1135 *     3.3405 *  0.0000     2          
    30  Na    c     -4.4540 *    -3.3405 *    -1.1135 *  0.0000     2          
    31  Na    c      0.0000      -1.1135 *     5.5675 *  0.0000     1          
    32  Na    c      0.0000      -5.5675 *     1.1135 *  0.0000     1          
    33  Na    c     -4.4540 *    -1.1135 *    -3.3405 *  0.0000     2          
    34  Na    c     -4.4540 *     3.3405 *     1.1135 *  0.0000     2          
    35  Cl    c      2.2270 *    -1.1135 *    -5.5675 *  0.0000     2          
    36  Cl    c      2.2270 *    -5.5675 *    -1.1135 *  0.0000     2          
    37  Na    c      2.2270 *     1.1135 *     5.5675 *  0.0000     2          
    38  Na    c      2.2270 *     5.5675 *     1.1135 *  0.0000     2          
    39  O     c      0.0000       5.5675 *    -3.3405 *  0.0000     1          
    40  O     c      0.0000      -3.3405 *     5.5675 *  0.0000     1          
    41  O     c     -4.4540 *    -3.3405 *    -3.3405 *  0.0000     2          
    42  Na    c      0.0000       5.5675 *     3.3405 *  0.0000     1          
    43  Na    c      0.0000      -3.3405 *    -5.5675 *  0.0000     1          
    44  Na    c     -4.4540 *    -3.3405 *     3.3405 *  0.0000     2          
    45  Na    c      0.0000       3.3405 *     5.5675 *  0.0000     1          
    46  Na    c      0.0000      -5.5675 *    -3.3405 *  0.0000     1          
    47  Na    c     -4.4540 *     3.3405 *    -3.3405 *  0.0000     2          
    48  Cl    c      2.2270 *     3.3405 *    -5.5675 *  0.0000     2          
    49  Cl    c      2.2270 *    -5.5675 *     3.3405 *  0.0000     2          
    50  Na    c      2.2270 *     5.5675 *    -3.3405 *  0.0000     2          
    51  Na    c      2.2270 *    -3.3405 *     5.5675 *  0.0000     2          
    52  Cl    c      6.6810 *    -1.1135 *    -1.1135 *  0.0000     2          
    53  Na    c      6.6810 *     1.1135 *     1.1135 *  0.0000     2          
    54  O     c     -4.4540 *     5.5675 *     1.1135 *  0.0000     2          
    55  Na    c     -4.4540 *     5.5675 *    -1.1135 *  0.0000     2          
    56  Na    c     -4.4540 *    -5.5675 *     1.1135 *  0.0000     2          
    57  O     c      4.4540 *     1.1135 *     5.5675 *  0.0000     2          
    58  Na    c      4.4540 *     1.1135 *    -5.5675 *  0.0000     2          
    59  Na    c      4.4540 *    -1.1135 *     5.5675 *  0.0000     2          
    60  Cl    c      6.6810 *    -1.1135 *     3.3405 *  0.0000     2          
    61  Cl    c      6.6810 *     3.3405 *    -1.1135 *  0.0000     2          
    62  Na    c      6.6810 *     1.1135 *    -3.3405 *  0.0000     2          
    63  Na    c      6.6810 *    -3.3405 *     1.1135 *  0.0000     2          
    64  O     c      0.0000       5.5675 *     5.5675 *  0.0000     1          
    65  O     c     -4.4540 *     5.5675 *    -3.3405 *  0.0000     2          
    66  O     c     -4.4540 *    -3.3405 *     5.5675 *  0.0000     2          
    67  Na    c      0.0000       5.5675 *    -5.5675 *  0.0000     1          
    68  Na    c     -4.4540 *     5.5675 *     3.3405 *  0.0000     2          
    69  Na    c     -4.4540 *    -3.3405 *    -5.5675 *  0.0000     2          
    70  Na    c      0.0000      -5.5675 *     5.5675 *  0.0000     1          
    71  Na    c     -4.4540 *     3.3405 *     5.5675 *  0.0000     2          
    72  Na    c     -4.4540 *    -5.5675 *    -3.3405 *  0.0000     2          
    73  O     c      0.0000       1.1135 *    -7.7945 *  0.0000     1          
    74  O     c      0.0000      -7.7945 *     1.1135 *  0.0000     1          
    75  Na    c      0.0000       1.1135 *     7.7945 *  0.0000     1          
    76  Na    c      0.0000      -7.7945 *    -1.1135 *  0.0000     1          
    77  Na    c      0.0000      -1.1135 *    -7.7945 *  0.0000     1          
    78  Na    c      0.0000       7.7945 *     1.1135 *  0.0000     1          
    79  Cl    c      2.2270 *    -5.5675 *    -5.5675 *  0.0000     2          
    80  Na    c      2.2270 *     5.5675 *     5.5675 *  0.0000     2          
    81  Cl    c      2.2270 *    -1.1135 *     7.7945 *  0.0000     2          
    82  Cl    c      2.2270 *     7.7945 *    -1.1135 *  0.0000     2          
    83  Cl    c      6.6810 *     3.3405 *     3.3405 *  0.0000     2          
    84  Na    c      2.2270 *     1.1135 *    -7.7945 *  0.0000     2          
    85  Na    c      2.2270 *    -7.7945 *     1.1135 *  0.0000     2          
    86  Na    c      6.6810 *    -3.3405 *    -3.3405 *  0.0000     2          
    87  O     c      0.0000      -3.3405 *    -7.7945 *  0.0000     1          
    88  O     c      0.0000      -7.7945 *    -3.3405 *  0.0000     1          
    89  Na    c      0.0000      -3.3405 *     7.7945 *  0.0000     1          
    90  Na    c      0.0000      -7.7945 *     3.3405 *  0.0000     1          
    91  Na    c      0.0000       3.3405 *    -7.7945 *  0.0000     1          
    92  Na    c      0.0000       7.7945 *    -3.3405 *  0.0000     1          
    93  Cl    c      2.2270 *     3.3405 *     7.7945 *  0.0000     2          
    94  Cl    c      6.6810 *    -1.1135 *    -5.5675 *  0.0000     2          
    95  Cl    c      6.6810 *    -5.5675 *    -1.1135 *  0.0000     2          
    96  Na    c      2.2270 *    -3.3405 *    -7.7945 *  0.0000     2          
    97  Na    c      6.6810 *     1.1135 *     5.5675 *  0.0000     2          
    98  Na    c      6.6810 *     5.5675 *     1.1135 *  0.0000     2          
    99  Cl    c      2.2270 *     7.7945 *     3.3405 *  0.0000     2          
   100  Na    c      2.2270 *    -7.7945 *    -3.3405 *  0.0000     2          
   101  O     c      8.9079 *     1.1135 *     1.1135 *  0.0000     2          
   102  Na    c      8.9079 *     1.1135 *    -1.1135 *  0.0000     2          
   103  Na    c      8.9079 *    -1.1135 *     1.1135 *  0.0000     2          
   104  O     c      4.4540 *     5.5675 *     5.5675 *  0.0000     2          
   105  O     c      4.4540 *    -7.7945 *     1.1135 *  0.0000     2          
   106  O     c     -4.4540 *     1.1135 *    -7.7945 *  0.0000     2          
   107  Na    c      4.4540 *     5.5675 *    -5.5675 *  0.0000     2          
   108  Na    c      4.4540 *    -7.7945 *    -1.1135 *  0.0000     2          
   109  Na    c     -4.4540 *     1.1135 *     7.7945 *  0.0000     2          
   110  Na    c      4.4540 *     7.7945 *     1.1135 *  0.0000     2          
   111  Na    c      4.4540 *    -5.5675 *     5.5675 *  0.0000     2          
   112  Na    c     -4.4540 *    -1.1135 *    -7.7945 *  0.0000     2          
   113  Cl    c      6.6810 *     3.3405 *    -5.5675 *  0.0000     2          
   114  Cl    c      6.6810 *    -5.5675 *     3.3405 *  0.0000     2          
   115  Na    c      6.6810 *     5.5675 *    -3.3405 *  0.0000     2          
   116  Na    c      6.6810 *    -3.3405 *     5.5675 *  0.0000     2          
   117  O     c      8.9079 *     1.1135 *    -3.3405 *  0.0000     2          
   118  O     c      8.9079 *    -3.3405 *     1.1135 *  0.0000     2          
   119  Na    c      8.9079 *     1.1135 *     3.3405 *  0.0000     2          
   120  Na    c      8.9079 *    -3.3405 *    -1.1135 *  0.0000     2          
   121  Na    c      8.9079 *    -1.1135 *    -3.3405 *  0.0000     2          
   122  Na    c      8.9079 *     3.3405 *     1.1135 *  0.0000     2          
   123  O     c      0.0000       5.5675 *    -7.7945 *  0.0000     1          
   124  O     c      0.0000      -7.7945 *     5.5675 *  0.0000     1          
   125  O     c      4.4540 *    -3.3405 *    -7.7945 *  0.0000     2          
   126  O     c      4.4540 *    -7.7945 *    -3.3405 *  0.0000     2          
   127  Na    c      0.0000       5.5675 *     7.7945 *  0.0000     1          
   128  Na    c      0.0000      -7.7945 *    -5.5675 *  0.0000     1          
   129  Na    c      4.4540 *    -3.3405 *     7.7945 *  0.0000     2          
   130  Na    c      4.4540 *    -7.7945 *     3.3405 *  0.0000     2          
   131  Na    c      0.0000       7.7945 *     5.5675 *  0.0000     1          
   132  Na    c      0.0000      -5.5675 *    -7.7945 *  0.0000     1          
   133  Na    c      4.4540 *     3.3405 *    -7.7945 *  0.0000     2          
   134  Na    c      4.4540 *     7.7945 *    -3.3405 *  0.0000     2          
   135  Cl    c      2.2270 *    -5.5675 *     7.7945 *  0.0000     2          
   136  Na    c      2.2270 *     5.5675 *    -7.7945 *  0.0000     2          
   137  Cl    c      2.2270 *     7.7945 *    -5.5675 *  0.0000     2          
   138  Na    c      2.2270 *    -7.7945 *     5.5675 *  0.0000     2          
   139  O     c      0.0000       1.1135 *    10.0214 *  0.0000     1          
   140  O     c      0.0000      10.0214 *     1.1135 *  0.0000     1          
   141  Na    c      0.0000       1.1135 *   -10.0214 *  0.0000     1          
   142  Na    c      0.0000      10.0214 *    -1.1135 *  0.0000     1          
   143  Na    c      0.0000      -1.1135 *    10.0214 *  0.0000     1          
   144  Na    c      0.0000     -10.0214 *     1.1135 *  0.0000     1          
   145  O     c      8.9079 *    -3.3405 *    -3.3405 *  0.0000     2          
   146  Na    c      8.9079 *    -3.3405 *     3.3405 *  0.0000     2          
   147  Na    c      8.9079 *     3.3405 *    -3.3405 *  0.0000     2          
   148  Cl    c      2.2270 *    -1.1135 *   -10.0214 *  0.0000     2          
   149  Cl    c      2.2270 *   -10.0214 *    -1.1135 *  0.0000     2          
   150  Na    c      2.2270 *     1.1135 *    10.0214 *  0.0000     2          
   151  Na    c      2.2270 *    10.0214 *     1.1135 *  0.0000     2          
   152  Cl    c      6.6810 *    -5.5675 *    -5.5675 *  0.0000     2          
   153  Na    c      6.6810 *     5.5675 *     5.5675 *  0.0000     2          
   154  Cl    c      6.6810 *    -1.1135 *     7.7945 *  0.0000     2          
   155  Cl    c      6.6810 *     7.7945 *    -1.1135 *  0.0000     2          
   156  Na    c      6.6810 *     1.1135 *    -7.7945 *  0.0000     2          
   157  Na    c      6.6810 *    -7.7945 *     1.1135 *  0.0000     2          
   158  O     c      0.0000      10.0214 *    -3.3405 *  0.0000     1          
   159  O     c      0.0000      -3.3405 *    10.0214 *  0.0000     1          
   160  O     c      8.9079 *     5.5675 *     1.1135 *  0.0000     2          
   161  Na    c      0.0000      10.0214 *     3.3405 *  0.0000     1          
   162  Na    c      0.0000      -3.3405 *   -10.0214 *  0.0000     1          
   163  Na    c      8.9079 *     5.5675 *    -1.1135 *  0.0000     2          
   164  Na    c      0.0000       3.3405 *    10.0214 *  0.0000     1          
   165  Na    c      0.0000     -10.0214 *    -3.3405 *  0.0000     1          
   166  Na    c      8.9079 *    -5.5675 *     1.1135 *  0.0000     2          
   167  O     c      4.4540 *    -7.7945 *     5.5675 *  0.0000     2          
   168  O     c      8.9079 *     1.1135 *     5.5675 *  0.0000     2          
   169  O     c     -4.4540 *     5.5675 *    -7.7945 *  0.0000     2          
   170  Na    c      4.4540 *    -7.7945 *    -5.5675 *  0.0000     2          
   171  Na    c      8.9079 *     1.1135 *    -5.5675 *  0.0000     2          
   172  Na    c     -4.4540 *     5.5675 *     7.7945 *  0.0000     2          
   173  Na    c      4.4540 *     7.7945 *     5.5675 *  0.0000     2          
   174  Na    c      8.9079 *    -1.1135 *     5.5675 *  0.0000     2          
   175  Na    c     -4.4540 *    -5.5675 *    -7.7945 *  0.0000     2          
   176  Cl    c      2.2270 *     3.3405 *   -10.0214 *  0.0000     2          
   177  Na    c      2.2270 *    -3.3405 *    10.0214 *  0.0000     2          
   178  Cl    c      2.2270 *   -10.0214 *     3.3405 *  0.0000     2          
   179  Na    c      2.2270 *    10.0214 *    -3.3405 *  0.0000     2          
   180  Cl    c      6.6810 *     3.3405 *     7.7945 *  0.0000     2          
   181  Na    c      6.6810 *    -3.3405 *    -7.7945 *  0.0000     2          
   182  Cl    c      6.6810 *     7.7945 *     3.3405 *  0.0000     2          
   183  Na    c      6.6810 *    -7.7945 *    -3.3405 *  0.0000     2          
   184  O     c      4.4540 *    10.0214 *     1.1135 *  0.0000     2          
   185  O     c     -4.4540 *     1.1135 *    10.0214 *  0.0000     2          
   186  Na    c      4.4540 *    10.0214 *    -1.1135 *  0.0000     2          
   187  Na    c     -4.4540 *     1.1135 *   -10.0214 *  0.0000     2          
   188  Na    c      4.4540 *   -10.0214 *     1.1135 *  0.0000     2          
   189  Na    c     -4.4540 *    -1.1135 *    10.0214 *  0.0000     2          
   190  O     c      8.9079 *     5.5675 *    -3.3405 *  0.0000     2          
   191  Na    c      8.9079 *     5.5675 *     3.3405 *  0.0000     2          
   192  Na    c      8.9079 *    -5.5675 *    -3.3405 *  0.0000     2          
   193  O     c      0.0000      -7.7945 *    -7.7945 *  0.0000     1          
   194  O     c      8.9079 *    -3.3405 *     5.5675 *  0.0000     2          
   195  Na    c      0.0000      -7.7945 *     7.7945 *  0.0000     1          
   196  Na    c      8.9079 *    -3.3405 *    -5.5675 *  0.0000     2          
   197  Na    c      0.0000       7.7945 *    -7.7945 *  0.0000     1          
   198  Na    c      8.9079 *     3.3405 *     5.5675 *  0.0000     2          
   199  Cl    c     11.1349 *    -1.1135 *    -1.1135 *  0.0000     2          
   200  Na    c     11.1349 *     1.1135 *     1.1135 *  0.0000     2          
   201  Cl    c      2.2270 *     7.7945 *     7.7945 *  0.0000     2          
   202  Na    c      2.2270 *    -7.7945 *    -7.7945 *  0.0000     2          
   203  O     c      0.0000       5.5675 *    10.0214 *  0.0000     1          
   204  O     c      0.0000      10.0214 *     5.5675 *  0.0000     1          
   205  O     c      4.4540 *    10.0214 *    -3.3405 *  0.0000     2          
   206  O     c      4.4540 *    -3.3405 *    10.0214 *  0.0000     2          
   207  Na    c      0.0000       5.5675 *   -10.0214 *  0.0000     1          
   208  Na    c      0.0000      10.0214 *    -5.5675 *  0.0000     1          
   209  Na    c      4.4540 *    10.0214 *     3.3405 *  0.0000     2          
   210  Na    c      4.4540 *    -3.3405 *   -10.0214 *  0.0000     2          
   211  Na    c      0.0000      -5.5675 *    10.0214 *  0.0000     1          
   212  Na    c      0.0000     -10.0214 *     5.5675 *  0.0000     1          
   213  Na    c      4.4540 *     3.3405 *    10.0214 *  0.0000     2          
   214  Na    c      4.4540 *   -10.0214 *    -3.3405 *  0.0000     2          
   215  Cl    c      2.2270 *    -5.5675 *   -10.0214 *  0.0000     2          
   216  Cl    c      2.2270 *   -10.0214 *    -5.5675 *  0.0000     2          
   217  Cl    c      6.6810 *    -5.5675 *     7.7945 *  0.0000     2          
   218  Cl    c     11.1349 *    -1.1135 *     3.3405 *  0.0000     2          
   219  Cl    c     11.1349 *     3.3405 *    -1.1135 *  0.0000     2          
   220  Na    c      2.2270 *     5.5675 *    10.0214 *  0.0000     2          
   221  Na    c      2.2270 *    10.0214 *     5.5675 *  0.0000     2          
   222  Na    c      6.6810 *     5.5675 *    -7.7945 *  0.0000     2          
   223  Na    c     11.1349 *     1.1135 *    -3.3405 *  0.0000     2          
   224  Na    c     11.1349 *    -3.3405 *     1.1135 *  0.0000     2          
   225  Cl    c      6.6810 *     7.7945 *    -5.5675 *  0.0000     2          
   226  Na    c      6.6810 *    -7.7945 *     5.5675 *  0.0000     2          
   227  O     c      8.9079 *     1.1135 *    -7.7945 *  0.0000     2          
   228  O     c      8.9079 *     5.5675 *     5.5675 *  0.0000     2          
   229  O     c      8.9079 *    -7.7945 *     1.1135 *  0.0000     2          
   230  Na    c      8.9079 *     1.1135 *     7.7945 *  0.0000     2          
   231  Na    c      8.9079 *     5.5675 *    -5.5675 *  0.0000     2          
   232  Na    c      8.9079 *    -7.7945 *    -1.1135 *  0.0000     2          
   233  Na    c      8.9079 *    -1.1135 *    -7.7945 *  0.0000     2          
   234  Na    c      8.9079 *     7.7945 *     1.1135 *  0.0000     2          
   235  Na    c      8.9079 *    -5.5675 *     5.5675 *  0.0000     2          
   236  O     c      4.4540 *    -7.7945 *    -7.7945 *  0.0000     2          
   237  Na    c      4.4540 *    -7.7945 *     7.7945 *  0.0000     2          
   238  Na    c      4.4540 *     7.7945 *    -7.7945 *  0.0000     2          
   239  O     s      0.0000       1.1135 *     1.1135 *  0.0000     1          
   240  Cl    s      2.2270 *    -1.1135 *    -1.1135 *  0.0000     2          
   241  O     s      0.0000       1.1135 *    -3.3405 *  0.0000     1          
   242  O     s      0.0000      -3.3405 *     1.1135 *  0.0000     1          
   243  Cl    s      2.2270 *    -1.1135 *     3.3405 *  0.0000     2          
   244  Cl    s      2.2270 *     3.3405 *    -1.1135 *  0.0000     2          
   245  O     s     -4.4540 *     1.1135 *     1.1135 *  0.0000     2          
   246  O     s      0.0000      -3.3405 *    -3.3405 *  0.0000     1          
   247  Cl    s      2.2270 *     3.3405 *     3.3405 *  0.0000     2          
   248  O     s      0.0000       1.1135 *     5.5675 *  0.0000     1          
   249  O     s      0.0000       5.5675 *     1.1135 *  0.0000     1          
   250  O     s     -4.4540 *     1.1135 *    -3.3405 *  0.0000     2          
   251  O     s     -4.4540 *    -3.3405 *     1.1135 *  0.0000     2          
   252  Cl    s      2.2270 *    -1.1135 *    -5.5675 *  0.0000     2          
   253  Cl    s      2.2270 *    -5.5675 *    -1.1135 *  0.0000     2          
   254  O     s      0.0000       5.5675 *    -3.3405 *  0.0000     1          
   255  O     s      0.0000      -3.3405 *     5.5675 *  0.0000     1          
   256  O     s     -4.4540 *    -3.3405 *    -3.3405 *  0.0000     2          
   257  Cl    s      2.2270 *     3.3405 *    -5.5675 *  0.0000     2          
   258  Cl    s      2.2270 *    -5.5675 *     3.3405 *  0.0000     2          
   259  Cl    s      6.6810 *    -1.1135 *    -1.1135 *  0.0000     2          
   260  O     s     -4.4540 *     5.5675 *     1.1135 *  0.0000     2          
   261  O     s      4.4540 *     1.1135 *     5.5675 *  0.0000     2          
   262  Cl    s      6.6810 *    -1.1135 *     3.3405 *  0.0000     2          
   263  Cl    s      6.6810 *     3.3405 *    -1.1135 *  0.0000     2          
   264  O     s      0.0000       5.5675 *     5.5675 *  0.0000     1          
   265  O     s     -4.4540 *     5.5675 *    -3.3405 *  0.0000     2          
   266  O     s     -4.4540 *    -3.3405 *     5.5675 *  0.0000     2          
   267  O     s      0.0000       1.1135 *    -7.7945 *  0.0000     1          
   268  O     s      0.0000      -7.7945 *     1.1135 *  0.0000     1          
   269  Cl    s      2.2270 *    -5.5675 *    -5.5675 *  0.0000     2          
   270  Cl    s      2.2270 *    -1.1135 *     7.7945 *  0.0000     2          
   271  Cl    s      2.2270 *     7.7945 *    -1.1135 *  0.0000     2          
   272  Cl    s      6.6810 *     3.3405 *     3.3405 *  0.0000     2          
   273  O     s      0.0000      -3.3405 *    -7.7945 *  0.0000     1          
   274  O     s      0.0000      -7.7945 *    -3.3405 *  0.0000     1          
   275  Cl    s      2.2270 *     3.3405 *     7.7945 *  0.0000     2          
   276  Cl    s      6.6810 *    -1.1135 *    -5.5675 *  0.0000     2          
   277  Cl    s      6.6810 *    -5.5675 *    -1.1135 *  0.0000     2          
   278  Cl    s      2.2270 *     7.7945 *     3.3405 *  0.0000     2          
   279  O     s      8.9079 *     1.1135 *     1.1135 *  0.0000     2          
   280  O     s      4.4540 *     5.5675 *     5.5675 *  0.0000     2          
   281  O     s      4.4540 *    -7.7945 *     1.1135 *  0.0000     2          
   282  O     s     -4.4540 *     1.1135 *    -7.7945 *  0.0000     2          
   283  Cl    s      6.6810 *     3.3405 *    -5.5675 *  0.0000     2          
   284  Cl    s      6.6810 *    -5.5675 *     3.3405 *  0.0000     2          
   285  O     s      8.9079 *     1.1135 *    -3.3405 *  0.0000     2          
   286  O     s      8.9079 *    -3.3405 *     1.1135 *  0.0000     2          
   287  O     s      0.0000       5.5675 *    -7.7945 *  0.0000     1          
   288  O     s      0.0000      -7.7945 *     5.5675 *  0.0000     1          
   289  O     s      4.4540 *    -3.3405 *    -7.7945 *  0.0000     2          
   290  O     s      4.4540 *    -7.7945 *    -3.3405 *  0.0000     2          
   291  Cl    s      2.2270 *    -5.5675 *     7.7945 *  0.0000     2          
   292  Cl    s      2.2270 *     7.7945 *    -5.5675 *  0.0000     2          
   293  O     s      0.0000       1.1135 *    10.0214 *  0.0000     1          
   294  O     s      0.0000      10.0214 *     1.1135 *  0.0000     1          
   295  O     s      8.9079 *    -3.3405 *    -3.3405 *  0.0000     2          
   296  Cl    s      2.2270 *    -1.1135 *   -10.0214 *  0.0000     2          
   297  Cl    s      2.2270 *   -10.0214 *    -1.1135 *  0.0000     2          
   298  Cl    s      6.6810 *    -5.5675 *    -5.5675 *  0.0000     2          
   299  Cl    s      6.6810 *    -1.1135 *     7.7945 *  0.0000     2          
   300  Cl    s      6.6810 *     7.7945 *    -1.1135 *  0.0000     2          
   301  O     s      0.0000      10.0214 *    -3.3405 *  0.0000     1          
   302  O     s      0.0000      -3.3405 *    10.0214 *  0.0000     1          
   303  O     s      8.9079 *     5.5675 *     1.1135 *  0.0000     2          
   304  O     s      4.4540 *    -7.7945 *     5.5675 *  0.0000     2          
   305  O     s      8.9079 *     1.1135 *     5.5675 *  0.0000     2          
   306  O     s     -4.4540 *     5.5675 *    -7.7945 *  0.0000     2          
   307  Cl    s      2.2270 *     3.3405 *   -10.0214 *  0.0000     2          
   308  Cl    s      2.2270 *   -10.0214 *     3.3405 *  0.0000     2          
   309  Cl    s      6.6810 *     3.3405 *     7.7945 *  0.0000     2          
   310  Cl    s      6.6810 *     7.7945 *     3.3405 *  0.0000     2          
   311  O     s      4.4540 *    10.0214 *     1.1135 *  0.0000     2          
   312  O     s     -4.4540 *     1.1135 *    10.0214 *  0.0000     2          
   313  O     s      8.9079 *     5.5675 *    -3.3405 *  0.0000     2          
   314  O     s      0.0000      -7.7945 *    -7.7945 *  0.0000     1          
   315  O     s      8.9079 *    -3.3405 *     5.5675 *  0.0000     2          
   316  Cl    s     11.1349 *    -1.1135 *    -1.1135 *  0.0000     2          
   317  Cl    s      2.2270 *     7.7945 *     7.7945 *  0.0000     2          
   318  O     s      0.0000       5.5675 *    10.0214 *  0.0000     1          
   319  O     s      0.0000      10.0214 *     5.5675 *  0.0000     1          
   320  O     s      4.4540 *    10.0214 *    -3.3405 *  0.0000     2          
   321  O     s      4.4540 *    -3.3405 *    10.0214 *  0.0000     2          
   322  Cl    s      2.2270 *    -5.5675 *   -10.0214 *  0.0000     2          
   323  Cl    s      2.2270 *   -10.0214 *    -5.5675 *  0.0000     2          
   324  Cl    s      6.6810 *    -5.5675 *     7.7945 *  0.0000     2          
   325  Cl    s     11.1349 *    -1.1135 *     3.3405 *  0.0000     2          
   326  Cl    s     11.1349 *     3.3405 *    -1.1135 *  0.0000     2          
   327  Cl    s      6.6810 *     7.7945 *    -5.5675 *  0.0000     2          
   328  O     s      8.9079 *     1.1135 *    -7.7945 *  0.0000     2          
   329  O     s      8.9079 *     5.5675 *     5.5675 *  0.0000     2          
   330  O     s      8.9079 *    -7.7945 *     1.1135 *  0.0000     2          
   331  O     s      4.4540 *    -7.7945 *    -7.7945 *  0.0000     2          
--------------------------------------------------------------------------------

  Components of defect energy : 

--------------------------------------------------------------------------------
  Region 1 - region 1                   =      8.28469097 eV
  Region 1 - region 2a (unrelaxed)      =     -0.01512339 eV
  Region 1 - 2a (relaxed - correction)  =     -0.30763403 eV
  Region 1 (Total)                      =      7.96193355 eV
  Region 2a                             =      0.15373094 eV
  Region 2b                             =     -0.43155455 eV
--------------------------------------------------------------------------------
  Total defect energy                   =      7.68410994 eV
--------------------------------------------------------------------------------

  Largest displacement in region 2 =   0.0216 Angstroms


  Number of variables =      904

  Maximum number of calculations  =        1000
  Maximum Hessian update interval =          10
  Maximum step size               =   1.0000000
  Maximum parameter tolerance     =   0.0000100
  Maximum function  tolerance     =   0.0000100
  Maximum gradient  tolerance     =   0.0010000

  Symmetry adapted optimisation

  Symmetry to be used for second derivatives

  Newton-Raphson optimiser to be used

  BFGS hessian update to be used

  Lower half triangular hessian to be used

  Start of defect optimisation :

  Cycle:      0 Defect Energy:   7.684110  Gnorm:     0.022172  CPU:    2.840
  ** Hessian calculated **
  Cycle:      1 Defect Energy:   6.600105  Gnorm:     0.017993  CPU:    8.287
  ** Hessian calculated **
  Cycle:      2 Defect Energy:   4.950179  Gnorm:     0.005204  CPU:   13.049
  Cycle:      3 Defect Energy:   4.759821  Gnorm:     0.001979  CPU:   15.916
  Cycle:      4 Defect Energy:   4.715856  Gnorm:     0.001253  CPU:   20.392
  Cycle:      5 Defect Energy:   4.688082  Gnorm:     0.001022  CPU:   21.973
  Cycle:      6 Defect Energy:   4.655136  Gnorm:     0.000969  CPU:   23.086
  Cycle:      7 Defect Energy:   4.611604  Gnorm:     0.001011  CPU:   24.148
  Cycle:      8 Defect Energy:   4.559732  Gnorm:     0.001111  CPU:   25.212
  Cycle:      9 Defect Energy:   4.502739  Gnorm:     0.001125  CPU:   26.379
  Cycle:     10 Defect Energy:   4.462186  Gnorm:     0.001104  CPU:   27.480
  Cycle:     11 Defect Energy:   4.428532  Gnorm:     0.000967  CPU:   28.488
  ** Hessian calculated **
  Cycle:     12 Defect Energy:   4.411391  Gnorm:     0.000869  CPU:   31.324
  Cycle:     13 Defect Energy:   4.391142  Gnorm:     0.000595  CPU:   32.362
  Cycle:     14 Defect Energy:   4.367301  Gnorm:     0.000598  CPU:   33.329
  Cycle:     15 Defect Energy:   4.337856  Gnorm:     0.000582  CPU:   34.327
  Cycle:     16 Defect Energy:   4.299938  Gnorm:     0.000752  CPU:   35.319
  Cycle:     17 Defect Energy:   4.252935  Gnorm:     0.000986  CPU:   36.364
  Cycle:     18 Defect Energy:   4.217528  Gnorm:     0.001004  CPU:   37.284
  Cycle:     19 Defect Energy:   4.197552  Gnorm:     0.001127  CPU:   38.288
  Cycle:     20 Defect Energy:   4.179066  Gnorm:     0.000924  CPU:   39.265
  Cycle:     21 Defect Energy:   4.162460  Gnorm:     0.000875  CPU:   40.219
  ** Hessian calculated **
  Cycle:     22 Defect Energy:   4.150641  Gnorm:     0.000814  CPU:   42.906
  Cycle:     23 Defect Energy:   4.130906  Gnorm:     0.000688  CPU:   43.783
  Cycle:     24 Defect Energy:   4.114375  Gnorm:     0.000522  CPU:   44.658
  Cycle:     25 Defect Energy:   4.102060  Gnorm:     0.000333  CPU:   45.546
  Cycle:     26 Defect Energy:   4.098985  Gnorm:     0.000257  CPU:   46.509
  Cycle:     27 Defect Energy:   4.098078  Gnorm:     0.000192  CPU:   47.366
  ** Hessian calculated **
  Cycle:     28 Defect Energy:   4.095749  Gnorm:     0.000142  CPU:   49.691
  Cycle:     29 Defect Energy:   4.093382  Gnorm:     0.000176  CPU:   50.571
  Cycle:     30 Defect Energy:   4.093458  Gnorm:     0.000420  CPU:   51.528
  Cycle:     31 Defect Energy:   4.090652  Gnorm:     0.000311  CPU:   52.105
  Cycle:     32 Defect Energy:   4.089605  Gnorm:     0.000251  CPU:   56.019
  Cycle:     33 Defect Energy:   4.088429  Gnorm:     0.000202  CPU:   58.088
  ** Hessian calculated **
  Cycle:     34 Defect Energy:   4.088187  Gnorm:     0.000117  CPU:   60.901
  Cycle:     35 Defect Energy:   4.087900  Gnorm:     0.000092  CPU:   61.965
  Cycle:     36 Defect Energy:   4.087795  Gnorm:     0.000064  CPU:   63.117
  Cycle:     37 Defect Energy:   4.087642  Gnorm:     0.000061  CPU:   64.143
  Cycle:     38 Defect Energy:   4.087517  Gnorm:     0.000066  CPU:   65.143
  Cycle:     39 Defect Energy:   4.087368  Gnorm:     0.000071  CPU:   66.192
  Cycle:     40 Defect Energy:   4.087269  Gnorm:     0.000068  CPU:   67.194
  Cycle:     41 Defect Energy:   4.087130  Gnorm:     0.000061  CPU:   68.332
  Cycle:     42 Defect Energy:   4.087042  Gnorm:     0.000062  CPU:   69.292
  Cycle:     43 Defect Energy:   4.086910  Gnorm:     0.000051  CPU:   70.227
  ** Hessian calculated **
  Cycle:     44 Defect Energy:   4.086871  Gnorm:     0.000050  CPU:   72.820
  Cycle:     45 Defect Energy:   4.086814  Gnorm:     0.000049  CPU:   73.885
  Cycle:     46 Defect Energy:   4.086728  Gnorm:     0.000049  CPU:   74.798
  ** Hessian calculated **
  Cycle:     47 Defect Energy:   4.086713  Gnorm:     0.000041  CPU:   77.246
  Cycle:     48 Defect Energy:   4.086671  Gnorm:     0.000034  CPU:   78.173
  Cycle:     49 Defect Energy:   4.086636  Gnorm:     0.000033  CPU:   79.203
  Cycle:     50 Defect Energy:   4.086565  Gnorm:     0.000031  CPU:   80.071
  Cycle:     51 Defect Energy:   4.086500  Gnorm:     0.000031  CPU:   80.938
  Cycle:     52 Defect Energy:   4.086380  Gnorm:     0.000047  CPU:   81.838
  Cycle:     53 Defect Energy:   4.086263  Gnorm:     0.000055  CPU:   82.812
  Cycle:     54 Defect Energy:   4.086042  Gnorm:     0.000083  CPU:   83.673
  Cycle:     55 Defect Energy:   4.085780  Gnorm:     0.000114  CPU:   84.503
  Cycle:     56 Defect Energy:   4.085303  Gnorm:     0.000167  CPU:   85.352
  ** Hessian calculated **
  Cycle:     57 Defect Energy:   4.084894  Gnorm:     0.000146  CPU:   87.677
  Cycle:     58 Defect Energy:   4.084376  Gnorm:     0.000123  CPU:   88.523
  Cycle:     59 Defect Energy:   4.083676  Gnorm:     0.000106  CPU:   90.370
  Cycle:     60 Defect Energy:   4.082889  Gnorm:     0.000099  CPU:   93.955
  Cycle:     61 Defect Energy:   4.081784  Gnorm:     0.000079  CPU:   95.059
  Cycle:     62 Defect Energy:   4.080628  Gnorm:     0.000151  CPU:   96.142
  Cycle:     63 Defect Energy:   4.078816  Gnorm:     0.000188  CPU:   97.198
  Cycle:     64 Defect Energy:   4.076455  Gnorm:     0.000272  CPU:   98.274
  Cycle:     65 Defect Energy:   4.072624  Gnorm:     0.000392  CPU:   99.451
  Cycle:     66 Defect Energy:   4.066861  Gnorm:     0.000574  CPU:  100.490
  ** Hessian calculated **
  Cycle:     67 Defect Energy:   4.061906  Gnorm:     0.000514  CPU:  103.178
  Cycle:     68 Defect Energy:   4.055386  Gnorm:     0.000444  CPU:  104.343
  Cycle:     69 Defect Energy:   4.047310  Gnorm:     0.000354  CPU:  105.307
  Cycle:     70 Defect Energy:   4.037586  Gnorm:     0.000344  CPU:  106.288
  Cycle:     71 Defect Energy:   4.027346  Gnorm:     0.000333  CPU:  107.334
  Cycle:     72 Defect Energy:   4.019481  Gnorm:     0.000413  CPU:  108.525
  Cycle:     73 Defect Energy:   4.011621  Gnorm:     0.000486  CPU:  109.607
  Cycle:     74 Defect Energy:   4.003114  Gnorm:     0.000550  CPU:  110.659
  Cycle:     75 Defect Energy:   3.991667  Gnorm:     0.000667  CPU:  111.609
  Cycle:     76 Defect Energy:   3.976747  Gnorm:     0.000820  CPU:  112.631
  ** Hessian calculated **
  Cycle:     77 Defect Energy:   3.961531  Gnorm:     0.000817  CPU:  115.264
  Cycle:     78 Defect Energy:   3.919655  Gnorm:     0.000761  CPU:  116.174
  Cycle:     79 Defect Energy:   3.884117  Gnorm:     0.000616  CPU:  117.059
  Cycle:     80 Defect Energy:   3.862431  Gnorm:     0.000399  CPU:  118.064
  Cycle:     81 Defect Energy:   3.853707  Gnorm:     0.000250  CPU:  118.947
  Cycle:     82 Defect Energy:   3.849938  Gnorm:     0.000150  CPU:  119.831
  Cycle:     83 Defect Energy:   3.848139  Gnorm:     0.000130  CPU:  120.697
  Cycle:     84 Defect Energy:   3.847564  Gnorm:     0.000075  CPU:  121.553
  Cycle:     85 Defect Energy:   3.847367  Gnorm:     0.000057  CPU:  122.408
  Cycle:     86 Defect Energy:   3.847279  Gnorm:     0.000035  CPU:  123.384
  ** Hessian calculated **
  Cycle:     87 Defect Energy:   3.847256  Gnorm:     0.000024  CPU:  129.870


  **** Optimisation achieved ****


  Final defect energy  =        3.84724825
  Final defect Gnorm   =        0.00001713

  Components of defect energy : 

--------------------------------------------------------------------------------
  Region 1 - region 1                   =      5.74743917 eV
  Region 1 - region 2a (unrelaxed)      =     -1.35496119 eV
  Region 1 - 2a (relaxed - correction)  =     -0.23089708 eV
  Region 1 (Total)                      =      4.16158090 eV
  Region 2a                             =      0.11532719 eV
  Region 2b                             =     -0.42965984 eV
--------------------------------------------------------------------------------
  Total defect energy                   =      3.84724825 eV
--------------------------------------------------------------------------------

  Largest displacement in region 2 =   0.0216 Angstroms

  Final coordinates of region 1 :

--------------------------------------------------------------------------------
   No.  Atomic        x           y           z          Radius      Charge
        Label       (Angs)      (Angs)      (Angs)       (Angs)       (e) 
--------------------------------------------------------------------------------
     1  Na    c     2.226987    0.133619    2.093368    0.000000    1.000000
     2  O     c     2.226987    2.291976    2.196751    0.000000    1.443000
     3  Cl    c     4.595704   -0.062454    0.040754    0.000000    0.996000
     4  Cl    c    -0.141730   -0.062454    0.040754    0.000000    0.996000
     5  Na    c     4.388141    2.272507    1.861570    0.000000    1.000000
     6  Na    c     0.065833    2.272507    1.861570    0.000000    1.000000
     7  O     c     2.226987    2.212499   -2.182780    0.000000    1.443000
     8  O     c     2.226987   -2.174637    2.195960    0.000000    1.443000
     9  Na    c     2.226987    2.462752    4.377603    0.000000    1.000000
    10  Na    c     2.226987   -2.611437    0.006298    0.000000    1.000000
    11  Na    c     2.226987    0.096922   -1.630040    0.000000    1.000000
    12  Na    c     2.226987    4.411889    1.711560    0.000000    1.000000
    13  Cl    c     4.456071   -0.081769    4.516770    0.000000    0.996000
    14  Cl    c    -0.002097   -0.081769    4.516770    0.000000    0.996000
    15  Cl    c     4.550949    4.593993   -0.010925    0.000000    0.996000
    16  Cl    c    -0.096975    4.593993   -0.010925    0.000000    0.996000
    17  Na    c     4.385004    2.235297   -1.839952    0.000000    1.000000
    18  Na    c     0.068970    2.235297   -1.839952    0.000000    1.000000
    19  Na    c     4.458497   -2.225811    2.115968    0.000000    1.000000
    20  Na    c    -0.004523   -2.225811    2.115968    0.000000    1.000000
    21  O     c    -2.192220    2.223769    2.207569    0.000000    1.443000
    22  O     c     6.646194    2.223769    2.207569    0.000000    1.443000
    23  Na    c    -2.109246    0.004860    2.599703    0.000000    1.000000
    24  Na    c     6.563220    0.004860    2.599703    0.000000    1.000000
    25  O     c     2.226987   -2.148812   -2.191976    0.000000    1.443000
    26  Na    c     2.226987   -2.012333    4.421775    0.000000    1.000000
    27  Na    c    -2.491207    1.829613    0.003441    0.000000    1.000000
    28  Na    c     6.945181    1.829613    0.003441    0.000000    1.000000
    29  Na    c     2.226987    4.380782   -1.931833    0.000000    1.000000
    30  Cl    c     4.486101    4.549262    4.563227    0.000000    0.996000
    31  Cl    c    -0.032127    4.549262    4.563227    0.000000    0.996000
    32  Na    c     4.457163   -2.199691   -2.098850    0.000000    1.000000
    33  Na    c    -0.003190   -2.199691   -2.098850    0.000000    1.000000
    34  O     c     2.226987    2.249101    6.661483    0.000000    1.443000
    35  O     c     2.226987    6.642618    2.219504    0.000000    1.443000
    36  O     c    -2.189856    2.220642   -2.197340    0.000000    1.443000
    37  O     c     6.643830    2.220642   -2.197340    0.000000    1.443000
    38  O     c    -2.238427   -2.226039    2.233243    0.000000    1.443000
    39  O     c     6.692401   -2.226039    2.233243    0.000000    1.443000
    40  Na    c     2.226987    2.069276   -4.358782    0.000000    1.000000
    41  Na    c     2.226987    7.059895    0.009436    0.000000    1.000000
    42  Na    c    -2.000861    2.601593    4.417997    0.000000    1.000000
    43  Na    c     6.454834    2.601593    4.417997    0.000000    1.000000
    44  Na    c    -2.366291   -1.851847    0.009892    0.000000    1.000000
    45  Na    c     6.820265   -1.851847    0.009892    0.000000    1.000000
    46  Na    c     2.226987    0.023713    6.600602    0.000000    1.000000
    47  Na    c     2.226987   -4.413660    2.551015    0.000000    1.000000
    48  Na    c    -2.149218    0.005108   -2.598571    0.000000    1.000000
    49  Na    c     6.603192    0.005108   -2.598571    0.000000    1.000000
    50  Na    c    -2.317399    4.443522    1.839569    0.000000    1.000000
    51  Na    c     6.771373    4.443522    1.839569    0.000000    1.000000
    52  Cl    c     4.527563   -0.035081   -4.554700    0.000000    0.996000
    53  Cl    c    -0.073590   -0.035081   -4.554700    0.000000    0.996000
    54  Cl    c     4.465982   -4.465578    0.004182    0.000000    0.996000
    55  Cl    c    -0.012008   -4.465578    0.004182    0.000000    0.996000
    56  Na    c     4.449234    2.190395    6.751674    0.000000    1.000000
    57  Na    c     0.004740    2.190395    6.751674    0.000000    1.000000
    58  Na    c     4.457305    6.579061    2.298183    0.000000    1.000000
    59  Na    c    -0.003332    6.579061    2.298183    0.000000    1.000000
    60  O     c     2.226987    6.648441   -2.194835    0.000000    1.443000
    61  O     c     2.226987   -2.219249    6.660941    0.000000    1.443000
    62  O     c    -2.233380   -2.221096   -2.215135    0.000000    1.443000
    63  O     c     6.687354   -2.221096   -2.215135    0.000000    1.443000
    64  Na    c     2.226987    6.273673    4.435531    0.000000    1.000000
    65  Na    c     2.226987   -1.738640   -4.403805    0.000000    1.000000
    66  Na    c    -2.098087   -2.608803    4.443892    0.000000    1.000000
    67  Na    c     6.552060   -2.608803    4.443892    0.000000    1.000000
    68  Na    c     2.226987    4.460270    6.977303    0.000000    1.000000
    69  Na    c     2.226987   -4.381710   -2.593359    0.000000    1.000000
    70  Na    c    -2.293765    4.444831   -1.871276    0.000000    1.000000
    71  Na    c     6.747739    4.444831   -1.871276    0.000000    1.000000
    72  Cl    c     4.468028    4.571952   -4.532575    0.000000    0.996000
    73  Cl    c    -0.014054    4.571952   -4.532575    0.000000    0.996000
    74  Cl    c     4.422310   -4.513726    4.474299    0.000000    0.996000
    75  Cl    c     0.031664   -4.513726    4.474299    0.000000    0.996000
    76  Na    c     4.455413    6.601213   -2.277440    0.000000    1.000000
    77  Na    c    -0.001439    6.601213   -2.277440    0.000000    1.000000
    78  Na    c     4.456934   -2.151171    6.692908    0.000000    1.000000
    79  Na    c    -0.002960   -2.151171    6.692908    0.000000    1.000000
    80  Cl    c     9.024639   -0.051318    0.007066    0.000000    0.996000
    81  Cl    c    -4.570665   -0.051318    0.007066    0.000000    0.996000
    82  Na    c     8.877275    2.172614    2.499409    0.000000    1.000000
    83  Na    c    -4.423301    2.172614    2.499409    0.000000    1.000000
    84  O     c    -2.235328    6.668160    2.233230    0.000000    1.443000
    85  O     c     6.689302    6.668160    2.233230    0.000000    1.443000
    86  Na    c    -2.090821    7.026775    0.011311    0.000000    1.000000
    87  Na    c     6.544795    7.026775    0.011311    0.000000    1.000000
    88  Na    c    -2.308036   -4.437465    1.867070    0.000000    1.000000
    89  Na    c     6.762010   -4.437465    1.867070    0.000000    1.000000
    90  O     c     6.679250    2.218361    6.641604    0.000000    1.443000
    91  O     c    -2.225277    2.218361    6.641604    0.000000    1.443000
    92  Na    c     6.385890    2.533019   -4.409671    0.000000    1.000000
    93  Na    c    -1.931916    2.533019   -4.409671    0.000000    1.000000
    94  Na    c     6.704378   -0.004810    6.306012    0.000000    1.000000
    95  Na    c    -2.250404   -0.004810    6.306012    0.000000    1.000000
    96  Cl    c     8.951970   -0.009197    4.460499    0.000000    0.996000
    97  Cl    c    -4.497996   -0.009197    4.460499    0.000000    0.996000
    98  Cl    c     8.978278    4.466017   -0.009277    0.000000    0.996000
    99  Cl    c    -4.524304    4.466017   -0.009277    0.000000    0.996000
   100  Na    c     8.871618    2.203204   -2.517842    0.000000    1.000000
   101  Na    c    -4.417644    2.203204   -2.517842    0.000000    1.000000
   102  Na    c     8.906524   -2.141293    2.411681    0.000000    1.000000
   103  Na    c    -4.452550   -2.141293    2.411681    0.000000    1.000000
   104  O     c     2.226987    6.681746    6.661131    0.000000    1.443000
   105  O     c    -2.234837    6.672484   -2.208104    0.000000    1.443000
   106  O     c     6.688811    6.672484   -2.208104    0.000000    1.443000
   107  O     c    -2.236786   -2.230741    6.665324    0.000000    1.443000
   108  O     c     6.690759   -2.230741    6.665324    0.000000    1.443000
   109  Na    c     2.226987    6.463533   -4.426946    0.000000    1.000000
   110  Na    c    -2.334600    6.342700    4.455194    0.000000    1.000000
   111  Na    c     6.788573    6.342700    4.455194    0.000000    1.000000
   112  Na    c    -2.131406   -2.561882   -4.434521    0.000000    1.000000
   113  Na    c     6.585380   -2.561882   -4.434521    0.000000    1.000000
   114  Na    c     2.226987   -4.442317    6.503987    0.000000    1.000000
   115  Na    c    -2.163025    4.436809    7.002877    0.000000    1.000000
   116  Na    c     6.616999    4.436809    7.002877    0.000000    1.000000
   117  Na    c    -2.275956   -4.437345   -1.878654    0.000000    1.000000
   118  Na    c     6.729930   -4.437345   -1.878654    0.000000    1.000000
   119  O     c     2.226987    2.200602   -6.656498    0.000000    1.443000
   120  O     c     2.226987   -6.647152    2.221554    0.000000    1.443000
   121  Na    c     2.226987    2.063576    8.902269    0.000000    1.000000
   122  Na    c     2.226987   -6.414303   -0.005079    0.000000    1.000000
   123  Na    c     2.226987   -0.003149   -6.964026    0.000000    1.000000
   124  Na    c     2.226987    8.872206    2.525728    0.000000    1.000000
   125  Cl    c     4.456624   -4.514525   -4.472724    0.000000    0.996000
   126  Cl    c    -0.002650   -4.514525   -4.472724    0.000000    0.996000
   127  Na    c     4.459475    6.679065    6.570832    0.000000    1.000000
   128  Na    c    -0.005501    6.679065    6.570832    0.000000    1.000000
   129  Cl    c     4.456713   -0.013204    8.921322    0.000000    0.996000
   130  Cl    c    -0.002739   -0.013204    8.921322    0.000000    0.996000
   131  Cl    c     4.444933    8.977775    0.005371    0.000000    0.996000
   132  Cl    c     0.009041    8.977775    0.005371    0.000000    0.996000
   133  Cl    c     8.956037    4.425988    4.442513    0.000000    0.996000
   134  Cl    c    -4.502064    4.425988    4.442513    0.000000    0.996000
   135  Na    c     4.446313    2.098106   -6.761097    0.000000    1.000000
   136  Na    c     0.007661    2.098106   -6.761097    0.000000    1.000000
   137  Na    c     4.453176   -6.592532    2.245701    0.000000    1.000000
   138  Na    c     0.000798   -6.592532    2.245701    0.000000    1.000000
   139  Na    c     8.904625   -2.173479   -2.369751    0.000000    1.000000
   140  Na    c    -4.450652   -2.173479   -2.369751    0.000000    1.000000
   141  O     c     2.226987   -2.214644   -6.637730    0.000000    1.443000
   142  O     c     2.226987   -6.626881   -2.230927    0.000000    1.443000
   143  Na    c     2.226987   -2.245067    8.886139    0.000000    1.000000
   144  Na    c     2.226987   -6.882881    4.444456    0.000000    1.000000
   145  Na    c     2.226987    4.429962   -6.657264    0.000000    1.000000
   146  Na    c     2.226987    8.883279   -2.469156    0.000000    1.000000
   147  Cl    c     4.450138    4.445473    8.954198    0.000000    0.996000
   148  Cl    c     0.003836    4.445473    8.954198    0.000000    0.996000
   149  Cl    c     8.962132   -0.017343   -4.460052    0.000000    0.996000
   150  Cl    c    -4.508158   -0.017343   -4.460052    0.000000    0.996000
   151  Cl    c     8.973487   -4.480534   -0.008179    0.000000    0.996000
   152  Cl    c    -4.519513   -4.480534   -0.008179    0.000000    0.996000
   153  Na    c     4.455016   -2.131989   -6.652409    0.000000    1.000000
   154  Na    c    -0.001042   -2.131989   -6.652409    0.000000    1.000000
   155  Na    c     8.899561    2.293629    6.487970    0.000000    1.000000
   156  Na    c    -4.445587    2.293629    6.487970    0.000000    1.000000
   157  Na    c     8.903808    6.752258    2.098129    0.000000    1.000000
   158  Na    c    -4.449834    6.752258    2.098129    0.000000    1.000000
   159  Cl    c     4.467483    8.955683    4.490702    0.000000    0.996000
   160  Cl    c    -0.013509    8.955683    4.490702    0.000000    0.996000
   161  Na    c     4.451301   -6.593892   -2.249451    0.000000    1.000000
   162  Na    c     0.002672   -6.593892   -2.249451    0.000000    1.000000
   163  O     c    11.114496    2.227486    2.218590    0.000000    1.443000
   164  O     c    -6.660522    2.227486    2.218590    0.000000    1.443000
   165  Na    c    10.883302    2.159854   -0.002632    0.000000    1.000000
   166  Na    c    -6.429328    2.159854   -0.002632    0.000000    1.000000
   167  Na    c    11.184661    0.004825    2.297896    0.000000    1.000000
   168  Na    c    -6.730687    0.004825    2.297896    0.000000    1.000000
   169  O     c     6.692199    6.663094    6.681640    0.000000    1.443000
   170  O     c    -2.238225    6.663094    6.681640    0.000000    1.443000
   171  O     c     6.679530   -6.659550    2.216796    0.000000    1.443000
   172  O     c    -2.225556   -6.659550    2.216796    0.000000    1.443000
   173  O     c    -2.218422    2.227132   -6.632378    0.000000    1.443000
   174  O     c     6.672396    2.227132   -6.632378    0.000000    1.443000
   175  Na    c     6.740748    6.417352   -4.439495    0.000000    1.000000
   176  Na    c    -2.286774    6.417352   -4.439495    0.000000    1.000000
   177  Na    c     6.645021   -7.001296    0.003247    0.000000    1.000000
   178  Na    c    -2.191047   -7.001296    0.003247    0.000000    1.000000
   179  Na    c    -2.309476    1.928456    8.872891    0.000000    1.000000
   180  Na    c     6.763450    1.928456    8.872891    0.000000    1.000000
   181  Na    c     6.661920    8.888707    2.532659    0.000000    1.000000
   182  Na    c    -2.207946    8.888707    2.532659    0.000000    1.000000
   183  Na    c     6.655177   -4.438378    6.995673    0.000000    1.000000
   184  Na    c    -2.201204   -4.438378    6.995673    0.000000    1.000000
   185  Na    c    -2.311695   -0.003528   -6.413987    0.000000    1.000000
   186  Na    c     6.765669   -0.003528   -6.413987    0.000000    1.000000
   187  Cl    c     8.952018    4.457356   -4.445716    0.000000    0.996000
   188  Cl    c    -4.498045    4.457356   -4.445716    0.000000    0.996000
   189  Cl    c     8.944954   -4.466546    4.454705    0.000000    0.996000
   190  Cl    c    -4.490980   -4.466546    4.454705    0.000000    0.996000
   191  Na    c     8.903520    6.742196   -2.111405    0.000000    1.000000
   192  Na    c    -4.449546    6.742196   -2.111405    0.000000    1.000000
   193  Na    c     8.909179   -2.268805    6.552753    0.000000    1.000000
   194  Na    c    -4.455205   -2.268805    6.552753    0.000000    1.000000
   195  O     c    11.109057    2.229799   -2.222521    0.000000    1.443000
   196  O     c    -6.655083    2.229799   -2.222521    0.000000    1.443000
   197  O     c    11.135011   -2.224998    2.229203    0.000000    1.443000
   198  O     c    -6.681037   -2.224998    2.229203    0.000000    1.443000
   199  Na    c    11.301133    2.351884    4.438567    0.000000    1.000000
   200  Na    c    -6.847159    2.351884    4.438567    0.000000    1.000000
   201  Na    c    11.008999   -2.209137   -0.000532    0.000000    1.000000
   202  Na    c    -6.555025   -2.209137   -0.000532    0.000000    1.000000
   203  Na    c    11.145141    0.006074   -2.258089    0.000000    1.000000
   204  Na    c    -6.691167    0.006074   -2.258089    0.000000    1.000000
   205  Na    c    11.066108    4.453445    2.128467    0.000000    1.000000
   206  Na    c    -6.612134    4.453445    2.128467    0.000000    1.000000
   207  O     c     2.226987    6.673132   -6.661202    0.000000    1.443000
   208  O     c     2.226987   -6.679988    6.667892    0.000000    1.443000
   209  O     c     6.683765   -2.238297   -6.657705    0.000000    1.443000
   210  O     c    -2.229791   -2.238297   -6.657705    0.000000    1.443000
   211  O     c     6.677439   -6.662434   -2.209928    0.000000    1.443000
   212  O     c    -2.223465   -6.662434   -2.209928    0.000000    1.443000
   213  Na    c     2.226987    6.888507    8.885029    0.000000    1.000000
   214  Na    c     2.226987   -6.888823   -4.445047    0.000000    1.000000
   215  Na    c     6.749194   -1.972046    8.888670    0.000000    1.000000
   216  Na    c    -2.295220   -1.972046    8.888670    0.000000    1.000000
   217  Na    c     6.704924   -6.452318    4.452067    0.000000    1.000000
   218  Na    c    -2.250950   -6.452318    4.452067    0.000000    1.000000
   219  Na    c     2.226987    8.894677    6.444006    0.000000    1.000000
   220  Na    c     2.226987   -4.435617   -6.433022    0.000000    1.000000
   221  Na    c     6.541859    4.444229   -6.854421    0.000000    1.000000
   222  Na    c    -2.087885    4.444229   -6.854421    0.000000    1.000000
   223  Na    c     6.654026    8.890209   -2.474862    0.000000    1.000000
   224  Na    c    -2.200053    8.890209   -2.474862    0.000000    1.000000
   225  Cl    c     4.443034   -4.471380    8.944366    0.000000    0.996000
   226  Cl    c     0.010940   -4.471380    8.944366    0.000000    0.996000
   227  Na    c     4.453260    6.712610   -6.606491    0.000000    1.000000
   228  Na    c     0.000713    6.712610   -6.606491    0.000000    1.000000
   229  Cl    c     4.460736    8.945447   -4.470905    0.000000    0.996000
   230  Cl    c    -0.006763    8.945447   -4.470905    0.000000    0.996000
   231  Na    c     4.453261   -6.668732    6.651597    0.000000    1.000000
   232  Na    c     0.000713   -6.668732    6.651597    0.000000    1.000000
   233  O     c     2.226987    2.219651   11.130472    0.000000    1.443000
   234  O     c     2.226987   11.114410    2.239787    0.000000    1.443000
   235  Na    c     2.226987    2.339815   -8.906071    0.000000    1.000000
   236  Na    c     2.226987   11.004623    0.003445    0.000000    1.000000
   237  Na    c     2.226987   -0.005752   11.176787    0.000000    1.000000
   238  Na    c     2.226987   -8.885539    2.082216    0.000000    1.000000
   239  O     c    11.136934   -2.222819   -2.229359    0.000000    1.443000
   240  O     c    -6.682960   -2.222819   -2.229359    0.000000    1.443000
   241  Na    c    11.274268   -2.298324    4.450303    0.000000    1.000000
   242  Na    c    -6.820294   -2.298324    4.450303    0.000000    1.000000
   243  Na    c    11.077751    4.454894   -2.185014    0.000000    1.000000
   244  Na    c    -6.623777    4.454894   -2.185014    0.000000    1.000000
   245  Cl    c     4.479107   -0.009269   -8.939949    0.000000    0.996000
   246  Cl    c    -0.025133   -0.009269   -8.939949    0.000000    0.996000
   247  Cl    c     4.423195   -8.939900   -0.002981    0.000000    0.996000
   248  Cl    c     0.030778   -8.939900   -0.002981    0.000000    0.996000
   249  Na    c     4.459600    2.239964   11.088479    0.000000    1.000000
   250  Na    c    -0.005626    2.239964   11.088479    0.000000    1.000000
   251  Na    c     4.450429   11.112749    2.193420    0.000000    1.000000
   252  Na    c     0.003545   11.112749    2.193420    0.000000    1.000000
   253  Cl    c     8.941129   -4.465569   -4.459854    0.000000    0.996000
   254  Cl    c    -4.487155   -4.465569   -4.459854    0.000000    0.996000
   255  Na    c     8.906265    6.639208    6.788852    0.000000    1.000000
[...]
    251 y         -2.226987     -2.230236    -0.003249    Cartesian    0.15
    251 z          2.226987      2.239877     0.012890    Cartesian    0.58
    252 x          4.453974      4.550970     0.096996    Cartesian    2.18
    252 y          0.000000     -0.057901    -0.057901    Cartesian    0.00
    252 z         -4.453974     -4.575817    -0.121843    Cartesian    2.74
    253 x          4.453974      4.463340     0.009366    Cartesian    0.21
    253 y         -4.453974     -4.460362    -0.006388    Cartesian    0.14
    253 z          0.000000      0.004754     0.004754    Cartesian    0.00
    254 x          2.226987      2.226987     0.000000    Cartesian    0.00
    254 y          6.680961      6.667398    -0.013563    Cartesian   -0.20
    254 z         -2.226987     -2.210626     0.016361    Cartesian   -0.73
    255 x          2.226987      2.226987     0.000000    Cartesian    0.00
    255 y         -2.226987     -2.205312     0.021675    Cartesian   -0.97
    255 z          6.680961      6.661275    -0.019686    Cartesian   -0.29
    256 x         -2.226987     -2.236849    -0.009862    Cartesian    0.44
    256 y         -2.226987     -2.223399     0.003588    Cartesian   -0.16
    256 z         -2.226987     -2.224169     0.002818    Cartesian   -0.13
    257 x          4.453974      4.501423     0.047449    Cartesian    1.07
    257 y          4.453974      4.599452     0.145478    Cartesian    3.27
    257 z         -4.453974     -4.554167    -0.100193    Cartesian    2.25
    258 x          4.453974      4.424441    -0.029532    Cartesian   -0.66
    258 y         -4.453974     -4.517626    -0.063652    Cartesian    1.43
    258 z          4.453974      4.469878     0.015904    Cartesian    0.36
    259 x          8.907948      9.012676     0.104728    Cartesian    1.18
    259 y          0.000000     -0.045915    -0.045915    Cartesian    0.00
    259 z          0.000000      0.005372     0.005372    Cartesian    0.00
    260 x         -2.226987     -2.242068    -0.015081    Cartesian    0.68
    260 y          6.680961      6.678252    -0.002708    Cartesian   -0.04
    260 z          2.226987      2.227307     0.000320    Cartesian    0.01
    261 x          6.680961      6.671409    -0.009551    Cartesian   -0.14
    261 y          2.226987      2.225563    -0.001424    Cartesian   -0.06
    261 z          6.680961      6.647309    -0.033651    Cartesian   -0.50
    262 x          8.907948      8.938964     0.031017    Cartesian    0.35
    262 y          0.000000     -0.007397    -0.007397    Cartesian    0.00
    262 z          4.453974      4.455357     0.001383    Cartesian    0.03
    263 x          8.907948      8.971797     0.063850    Cartesian    0.72
    263 y          4.453974      4.468210     0.014236    Cartesian    0.32
    263 z          0.000000     -0.004873    -0.004873    Cartesian    0.00
    264 x          2.226987      2.226987     0.000000    Cartesian    0.00
    264 y          6.680961      6.680039    -0.000922    Cartesian   -0.01
    264 z          6.680961      6.667904    -0.013057    Cartesian   -0.20
    265 x         -2.226987     -2.238296    -0.011309    Cartesian    0.51
    265 y          6.680961      6.686849     0.005888    Cartesian    0.09
    265 z         -2.226987     -2.206057     0.020930    Cartesian   -0.94
    266 x         -2.226987     -2.236662    -0.009676    Cartesian    0.43
    266 y         -2.226987     -2.243434    -0.016448    Cartesian    0.74
    266 z          6.680961      6.667897    -0.013064    Cartesian   -0.20
    267 x          2.226987      2.226987     0.000000    Cartesian    0.00
    267 y          2.226987      2.188113    -0.038874    Cartesian   -1.75
    267 z         -6.680961     -6.707152    -0.026192    Cartesian    0.39
    268 x          2.226987      2.226987     0.000000    Cartesian    0.00
    268 y         -6.680961     -6.647242     0.033719    Cartesian   -0.50
    268 z          2.226987      2.237040     0.010053    Cartesian    0.45
    269 x          4.453974      4.459029     0.005055    Cartesian    0.11
    269 y         -4.453974     -4.524388    -0.070414    Cartesian    1.58
    269 z         -4.453974     -4.471472    -0.017498    Cartesian    0.39
    270 x          4.453974      4.460631     0.006657    Cartesian    0.15
    270 y          0.000000     -0.009305    -0.009305    Cartesian    0.00
    270 z          8.907948      8.923179     0.015231    Cartesian    0.17
    271 x          4.453974      4.451606    -0.002367    Cartesian   -0.05
    271 y          8.907948      8.976671     0.068723    Cartesian    0.77
    271 z          0.000000      0.004879     0.004879    Cartesian    0.00
    272 x          8.907948      8.950704     0.042756    Cartesian    0.48
    272 y          4.453974      4.415758    -0.038216    Cartesian   -0.86
    272 z          4.453974      4.443767    -0.010207    Cartesian   -0.23
    273 x          2.226987      2.226987     0.000000    Cartesian    0.00
    273 y         -2.226987     -2.190640     0.036346    Cartesian   -1.63
    273 z         -6.680961     -6.660771     0.020190    Cartesian   -0.30
    274 x          2.226987      2.226987     0.000000    Cartesian    0.00
    274 y         -6.680961     -6.633813     0.047148    Cartesian   -0.71
    274 z         -2.226987     -2.247519    -0.020532    Cartesian    0.92
    275 x          4.453974      4.453472    -0.000502    Cartesian   -0.01
    275 y          4.453974      4.441954    -0.012019    Cartesian   -0.27
    275 z          8.907948      8.949256     0.041308    Cartesian    0.46
    276 x          8.907948      8.957000     0.049052    Cartesian    0.55
    276 y          0.000000     -0.016773    -0.016773    Cartesian    0.00
    276 z         -4.453974     -4.450124     0.003850    Cartesian   -0.09
    277 x          8.907948      8.965188     0.057240    Cartesian    0.64
    277 y         -4.453974     -4.489388    -0.035414    Cartesian    0.80
    277 z          0.000000     -0.007833    -0.007833    Cartesian    0.00
    278 x          4.453974      4.467582     0.013608    Cartesian    0.31
    278 y          8.907948      8.969294     0.061346    Cartesian    0.69
    278 z          4.453974      4.494086     0.040113    Cartesian    0.90
    279 x         11.134934     11.121255    -0.013680    Cartesian   -0.12
    279 y          2.226987      2.228801     0.001814    Cartesian    0.08
    279 z          2.226987      2.228263     0.001276    Cartesian    0.06
    280 x          6.680961      6.699109     0.018148    Cartesian    0.27
    280 y          6.680961      6.662663    -0.018298    Cartesian   -0.27
    280 z          6.680961      6.700253     0.019292    Cartesian    0.29
    281 x          6.680961      6.682508     0.001547    Cartesian    0.02
    281 y         -6.680961     -6.672920     0.008041    Cartesian   -0.12
    281 z          2.226987      2.206690    -0.020297    Cartesian   -0.91
    282 x         -2.226987     -2.206634     0.020353    Cartesian   -0.91
    282 y          2.226987      2.242424     0.015437    Cartesian    0.69
    282 z         -6.680961     -6.641509     0.039452    Cartesian   -0.59
    283 x          8.907948      8.955602     0.047654    Cartesian    0.53
    283 y          4.453974      4.450068    -0.003906    Cartesian   -0.09
    283 z         -4.453974     -4.449491     0.004483    Cartesian   -0.10
    284 x          8.907948      8.943342     0.035395    Cartesian    0.40
    284 y         -4.453974     -4.463125    -0.009151    Cartesian    0.21
    284 z          4.453974      4.458882     0.004909    Cartesian    0.11
    285 x         11.134934     11.115186    -0.019749    Cartesian   -0.18
    285 y          2.226987      2.225916    -0.001071    Cartesian   -0.05
    285 z         -2.226987     -2.233330    -0.006343    Cartesian    0.28
    286 x         11.134934     11.142147     0.007212    Cartesian    0.06
    286 y         -2.226987     -2.226423     0.000563    Cartesian   -0.03
    286 z          2.226987      2.241185     0.014198    Cartesian    0.64
    287 x          2.226987      2.226987     0.000000    Cartesian    0.00
    287 y          6.680961      6.672871    -0.008090    Cartesian   -0.12
    287 z         -6.680961     -6.658569     0.022392    Cartesian   -0.34
    288 x          2.226987      2.226987     0.000000    Cartesian    0.00
    288 y         -6.680961     -6.693681    -0.012721    Cartesian    0.19
    288 z          6.680961      6.662762    -0.018198    Cartesian   -0.27
    289 x          6.680961      6.684856     0.003895    Cartesian    0.06
    289 y         -2.226987     -2.257249    -0.030262    Cartesian    1.36
    289 z         -6.680961     -6.663937     0.017023    Cartesian   -0.25
    290 x          6.680961      6.679547    -0.001414    Cartesian   -0.02
    290 y         -6.680961     -6.674584     0.006377    Cartesian   -0.10
    290 z         -2.226987     -2.201372     0.025615    Cartesian   -1.15
    291 x          4.453974      4.448752    -0.005222    Cartesian   -0.12
    291 y         -4.453974     -4.480407    -0.026433    Cartesian    0.59
    291 z          8.907948      8.946548     0.038601    Cartesian    0.43
    292 x          4.453974      4.463554     0.009580    Cartesian    0.22
    292 y          8.907948      8.957342     0.049394    Cartesian    0.55
    292 z         -4.453974     -4.463232    -0.009259    Cartesian    0.21
    293 x          2.226987      2.226987     0.000000    Cartesian    0.00
    293 y          2.226987      2.209147    -0.017839    Cartesian   -0.80
    293 z         11.134934     11.122839    -0.012096    Cartesian   -0.11
    294 x          2.226987      2.226987     0.000000    Cartesian    0.00
    294 y         11.134934     11.124190    -0.010745    Cartesian   -0.10
    294 z          2.226987      2.256467     0.029480    Cartesian    1.32
    295 x         11.134934     11.135966     0.001031    Cartesian    0.01
    295 y         -2.226987     -2.219922     0.007065    Cartesian   -0.32
    295 z         -2.226987     -2.242932    -0.015945    Cartesian    0.72
    296 x          4.453974      4.479324     0.025350    Cartesian    0.57
    296 y          0.000000     -0.007693    -0.007693    Cartesian    0.00
    296 z         -8.907948     -8.933907    -0.025959    Cartesian    0.29
    297 x          4.453974      4.420381    -0.033593    Cartesian   -0.75
    297 y         -8.907948     -8.943738    -0.035790    Cartesian    0.40
    297 z          0.000000     -0.003378    -0.003378    Cartesian    0.00
    298 x          8.907948      8.939112     0.031164    Cartesian    0.35
    298 y         -4.453974     -4.463700    -0.009726    Cartesian    0.22
    298 z         -4.453974     -4.463116    -0.009142    Cartesian    0.21
    299 x          8.907948      8.925841     0.017894    Cartesian    0.20
    299 y          0.000000     -0.010605    -0.010605    Cartesian    0.00
    299 z          8.907948      8.975767     0.067819    Cartesian    0.76
    300 x          8.907948      8.957677     0.049729    Cartesian    0.56
    300 y          8.907948      8.900849    -0.007099    Cartesian   -0.08
    300 z          0.000000      0.006347     0.006347    Cartesian    0.00
    301 x          2.226987      2.226987     0.000000    Cartesian    0.00
    301 y         11.134934     11.123496    -0.011438    Cartesian   -0.10
    301 z         -2.226987     -2.246591    -0.019604    Cartesian    0.88
    302 x          2.226987      2.226987     0.000000    Cartesian    0.00
    302 y         -2.226987     -2.230434    -0.003447    Cartesian    0.15
    302 z         11.134934     11.130556    -0.004378    Cartesian   -0.04
    303 x         11.134934     11.133438    -0.001497    Cartesian   -0.01
    303 y          6.680961      6.685700     0.004740    Cartesian    0.07
    303 z          2.226987      2.215620    -0.011367    Cartesian   -0.51
    304 x          6.680961      6.680966     0.000005    Cartesian    0.00
    304 y         -6.680961     -6.657420     0.023540    Cartesian   -0.35
    304 z          6.680961      6.705695     0.024735    Cartesian    0.37
    305 x         11.134934     11.143216     0.008282    Cartesian    0.07
    305 y          2.226987      2.235283     0.008296    Cartesian    0.37
    305 z          6.680961      6.658421    -0.022540    Cartesian   -0.34
    306 x         -2.226987     -2.236982    -0.009995    Cartesian    0.45
    306 y          6.680961      6.659822    -0.021139    Cartesian   -0.32
    306 z         -6.680961     -6.691050    -0.010089    Cartesian    0.15
    307 x          4.453974      4.443875    -0.010098    Cartesian   -0.23
    307 y          4.453974      4.438484    -0.015489    Cartesian   -0.35
    307 z         -8.907948     -8.947819    -0.039872    Cartesian    0.45
    308 x          4.453974      4.480227     0.026253    Cartesian    0.59
    308 y         -8.907948     -8.942271    -0.034323    Cartesian    0.39
    308 z          4.453974      4.464078     0.010104    Cartesian    0.23
    309 x          8.907948      8.953518     0.045571    Cartesian    0.51
    309 y          4.453974      4.462142     0.008168    Cartesian    0.18
    309 z          8.907948      8.909302     0.001354    Cartesian    0.02
    310 x          8.907948      8.929413     0.021465    Cartesian    0.24
    310 y          8.907948      8.944501     0.036553    Cartesian    0.41
    310 z          4.453974      4.462107     0.008133    Cartesian    0.18
    311 x          6.680961      6.682301     0.001341    Cartesian    0.02
    311 y         11.134934     11.124977    -0.009957    Cartesian   -0.09
    311 z          2.226987      2.253368     0.026381    Cartesian    1.18
    312 x         -2.226987     -2.239542    -0.012555    Cartesian    0.56
    312 y          2.226987      2.199178    -0.027809    Cartesian   -1.25
    312 z         11.134934     11.124122    -0.010812    Cartesian   -0.10
    313 x         11.134934     11.138620     0.003686    Cartesian    0.03
    313 y          6.680961      6.692799     0.011839    Cartesian    0.18
    313 z         -2.226987     -2.211546     0.015441    Cartesian   -0.69
    314 x          2.226987      2.226987     0.000000    Cartesian    0.00
    314 y         -6.680961     -6.696735    -0.015774    Cartesian    0.24
    314 z         -6.680961     -6.655626     0.025335    Cartesian   -0.38
    315 x         11.134934     11.144985     0.010050    Cartesian    0.09
    315 y         -2.226987     -2.237837    -0.010850    Cartesian    0.49
    315 z          6.680961      6.667336    -0.013624    Cartesian   -0.20
    316 x         13.361921     13.430446     0.068525    Cartesian    0.51
    316 y          0.000000      0.013878     0.013878    Cartesian    0.00
    316 z          0.000000      0.008073     0.008073    Cartesian    0.00
    317 x          4.453974      4.469254     0.015280    Cartesian    0.34
    317 y          8.907948      8.922536     0.014588    Cartesian    0.16
    317 z          8.907948      8.965845     0.057898    Cartesian    0.65
    318 x          2.226987      2.226987     0.000000    Cartesian    0.00
    318 y          6.680961      6.691023     0.010062    Cartesian    0.15
    318 z         11.134934     11.126118    -0.008816    Cartesian   -0.08
    319 x          2.226987      2.226987     0.000000    Cartesian    0.00
    319 y         11.134934     11.136134     0.001200    Cartesian    0.01
    319 z          6.680961      6.674611    -0.006350    Cartesian   -0.10
    320 x          6.680961      6.686732     0.005771    Cartesian    0.09
    320 y         11.134934     11.117425    -0.017509    Cartesian   -0.16
    320 z         -2.226987     -2.241993    -0.015006    Cartesian    0.67
    321 x          6.680961      6.688971     0.008011    Cartesian    0.12
    321 y         -2.226987     -2.210909     0.016078    Cartesian   -0.72
    321 z         11.134934     11.142279     0.007344    Cartesian    0.07
    322 x          4.453974      4.461716     0.007742    Cartesian    0.17
    322 y         -4.453974     -4.474232    -0.020259    Cartesian    0.45
    322 z         -8.907948     -8.954640    -0.046693    Cartesian    0.52
    323 x          4.453974      4.460913     0.006939    Cartesian    0.16
    323 y         -8.907948     -8.947620    -0.039673    Cartesian    0.45
    323 z         -4.453974     -4.471817    -0.017843    Cartesian    0.40
    324 x          8.907948      8.943328     0.035380    Cartesian    0.40
    324 y         -4.453974     -4.488366    -0.034392    Cartesian    0.77
    324 z          8.907948      8.924718     0.016770    Cartesian    0.19
    325 x         13.361921     13.367596     0.005674    Cartesian    0.04
    325 y          0.000000     -0.012684    -0.012684    Cartesian    0.00
    325 z          4.453974      4.489056     0.035082    Cartesian    0.79
    326 x         13.361921     13.428684     0.066762    Cartesian    0.50
    326 y          4.453974      4.460264     0.006290    Cartesian    0.14
    326 z          0.000000      0.003982     0.003982    Cartesian    0.00
    327 x          8.907948      8.920449     0.012501    Cartesian    0.14
    327 y          8.907948      8.945550     0.037603    Cartesian    0.42
    327 z         -4.453974     -4.459262    -0.005288    Cartesian    0.12
    328 x         11.134934     11.142770     0.007835    Cartesian    0.07
    328 y          2.226987      2.241221     0.014234    Cartesian    0.64
    328 z         -6.680961     -6.669575     0.011386    Cartesian   -0.17
    329 x         11.134934     11.136454     0.001520    Cartesian    0.01
    329 y          6.680961      6.674514    -0.006447    Cartesian   -0.10
    329 z          6.680961      6.696979     0.016018    Cartesian    0.24
    330 x         11.134934     11.137509     0.002575    Cartesian    0.02
    330 y         -6.680961     -6.690578    -0.009617    Cartesian    0.14
    330 z          2.226987      2.226335    -0.000652    Cartesian   -0.03
    331 x          6.680961      6.684924     0.003964    Cartesian    0.06
    331 y         -6.680961     -6.665512     0.015449    Cartesian   -0.23
    331 z         -6.680961     -6.696426    -0.015466    Cartesian    0.23
--------------------------------------------------------------------------------


  Time to end of optimisation  =      131.0414 seconds


  Peak dynamic memory used =     101.61 MB 


  Timing analysis for GULP :

--------------------------------------------------------------------------------
  Task / Subroutine                                          Time (Seconds)
--------------------------------------------------------------------------------
  Calculation of reciprocal space energy and derivatives          0.0008
  Calculation of reciprocal space energy using symmetry           0.0011
  Calculation of real space energy and derivatives                0.0042
  Calculation of real space energy using symmetry                 0.0102
  Calculation for region 1 energy and derivatives (2-b)          77.0713
  Calculation for region 2a energy                               46.1767
  Calculation for region 2b energy                                0.0213
  Calculation and manipulation of Hessian matrix                  0.2572
  Calculation of matrix inversion                                 6.9567
  Symmetry generation of equivalent positions                     0.0051
--------------------------------------------------------------------------------
  Total CPU time                                                131.0415
--------------------------------------------------------------------------------


  Dump file written as Na3OCl.grs


  Job Finished at 17:27.37  1st March      2021                               

