********************************************************************************
*                       GENERAL UTILITY LATTICE PROGRAM                        *
*                                 Julian Gale                                  *
*                       Curtin Institute for Computation                       *
*                    School of Molecular and Life Sciences                     *
*                    Curtin University, Western Australia                      *
********************************************************************************
* Version = 5.2.0 * Last modified =  10th September 2020                       *
********************************************************************************
*  optimise     - perform optimisation run                                     *
*  conp         - constant pressure calculation                                *
*  property     - calculate properties for final geometry                      *
*  defect       - perform defect calculation after bulk run                    *
*  compare      - compare initial and final structures                         *
********************************************************************************

  Job Started  at 17:28.38  1st March      2021                               

  Number of CPUs =     1


  Total number of configurations input =      1

********************************************************************************
*  Input for Configuration =   1                                               *
********************************************************************************

  Formula = ClONa3                                                      

  Number of irreducible atoms/shells =       5


  Total number atoms/shells =       7

  Dimensionality = 3               :  Bulk   


  Symmetry :

  Crystal family                   :  Cubic       
  Crystal class  (Groth - 1921)    :  Cubic Hexakisoctahedral              

  Space group (centrosymmetric)    :  P M 3 M         

  Patterson group                  :  P m -3 m 

  Cartesian lattice vectors (Angstroms) :

        4.504000    0.000000    0.000000
        0.000000    4.504000    0.000000
        0.000000    0.000000    4.504000

  Cell parameters (Angstroms/Degrees):

  a =       4.5040    alpha =  90.0000
  b =       4.5040    beta  =  90.0000
  c =       4.5040    gamma =  90.0000

  Initial cell volume =          91.368216 Angs**3

  Temperature of configuration =   0.00     K 

  Pressure of configuration =         0.000 GPa 

  Fractional coordinates of asymmetric unit :

--------------------------------------------------------------------------------
   No.  Atomic       x           y          z         Charge      Occupancy
        Label      (Frac)      (Frac)     (Frac)        (e)         (Frac)  
--------------------------------------------------------------------------------
      1 Cl    c    0.000000    0.000000    0.000000     0.99600    1.000000    
      2 O     c    0.500000    0.500000    0.500000     1.44300    1.000000    
      3 Na    c    0.500000    0.500000    0.000000     1.00000    1.000000    
      4 Cl    s    0.000000    0.000000    0.000000    -1.99600    1.000000    
      5 O     s    0.500000    0.500000    0.500000    -3.44300    1.000000    
--------------------------------------------------------------------------------


  Constraints : 

--------------------------------------------------------------------------------
  Constraint no.      Unconstrained     Constrained    Coefficient    Offset
                         Variable         Variable
--------------------------------------------------------------------------------
           1              Strain 1        Strain 2       1.00000      0.0000
           2              Strain 1        Strain 3       1.00000      0.0000
--------------------------------------------------------------------------------


********************************************************************************
*  General input information                                                   *
********************************************************************************

  Species output for all configurations : 

--------------------------------------------------------------------------------
  Species    Type    Atomic    Atomic    Charge       Radii (Angs)     Library
                     Number     Mass       (e)     Cova   Ionic  VDW   Symbol
--------------------------------------------------------------------------------
    Na       Core       11      22.99   1.000000   0.970  0.000  2.300          
    O        Core        8      16.00   1.443000   0.730  0.000  1.360          
    O        Shell       8       0.00  -3.443000   0.730  0.000  1.360          
    Cl       Core       17      35.45   0.996000   0.990  0.000  1.650          
    Cl       Shell      17       0.00  -1.996000   0.990  0.000  1.650          
--------------------------------------------------------------------------------


  Lattice summation method               =    Ewald          (3-D)
                                         =    Parry          (2-D)
                                         =    Saunders et al (1-D)
  Accuracy factor for lattice sums       =   12.000


  Analytic derivatives to be used

  Time limit = Infinity

  Maximum range for interatomic potentials =    100000.000000 Angstroms

  General interatomic potentials :

--------------------------------------------------------------------------------
Atom  Types   Potential      Parameter       Value         Units   Cutoffs(Ang)
  1     2                                                            Min /  Max 
--------------------------------------------------------------------------------
O    c O    s Spring (c-s)  Spring k 2       20.486200    eV*Ang^-2 0.000  0.800
                            Spring k 4       0.0000000    eV*Ang^-4 
--------------------------------------------------------------------------------
Cl   c Cl   s Spring (c-s)  Spring k 2       10.001500    eV*Ang^-2 0.000  0.800
                            Spring k 4       0.0000000    eV*Ang^-4 
--------------------------------------------------------------------------------
Na   c Na   c Buckingham    Buckingham A     29281.710    eV        0.000 12.000
                            Buckingham rho  0.37200000E-01Ang       
                            Buckingham C     0.0000000    eV*Ang^6  
--------------------------------------------------------------------------------
Na   c O    s Buckingham    Buckingham A     602.40000    eV        0.000 12.000
                            Buckingham rho  0.34280000    Ang       
                            Buckingham C     0.0000000    eV*Ang^6  
--------------------------------------------------------------------------------
Na   c Cl   s Buckingham    Buckingham A     3515.6900    eV        0.000 12.000
                            Buckingham rho  0.27460000    Ang       
                            Buckingham C     0.0000000    eV*Ang^6  
--------------------------------------------------------------------------------
O    s O    s Buckingham    Buckingham A     25201.690    eV        0.000 12.000
                            Buckingham rho  0.16450000    Ang       
                            Buckingham C     13.190000    eV*Ang^6  
--------------------------------------------------------------------------------
O    s Cl   s Buckingham    Buckingham A     1105.8600    eV        0.000 12.000
                            Buckingham rho  0.31330000    Ang       
                            Buckingham C     62.200000    eV*Ang^6  
--------------------------------------------------------------------------------
Cl   s Cl   s Buckingham    Buckingham A     31408.750    eV        0.000 12.000
                            Buckingham rho  0.13660000    Ang       
                            Buckingham C     14.530000    eV*Ang^6  
--------------------------------------------------------------------------------

********************************************************************************
*  Output for configuration   1                                                *
********************************************************************************


  Components of energy : 

--------------------------------------------------------------------------------
  Interatomic potentials     =           5.33200327 eV    
  Monopole - monopole (real) =         -10.03624526 eV    
  Monopole - monopole (recip)=         -29.53581274 eV    
  Monopole - monopole (total)=         -39.57205800 eV    
--------------------------------------------------------------------------------
  Total lattice energy       =         -34.24005473 eV    
--------------------------------------------------------------------------------
  Total lattice energy       =           -3303.6419 kJ/(mole unit cells)
--------------------------------------------------------------------------------


  Number of variables =        1

  Maximum number of calculations  =          1000
  Maximum Hessian update interval =            10
  Maximum step size               =   1.000000000
  Maximum parameter tolerance     =   0.000010000
  Maximum function  tolerance     =   0.000010000
  Maximum gradient  tolerance     =   0.001000000
  Maximum gradient  component     =   0.010000000

  Symmetry constrained optimisation

  Symmetry used for second derivatives

  Cell parameters to be optimised using strains

  Newton-Raphson optimiser to be used

  BFGS hessian update to be used

  Lower half triangular hessian to be used

  Start of bulk optimisation :

  Cycle:      0 Energy:       -34.240055  Gnorm:      2.245244  CPU:    0.013
  ** Hessian calculated **
  Cycle:      1 Energy:       -34.252747  Gnorm:      0.013309  CPU:    0.017


  **** Optimisation achieved ****


  Final energy =     -34.25274716 eV
  Final Gnorm  =       0.00056121

  Components of energy : 

--------------------------------------------------------------------------------
  Interatomic potentials     =           5.76377683 eV    
  Monopole - monopole (real) =         -10.14897050 eV    
  Monopole - monopole (recip)=         -29.86755349 eV    
  Monopole - monopole (total)=         -40.01652399 eV    
--------------------------------------------------------------------------------
  Total lattice energy       =         -34.25274716 eV    
--------------------------------------------------------------------------------
  Total lattice energy       =           -3304.8665 kJ/(mole unit cells)
--------------------------------------------------------------------------------

  Final asymmetric unit coordinates :

--------------------------------------------------------------------------------
   No.  Atomic        x           y           z         Radius
        Label       (Frac)      (Frac)      (Frac)       (Angs) 
--------------------------------------------------------------------------------
     1  Cl    c     0.000000    0.000000    0.000000    0.000000
     2  O     c     0.500000    0.500000    0.500000    0.000000
     3  Na    c     0.500000    0.500000    0.000000    0.000000
     4  Cl    s     0.000000    0.000000    0.000000    0.000000
     5  O     s     0.500000    0.500000    0.500000    0.000000
--------------------------------------------------------------------------------

  Final Cartesian lattice vectors (Angstroms) :

        4.453974    0.000000    0.000000
        0.000000    4.453974    0.000000
        0.000000    0.000000    4.453974


  Final cell parameters and derivatives :

--------------------------------------------------------------------------------
       a            4.453974 Angstrom     dE/de1(xx)     0.000561 eV/strain
       b            4.453974 Angstrom     dE/de2(yy)     0.000000 eV/strain
       c            4.453974 Angstrom     dE/de3(zz)     0.000000 eV/strain
       alpha       90.000000 Degrees      dE/de4(yz)     0.000000 eV/strain
       beta        90.000000 Degrees      dE/de5(xz)     0.000000 eV/strain
       gamma       90.000000 Degrees      dE/de6(xy)     0.000000 eV/strain
--------------------------------------------------------------------------------

  Primitive cell volume =            88.357409 Angs**3

  Density of cell =      2.263141 g/cm**3

  Non-primitive cell volume =            88.357409 Angs**3


  Final internal derivatives :

--------------------------------------------------------------------------------
   No.  Atomic          a             b             c           Radius
        Label          (eV)          (eV)          (eV)        (eV/Angs)
--------------------------------------------------------------------------------
      1 Cl    c       0.000000      0.000000      0.000000      0.000000
      2 O     c       0.000000      0.000000      0.000000      0.000000
      3 Na    c       0.000000      0.000000      0.000000      0.000000
      4 Cl    s       0.000000      0.000000      0.000000      0.000000
      5 O     s       0.000000      0.000000      0.000000      0.000000
--------------------------------------------------------------------------------
  Maximum abs         0.000000      0.000000      0.000000      0.000000
--------------------------------------------------------------------------------

  Comparison of initial and final structures : 

--------------------------------------------------------------------------------
  Parameter   Initial value   Final value   Difference    Units      Percent
--------------------------------------------------------------------------------
    Volume        91.368216     88.357409    -3.010807    Angs**3     -3.30
    a              4.504000      4.453974    -0.050026    Angstroms   -1.11
    b              4.504000      4.453974    -0.050026    Angstroms   -1.11
    c              4.504000      4.453974    -0.050026    Angstroms   -1.11
    alpha         90.000000     90.000000     0.000000    Degrees      0.00
    beta          90.000000     90.000000     0.000000    Degrees      0.00
    gamma         90.000000     90.000000     0.000000    Degrees      0.00
      1 x          0.000000      0.000000     0.000000    Fractional   0.00
      1 y          0.000000      0.000000     0.000000    Fractional   0.00
      1 z          0.000000      0.000000     0.000000    Fractional   0.00
      2 x          0.500000      0.500000     0.000000    Fractional   0.00
      2 y          0.500000      0.500000     0.000000    Fractional   0.00
      2 z          0.500000      0.500000     0.000000    Fractional   0.00
      3 x          0.500000      0.500000     0.000000    Fractional   0.00
      3 y          0.500000      0.500000     0.000000    Fractional   0.00
      3 z          0.000000      0.000000     0.000000    Fractional   0.00
      4 x          0.000000      0.000000     0.000000    Fractional   0.00
      4 y          0.000000      0.000000     0.000000    Fractional   0.00
      4 z          0.000000      0.000000     0.000000    Fractional   0.00
      5 x          0.500000      0.500000     0.000000    Fractional   0.00
      5 y          0.500000      0.500000     0.000000    Fractional   0.00
      5 z          0.500000      0.500000     0.000000    Fractional   0.00
--------------------------------------------------------------------------------


  Born effective charge tensors : 

-------------------------------------------------------------------------------
  Atom             x           y             z
-------------------------------------------------------------------------------
    1 Cl    x      -1.4271      0.0000      0.0000
            y       0.0000     -1.4271      0.0000
            z       0.0000      0.0000     -1.4271
-------------------------------------------------------------------------------
    2 O     x      -1.6137     -0.0000     -0.0000
            y      -0.0000     -1.6137     -0.0000
            z      -0.0000     -0.0000     -1.6137
-------------------------------------------------------------------------------
    3 Na    x       0.8295     -0.0000     -0.0000
            y      -0.0000      0.8295      0.0000
            z      -0.0000      0.0000      1.3817
-------------------------------------------------------------------------------




  Elastic Constant Matrix: (Units=GPa)

-------------------------------------------------------------------------------
  Indices      1         2         3         4         5         6    
-------------------------------------------------------------------------------
       1     82.8226   21.5342   21.5342    0.0000   -0.0000   -0.0000
       2     21.5342   82.8226   21.5342   -0.0000    0.0000   -0.0000
       3     21.5342   21.5342   82.8226    0.0000    0.0000   -0.0000
       4      0.0000   -0.0000    0.0000   21.5346   -0.0000    0.0000
       5     -0.0000    0.0000    0.0000   -0.0000   21.5346    0.0000
       6     -0.0000   -0.0000   -0.0000    0.0000    0.0000   21.5346
-------------------------------------------------------------------------------


  Elastic Compliance Matrix: (Units=1/GPa)

-------------------------------------------------------------------------------
  Indices      1         2         3         4         5         6    
-------------------------------------------------------------------------------
       1    0.013525 -0.002791 -0.002791 -0.000000  0.000000  0.000000
       2   -0.002791  0.013525 -0.002791  0.000000 -0.000000  0.000000
       3   -0.002791 -0.002791  0.013525 -0.000000 -0.000000  0.000000
       4   -0.000000  0.000000 -0.000000  0.046437  0.000000 -0.000000
       5    0.000000 -0.000000 -0.000000  0.000000  0.046437 -0.000000
       6    0.000000  0.000000  0.000000 -0.000000 -0.000000  0.046437
-------------------------------------------------------------------------------

  Mechanical properties :

-------------------------------------------------------------------------------
  Convention :                    Reuss         Voigt         Hill
-------------------------------------------------------------------------------
  Bulk  Modulus (GPa)     =      41.96371      41.96371      41.96371
  Shear Modulus (GPa)     =      24.44079      25.17843      24.80961
-------------------------------------------------------------------------------
  Velocity S-wave (km/s)  =       3.28626       3.33548       3.31096
  Velocity P-wave (km/s)  =       5.73948       5.77721       5.75837
-------------------------------------------------------------------------------
  Compressibility (1/GPa) =    0.02383011
-------------------------------------------------------------------------------
  Stress axis :                     x             y             z
-------------------------------------------------------------------------------
  Youngs Moduli (GPa)     =      73.93539      73.93539      73.93539
-------------------------------------------------------------------------------
  Poissons Ratio (x)      =                     0.20635       0.20635
  Poissons Ratio (y)      =       0.20635                     0.20635
  Poissons Ratio (z)      =       0.20635       0.20635
-------------------------------------------------------------------------------


  Piezoelectric Strain Matrix: (Units=C/m**2)

-------------------------------------------------------------------------------
  Indices      1         2         3         4         5         6    
-------------------------------------------------------------------------------
       x     0.00000  -0.00000   0.00000   0.00000  -0.00000  -0.00000
       y    -0.00000  -0.00000  -0.00000  -0.00000   0.00000   0.00000
       z    -0.00000  -0.00000   0.00000   0.00000   0.00000   0.00000
-------------------------------------------------------------------------------


  Piezoelectric Stress Matrix: (Units=10**-11 C/N)

-------------------------------------------------------------------------------
  Indices      1         2         3         4         5         6    
-------------------------------------------------------------------------------
       x     0.00000  -0.00000  -0.00000   0.00000  -0.00000  -0.00000
       y    -0.00000   0.00000   0.00000  -0.00000   0.00000   0.00000
       z    -0.00000  -0.00000   0.00000   0.00000   0.00000   0.00000
-------------------------------------------------------------------------------


  Static dielectric constant tensor : 

-------------------------------------------------------------------------------
              x         y         z
-------------------------------------------------------------------------------
       x    28.60451  -0.00000  -0.00000
       y    -0.00000  28.60451  -0.00000
       z    -0.00000  -0.00000  28.60451
--------------------------------------------------------------------------------

  High frequency dielectric constant tensor : 

-------------------------------------------------------------------------------
              x         y         z
-------------------------------------------------------------------------------
       x     3.92296  -0.00000  -0.00000
       y    -0.00000   3.92296   0.00000
       z    -0.00000   0.00000   3.92296
-------------------------------------------------------------------------------

  Static refractive indices : 

-------------------------------------------------------------------------------
    1 =    5.34832      2 =    5.34832      3 =    5.34832
-------------------------------------------------------------------------------

  High frequency refractive indices : 

-------------------------------------------------------------------------------
    1 =    1.98065      2 =    1.98065      3 =    1.98065
-------------------------------------------------------------------------------


  Time to end of optimisation =       0.0255 seconds

********************************************************************************
*  Defect calculation for configuration   1 :                                  *
********************************************************************************

  Total number of defects =      3

  Total charge on defect  =  -1.00

  Defect centre is at   0.5000   0.2500   0.2500  Frac

  Region 1 radius =  12.0000      Number of ions =    575

  Number of symmetry inequivalent region 1 ions  =    331

  Region 2 radius =  16.0000      Number of ions =    818

  Number of symmetry inequivalent region 2a ions =    447

  Region 2a mode = 4 : screened electrostatics due to region 1 
                       neglect correction to region 1 forces from 2a
                       region 2a displacements based on defects only

  Region 2a ions will only interact with defects in region 1

  Vacancies:

--------------------------------------------------------------------------------
    Specification type     Symbol/Number         x          y          z
--------------------------------------------------------------------------------
    Fractional                               0.500000   0.500000   0.000000
    Fractional                               0.500000   0.000000   0.500000
--------------------------------------------------------------------------------

  Interstitials:

--------------------------------------------------------------------------------
    Specification type     Symbol/Number         x          y          z
--------------------------------------------------------------------------------
    Atom/Fractional         Na               0.500000   0.040000   0.460000
--------------------------------------------------------------------------------


  Symmetry reduced region 1 (Relative to defect centre) :

--------------------------------------------------------------------------------
   No.   Atomic       x            y             z       Radius  Multiplicity   
         Label      (Angs)       (Angs)        (Angs)    (Angs)     
--------------------------------------------------------------------------------
     1  Na    c      0.0000      -0.9353       0.9353    0.0000     1    Defect
     2  O     c      0.0000       1.1135 *     1.1135 *  0.0000     1          
     3  Cl    c      2.2270 *    -1.1135 *    -1.1135 *  0.0000     2          
     4  Na    c      2.2270 *     1.1135 *     1.1135 *  0.0000     2          
     5  O     c      0.0000       1.1135 *    -3.3405 *  0.0000     1          
     6  O     c      0.0000      -3.3405 *     1.1135 *  0.0000     1          
     7  Na    c      0.0000       1.1135 *     3.3405 *  0.0000     1          
     8  Na    c      0.0000      -3.3405 *    -1.1135 *  0.0000     1          
     9  Na    c      0.0000      -1.1135 *    -3.3405 *  0.0000     1          
    10  Na    c      0.0000       3.3405 *     1.1135 *  0.0000     1          
    11  Cl    c      2.2270 *    -1.1135 *     3.3405 *  0.0000     2          
    12  Cl    c      2.2270 *     3.3405 *    -1.1135 *  0.0000     2          
    13  Na    c      2.2270 *     1.1135 *    -3.3405 *  0.0000     2          
    14  Na    c      2.2270 *    -3.3405 *     1.1135 *  0.0000     2          
    15  O     c     -4.4540 *     1.1135 *     1.1135 *  0.0000     2          
    16  Na    c     -4.4540 *    -1.1135 *     1.1135 *  0.0000     2          
    17  O     c      0.0000      -3.3405 *    -3.3405 *  0.0000     1          
    18  Na    c      0.0000      -3.3405 *     3.3405 *  0.0000     1          
    19  Na    c     -4.4540 *     1.1135 *    -1.1135 *  0.0000     2          
    20  Na    c      0.0000       3.3405 *    -3.3405 *  0.0000     1          
    21  Cl    c      2.2270 *     3.3405 *     3.3405 *  0.0000     2          
    22  Na    c      2.2270 *    -3.3405 *    -3.3405 *  0.0000     2          
    23  O     c      0.0000       1.1135 *     5.5675 *  0.0000     1          
    24  O     c      0.0000       5.5675 *     1.1135 *  0.0000     1          
    25  O     c     -4.4540 *     1.1135 *    -3.3405 *  0.0000     2          
    26  O     c     -4.4540 *    -3.3405 *     1.1135 *  0.0000     2          
    27  Na    c      0.0000       1.1135 *    -5.5675 *  0.0000     1          
    28  Na    c      0.0000       5.5675 *    -1.1135 *  0.0000     1          
    29  Na    c     -4.4540 *     1.1135 *     3.3405 *  0.0000     2          
    30  Na    c     -4.4540 *    -3.3405 *    -1.1135 *  0.0000     2          
    31  Na    c      0.0000      -1.1135 *     5.5675 *  0.0000     1          
    32  Na    c      0.0000      -5.5675 *     1.1135 *  0.0000     1          
    33  Na    c     -4.4540 *    -1.1135 *    -3.3405 *  0.0000     2          
    34  Na    c     -4.4540 *     3.3405 *     1.1135 *  0.0000     2          
    35  Cl    c      2.2270 *    -1.1135 *    -5.5675 *  0.0000     2          
    36  Cl    c      2.2270 *    -5.5675 *    -1.1135 *  0.0000     2          
    37  Na    c      2.2270 *     1.1135 *     5.5675 *  0.0000     2          
    38  Na    c      2.2270 *     5.5675 *     1.1135 *  0.0000     2          
    39  O     c      0.0000       5.5675 *    -3.3405 *  0.0000     1          
    40  O     c      0.0000      -3.3405 *     5.5675 *  0.0000     1          
    41  O     c     -4.4540 *    -3.3405 *    -3.3405 *  0.0000     2          
    42  Na    c      0.0000       5.5675 *     3.3405 *  0.0000     1          
    43  Na    c      0.0000      -3.3405 *    -5.5675 *  0.0000     1          
    44  Na    c     -4.4540 *    -3.3405 *     3.3405 *  0.0000     2          
    45  Na    c      0.0000       3.3405 *     5.5675 *  0.0000     1          
    46  Na    c      0.0000      -5.5675 *    -3.3405 *  0.0000     1          
    47  Na    c     -4.4540 *     3.3405 *    -3.3405 *  0.0000     2          
    48  Cl    c      2.2270 *     3.3405 *    -5.5675 *  0.0000     2          
    49  Cl    c      2.2270 *    -5.5675 *     3.3405 *  0.0000     2          
    50  Na    c      2.2270 *     5.5675 *    -3.3405 *  0.0000     2          
    51  Na    c      2.2270 *    -3.3405 *     5.5675 *  0.0000     2          
    52  Cl    c      6.6810 *    -1.1135 *    -1.1135 *  0.0000     2          
    53  Na    c      6.6810 *     1.1135 *     1.1135 *  0.0000     2          
    54  O     c     -4.4540 *     5.5675 *     1.1135 *  0.0000     2          
    55  Na    c     -4.4540 *     5.5675 *    -1.1135 *  0.0000     2          
    56  Na    c     -4.4540 *    -5.5675 *     1.1135 *  0.0000     2          
    57  O     c      4.4540 *     1.1135 *     5.5675 *  0.0000     2          
    58  Na    c      4.4540 *     1.1135 *    -5.5675 *  0.0000     2          
    59  Na    c      4.4540 *    -1.1135 *     5.5675 *  0.0000     2          
    60  Cl    c      6.6810 *    -1.1135 *     3.3405 *  0.0000     2          
    61  Cl    c      6.6810 *     3.3405 *    -1.1135 *  0.0000     2          
    62  Na    c      6.6810 *     1.1135 *    -3.3405 *  0.0000     2          
    63  Na    c      6.6810 *    -3.3405 *     1.1135 *  0.0000     2          
    64  O     c      0.0000       5.5675 *     5.5675 *  0.0000     1          
    65  O     c     -4.4540 *     5.5675 *    -3.3405 *  0.0000     2          
    66  O     c     -4.4540 *    -3.3405 *     5.5675 *  0.0000     2          
    67  Na    c      0.0000       5.5675 *    -5.5675 *  0.0000     1          
    68  Na    c     -4.4540 *     5.5675 *     3.3405 *  0.0000     2          
    69  Na    c     -4.4540 *    -3.3405 *    -5.5675 *  0.0000     2          
    70  Na    c      0.0000      -5.5675 *     5.5675 *  0.0000     1          
    71  Na    c     -4.4540 *     3.3405 *     5.5675 *  0.0000     2          
    72  Na    c     -4.4540 *    -5.5675 *    -3.3405 *  0.0000     2          
    73  O     c      0.0000       1.1135 *    -7.7945 *  0.0000     1          
    74  O     c      0.0000      -7.7945 *     1.1135 *  0.0000     1          
    75  Na    c      0.0000       1.1135 *     7.7945 *  0.0000     1          
    76  Na    c      0.0000      -7.7945 *    -1.1135 *  0.0000     1          
    77  Na    c      0.0000      -1.1135 *    -7.7945 *  0.0000     1          
    78  Na    c      0.0000       7.7945 *     1.1135 *  0.0000     1          
    79  Cl    c      2.2270 *    -5.5675 *    -5.5675 *  0.0000     2          
    80  Na    c      2.2270 *     5.5675 *     5.5675 *  0.0000     2          
    81  Cl    c      2.2270 *    -1.1135 *     7.7945 *  0.0000     2          
    82  Cl    c      2.2270 *     7.7945 *    -1.1135 *  0.0000     2          
    83  Cl    c      6.6810 *     3.3405 *     3.3405 *  0.0000     2          
    84  Na    c      2.2270 *     1.1135 *    -7.7945 *  0.0000     2          
    85  Na    c      2.2270 *    -7.7945 *     1.1135 *  0.0000     2          
    86  Na    c      6.6810 *    -3.3405 *    -3.3405 *  0.0000     2          
    87  O     c      0.0000      -3.3405 *    -7.7945 *  0.0000     1          
    88  O     c      0.0000      -7.7945 *    -3.3405 *  0.0000     1          
    89  Na    c      0.0000      -3.3405 *     7.7945 *  0.0000     1          
    90  Na    c      0.0000      -7.7945 *     3.3405 *  0.0000     1          
    91  Na    c      0.0000       3.3405 *    -7.7945 *  0.0000     1          
    92  Na    c      0.0000       7.7945 *    -3.3405 *  0.0000     1          
    93  Cl    c      2.2270 *     3.3405 *     7.7945 *  0.0000     2          
    94  Cl    c      6.6810 *    -1.1135 *    -5.5675 *  0.0000     2          
    95  Cl    c      6.6810 *    -5.5675 *    -1.1135 *  0.0000     2          
    96  Na    c      2.2270 *    -3.3405 *    -7.7945 *  0.0000     2          
    97  Na    c      6.6810 *     1.1135 *     5.5675 *  0.0000     2          
    98  Na    c      6.6810 *     5.5675 *     1.1135 *  0.0000     2          
    99  Cl    c      2.2270 *     7.7945 *     3.3405 *  0.0000     2          
   100  Na    c      2.2270 *    -7.7945 *    -3.3405 *  0.0000     2          
   101  O     c      8.9079 *     1.1135 *     1.1135 *  0.0000     2          
   102  Na    c      8.9079 *     1.1135 *    -1.1135 *  0.0000     2          
   103  Na    c      8.9079 *    -1.1135 *     1.1135 *  0.0000     2          
   104  O     c      4.4540 *     5.5675 *     5.5675 *  0.0000     2          
   105  O     c      4.4540 *    -7.7945 *     1.1135 *  0.0000     2          
   106  O     c     -4.4540 *     1.1135 *    -7.7945 *  0.0000     2          
   107  Na    c      4.4540 *     5.5675 *    -5.5675 *  0.0000     2          
   108  Na    c      4.4540 *    -7.7945 *    -1.1135 *  0.0000     2          
   109  Na    c     -4.4540 *     1.1135 *     7.7945 *  0.0000     2          
   110  Na    c      4.4540 *     7.7945 *     1.1135 *  0.0000     2          
   111  Na    c      4.4540 *    -5.5675 *     5.5675 *  0.0000     2          
   112  Na    c     -4.4540 *    -1.1135 *    -7.7945 *  0.0000     2          
   113  Cl    c      6.6810 *     3.3405 *    -5.5675 *  0.0000     2          
   114  Cl    c      6.6810 *    -5.5675 *     3.3405 *  0.0000     2          
   115  Na    c      6.6810 *     5.5675 *    -3.3405 *  0.0000     2          
   116  Na    c      6.6810 *    -3.3405 *     5.5675 *  0.0000     2          
   117  O     c      8.9079 *     1.1135 *    -3.3405 *  0.0000     2          
   118  O     c      8.9079 *    -3.3405 *     1.1135 *  0.0000     2          
   119  Na    c      8.9079 *     1.1135 *     3.3405 *  0.0000     2          
   120  Na    c      8.9079 *    -3.3405 *    -1.1135 *  0.0000     2          
   121  Na    c      8.9079 *    -1.1135 *    -3.3405 *  0.0000     2          
   122  Na    c      8.9079 *     3.3405 *     1.1135 *  0.0000     2          
   123  O     c      0.0000       5.5675 *    -7.7945 *  0.0000     1          
   124  O     c      0.0000      -7.7945 *     5.5675 *  0.0000     1          
   125  O     c      4.4540 *    -3.3405 *    -7.7945 *  0.0000     2          
   126  O     c      4.4540 *    -7.7945 *    -3.3405 *  0.0000     2          
   127  Na    c      0.0000       5.5675 *     7.7945 *  0.0000     1          
   128  Na    c      0.0000      -7.7945 *    -5.5675 *  0.0000     1          
   129  Na    c      4.4540 *    -3.3405 *     7.7945 *  0.0000     2          
   130  Na    c      4.4540 *    -7.7945 *     3.3405 *  0.0000     2          
   131  Na    c      0.0000       7.7945 *     5.5675 *  0.0000     1          
   132  Na    c      0.0000      -5.5675 *    -7.7945 *  0.0000     1          
   133  Na    c      4.4540 *     3.3405 *    -7.7945 *  0.0000     2          
   134  Na    c      4.4540 *     7.7945 *    -3.3405 *  0.0000     2          
   135  Cl    c      2.2270 *    -5.5675 *     7.7945 *  0.0000     2          
   136  Na    c      2.2270 *     5.5675 *    -7.7945 *  0.0000     2          
   137  Cl    c      2.2270 *     7.7945 *    -5.5675 *  0.0000     2          
   138  Na    c      2.2270 *    -7.7945 *     5.5675 *  0.0000     2          
   139  O     c      0.0000       1.1135 *    10.0214 *  0.0000     1          
   140  O     c      0.0000      10.0214 *     1.1135 *  0.0000     1          
   141  Na    c      0.0000       1.1135 *   -10.0214 *  0.0000     1          
   142  Na    c      0.0000      10.0214 *    -1.1135 *  0.0000     1          
   143  Na    c      0.0000      -1.1135 *    10.0214 *  0.0000     1          
   144  Na    c      0.0000     -10.0214 *     1.1135 *  0.0000     1          
   145  O     c      8.9079 *    -3.3405 *    -3.3405 *  0.0000     2          
   146  Na    c      8.9079 *    -3.3405 *     3.3405 *  0.0000     2          
   147  Na    c      8.9079 *     3.3405 *    -3.3405 *  0.0000     2          
   148  Cl    c      2.2270 *    -1.1135 *   -10.0214 *  0.0000     2          
   149  Cl    c      2.2270 *   -10.0214 *    -1.1135 *  0.0000     2          
   150  Na    c      2.2270 *     1.1135 *    10.0214 *  0.0000     2          
   151  Na    c      2.2270 *    10.0214 *     1.1135 *  0.0000     2          
   152  Cl    c      6.6810 *    -5.5675 *    -5.5675 *  0.0000     2          
   153  Na    c      6.6810 *     5.5675 *     5.5675 *  0.0000     2          
   154  Cl    c      6.6810 *    -1.1135 *     7.7945 *  0.0000     2          
   155  Cl    c      6.6810 *     7.7945 *    -1.1135 *  0.0000     2          
   156  Na    c      6.6810 *     1.1135 *    -7.7945 *  0.0000     2          
   157  Na    c      6.6810 *    -7.7945 *     1.1135 *  0.0000     2          
   158  O     c      0.0000      10.0214 *    -3.3405 *  0.0000     1          
   159  O     c      0.0000      -3.3405 *    10.0214 *  0.0000     1          
   160  O     c      8.9079 *     5.5675 *     1.1135 *  0.0000     2          
   161  Na    c      0.0000      10.0214 *     3.3405 *  0.0000     1          
   162  Na    c      0.0000      -3.3405 *   -10.0214 *  0.0000     1          
   163  Na    c      8.9079 *     5.5675 *    -1.1135 *  0.0000     2          
   164  Na    c      0.0000       3.3405 *    10.0214 *  0.0000     1          
   165  Na    c      0.0000     -10.0214 *    -3.3405 *  0.0000     1          
   166  Na    c      8.9079 *    -5.5675 *     1.1135 *  0.0000     2          
   167  O     c      4.4540 *    -7.7945 *     5.5675 *  0.0000     2          
   168  O     c      8.9079 *     1.1135 *     5.5675 *  0.0000     2          
   169  O     c     -4.4540 *     5.5675 *    -7.7945 *  0.0000     2          
   170  Na    c      4.4540 *    -7.7945 *    -5.5675 *  0.0000     2          
   171  Na    c      8.9079 *     1.1135 *    -5.5675 *  0.0000     2          
   172  Na    c     -4.4540 *     5.5675 *     7.7945 *  0.0000     2          
   173  Na    c      4.4540 *     7.7945 *     5.5675 *  0.0000     2          
   174  Na    c      8.9079 *    -1.1135 *     5.5675 *  0.0000     2          
   175  Na    c     -4.4540 *    -5.5675 *    -7.7945 *  0.0000     2          
   176  Cl    c      2.2270 *     3.3405 *   -10.0214 *  0.0000     2          
   177  Na    c      2.2270 *    -3.3405 *    10.0214 *  0.0000     2          
   178  Cl    c      2.2270 *   -10.0214 *     3.3405 *  0.0000     2          
   179  Na    c      2.2270 *    10.0214 *    -3.3405 *  0.0000     2          
   180  Cl    c      6.6810 *     3.3405 *     7.7945 *  0.0000     2          
   181  Na    c      6.6810 *    -3.3405 *    -7.7945 *  0.0000     2          
   182  Cl    c      6.6810 *     7.7945 *     3.3405 *  0.0000     2          
   183  Na    c      6.6810 *    -7.7945 *    -3.3405 *  0.0000     2          
   184  O     c      4.4540 *    10.0214 *     1.1135 *  0.0000     2          
   185  O     c     -4.4540 *     1.1135 *    10.0214 *  0.0000     2          
   186  Na    c      4.4540 *    10.0214 *    -1.1135 *  0.0000     2          
   187  Na    c     -4.4540 *     1.1135 *   -10.0214 *  0.0000     2          
   188  Na    c      4.4540 *   -10.0214 *     1.1135 *  0.0000     2          
   189  Na    c     -4.4540 *    -1.1135 *    10.0214 *  0.0000     2          
   190  O     c      8.9079 *     5.5675 *    -3.3405 *  0.0000     2          
   191  Na    c      8.9079 *     5.5675 *     3.3405 *  0.0000     2          
   192  Na    c      8.9079 *    -5.5675 *    -3.3405 *  0.0000     2          
   193  O     c      0.0000      -7.7945 *    -7.7945 *  0.0000     1          
   194  O     c      8.9079 *    -3.3405 *     5.5675 *  0.0000     2          
   195  Na    c      0.0000      -7.7945 *     7.7945 *  0.0000     1          
   196  Na    c      8.9079 *    -3.3405 *    -5.5675 *  0.0000     2          
   197  Na    c      0.0000       7.7945 *    -7.7945 *  0.0000     1          
   198  Na    c      8.9079 *     3.3405 *     5.5675 *  0.0000     2          
   199  Cl    c     11.1349 *    -1.1135 *    -1.1135 *  0.0000     2          
   200  Na    c     11.1349 *     1.1135 *     1.1135 *  0.0000     2          
   201  Cl    c      2.2270 *     7.7945 *     7.7945 *  0.0000     2          
   202  Na    c      2.2270 *    -7.7945 *    -7.7945 *  0.0000     2          
   203  O     c      0.0000       5.5675 *    10.0214 *  0.0000     1          
   204  O     c      0.0000      10.0214 *     5.5675 *  0.0000     1          
   205  O     c      4.4540 *    10.0214 *    -3.3405 *  0.0000     2          
   206  O     c      4.4540 *    -3.3405 *    10.0214 *  0.0000     2          
   207  Na    c      0.0000       5.5675 *   -10.0214 *  0.0000     1          
   208  Na    c      0.0000      10.0214 *    -5.5675 *  0.0000     1          
   209  Na    c      4.4540 *    10.0214 *     3.3405 *  0.0000     2          
   210  Na    c      4.4540 *    -3.3405 *   -10.0214 *  0.0000     2          
   211  Na    c      0.0000      -5.5675 *    10.0214 *  0.0000     1          
   212  Na    c      0.0000     -10.0214 *     5.5675 *  0.0000     1          
   213  Na    c      4.4540 *     3.3405 *    10.0214 *  0.0000     2          
   214  Na    c      4.4540 *   -10.0214 *    -3.3405 *  0.0000     2          
   215  Cl    c      2.2270 *    -5.5675 *   -10.0214 *  0.0000     2          
   216  Cl    c      2.2270 *   -10.0214 *    -5.5675 *  0.0000     2          
   217  Cl    c      6.6810 *    -5.5675 *     7.7945 *  0.0000     2          
   218  Cl    c     11.1349 *    -1.1135 *     3.3405 *  0.0000     2          
   219  Cl    c     11.1349 *     3.3405 *    -1.1135 *  0.0000     2          
   220  Na    c      2.2270 *     5.5675 *    10.0214 *  0.0000     2          
   221  Na    c      2.2270 *    10.0214 *     5.5675 *  0.0000     2          
   222  Na    c      6.6810 *     5.5675 *    -7.7945 *  0.0000     2          
   223  Na    c     11.1349 *     1.1135 *    -3.3405 *  0.0000     2          
   224  Na    c     11.1349 *    -3.3405 *     1.1135 *  0.0000     2          
   225  Cl    c      6.6810 *     7.7945 *    -5.5675 *  0.0000     2          
   226  Na    c      6.6810 *    -7.7945 *     5.5675 *  0.0000     2          
   227  O     c      8.9079 *     1.1135 *    -7.7945 *  0.0000     2          
   228  O     c      8.9079 *     5.5675 *     5.5675 *  0.0000     2          
   229  O     c      8.9079 *    -7.7945 *     1.1135 *  0.0000     2          
   230  Na    c      8.9079 *     1.1135 *     7.7945 *  0.0000     2          
   231  Na    c      8.9079 *     5.5675 *    -5.5675 *  0.0000     2          
   232  Na    c      8.9079 *    -7.7945 *    -1.1135 *  0.0000     2          
   233  Na    c      8.9079 *    -1.1135 *    -7.7945 *  0.0000     2          
   234  Na    c      8.9079 *     7.7945 *     1.1135 *  0.0000     2          
   235  Na    c      8.9079 *    -5.5675 *     5.5675 *  0.0000     2          
   236  O     c      4.4540 *    -7.7945 *    -7.7945 *  0.0000     2          
   237  Na    c      4.4540 *    -7.7945 *     7.7945 *  0.0000     2          
   238  Na    c      4.4540 *     7.7945 *    -7.7945 *  0.0000     2          
   239  O     s      0.0000       1.1135 *     1.1135 *  0.0000     1          
   240  Cl    s      2.2270 *    -1.1135 *    -1.1135 *  0.0000     2          
   241  O     s      0.0000       1.1135 *    -3.3405 *  0.0000     1          
   242  O     s      0.0000      -3.3405 *     1.1135 *  0.0000     1          
   243  Cl    s      2.2270 *    -1.1135 *     3.3405 *  0.0000     2          
   244  Cl    s      2.2270 *     3.3405 *    -1.1135 *  0.0000     2          
   245  O     s     -4.4540 *     1.1135 *     1.1135 *  0.0000     2          
   246  O     s      0.0000      -3.3405 *    -3.3405 *  0.0000     1          
   247  Cl    s      2.2270 *     3.3405 *     3.3405 *  0.0000     2          
   248  O     s      0.0000       1.1135 *     5.5675 *  0.0000     1          
   249  O     s      0.0000       5.5675 *     1.1135 *  0.0000     1          
   250  O     s     -4.4540 *     1.1135 *    -3.3405 *  0.0000     2          
   251  O     s     -4.4540 *    -3.3405 *     1.1135 *  0.0000     2          
   252  Cl    s      2.2270 *    -1.1135 *    -5.5675 *  0.0000     2          
   253  Cl    s      2.2270 *    -5.5675 *    -1.1135 *  0.0000     2          
   254  O     s      0.0000       5.5675 *    -3.3405 *  0.0000     1          
   255  O     s      0.0000      -3.3405 *     5.5675 *  0.0000     1          
   256  O     s     -4.4540 *    -3.3405 *    -3.3405 *  0.0000     2          
   257  Cl    s      2.2270 *     3.3405 *    -5.5675 *  0.0000     2          
   258  Cl    s      2.2270 *    -5.5675 *     3.3405 *  0.0000     2          
   259  Cl    s      6.6810 *    -1.1135 *    -1.1135 *  0.0000     2          
   260  O     s     -4.4540 *     5.5675 *     1.1135 *  0.0000     2          
   261  O     s      4.4540 *     1.1135 *     5.5675 *  0.0000     2          
   262  Cl    s      6.6810 *    -1.1135 *     3.3405 *  0.0000     2          
   263  Cl    s      6.6810 *     3.3405 *    -1.1135 *  0.0000     2          
   264  O     s      0.0000       5.5675 *     5.5675 *  0.0000     1          
   265  O     s     -4.4540 *     5.5675 *    -3.3405 *  0.0000     2          
   266  O     s     -4.4540 *    -3.3405 *     5.5675 *  0.0000     2          
   267  O     s      0.0000       1.1135 *    -7.7945 *  0.0000     1          
   268  O     s      0.0000      -7.7945 *     1.1135 *  0.0000     1          
   269  Cl    s      2.2270 *    -5.5675 *    -5.5675 *  0.0000     2          
   270  Cl    s      2.2270 *    -1.1135 *     7.7945 *  0.0000     2          
   271  Cl    s      2.2270 *     7.7945 *    -1.1135 *  0.0000     2          
   272  Cl    s      6.6810 *     3.3405 *     3.3405 *  0.0000     2          
   273  O     s      0.0000      -3.3405 *    -7.7945 *  0.0000     1          
   274  O     s      0.0000      -7.7945 *    -3.3405 *  0.0000     1          
   275  Cl    s      2.2270 *     3.3405 *     7.7945 *  0.0000     2          
   276  Cl    s      6.6810 *    -1.1135 *    -5.5675 *  0.0000     2          
   277  Cl    s      6.6810 *    -5.5675 *    -1.1135 *  0.0000     2          
   278  Cl    s      2.2270 *     7.7945 *     3.3405 *  0.0000     2          
   279  O     s      8.9079 *     1.1135 *     1.1135 *  0.0000     2          
   280  O     s      4.4540 *     5.5675 *     5.5675 *  0.0000     2          
   281  O     s      4.4540 *    -7.7945 *     1.1135 *  0.0000     2          
   282  O     s     -4.4540 *     1.1135 *    -7.7945 *  0.0000     2          
   283  Cl    s      6.6810 *     3.3405 *    -5.5675 *  0.0000     2          
   284  Cl    s      6.6810 *    -5.5675 *     3.3405 *  0.0000     2          
   285  O     s      8.9079 *     1.1135 *    -3.3405 *  0.0000     2          
   286  O     s      8.9079 *    -3.3405 *     1.1135 *  0.0000     2          
   287  O     s      0.0000       5.5675 *    -7.7945 *  0.0000     1          
   288  O     s      0.0000      -7.7945 *     5.5675 *  0.0000     1          
   289  O     s      4.4540 *    -3.3405 *    -7.7945 *  0.0000     2          
   290  O     s      4.4540 *    -7.7945 *    -3.3405 *  0.0000     2          
   291  Cl    s      2.2270 *    -5.5675 *     7.7945 *  0.0000     2          
   292  Cl    s      2.2270 *     7.7945 *    -5.5675 *  0.0000     2          
   293  O     s      0.0000       1.1135 *    10.0214 *  0.0000     1          
   294  O     s      0.0000      10.0214 *     1.1135 *  0.0000     1          
   295  O     s      8.9079 *    -3.3405 *    -3.3405 *  0.0000     2          
   296  Cl    s      2.2270 *    -1.1135 *   -10.0214 *  0.0000     2          
   297  Cl    s      2.2270 *   -10.0214 *    -1.1135 *  0.0000     2          
   298  Cl    s      6.6810 *    -5.5675 *    -5.5675 *  0.0000     2          
   299  Cl    s      6.6810 *    -1.1135 *     7.7945 *  0.0000     2          
   300  Cl    s      6.6810 *     7.7945 *    -1.1135 *  0.0000     2          
   301  O     s      0.0000      10.0214 *    -3.3405 *  0.0000     1          
   302  O     s      0.0000      -3.3405 *    10.0214 *  0.0000     1          
   303  O     s      8.9079 *     5.5675 *     1.1135 *  0.0000     2          
   304  O     s      4.4540 *    -7.7945 *     5.5675 *  0.0000     2          
   305  O     s      8.9079 *     1.1135 *     5.5675 *  0.0000     2          
   306  O     s     -4.4540 *     5.5675 *    -7.7945 *  0.0000     2          
   307  Cl    s      2.2270 *     3.3405 *   -10.0214 *  0.0000     2          
   308  Cl    s      2.2270 *   -10.0214 *     3.3405 *  0.0000     2          
   309  Cl    s      6.6810 *     3.3405 *     7.7945 *  0.0000     2          
   310  Cl    s      6.6810 *     7.7945 *     3.3405 *  0.0000     2          
   311  O     s      4.4540 *    10.0214 *     1.1135 *  0.0000     2          
   312  O     s     -4.4540 *     1.1135 *    10.0214 *  0.0000     2          
   313  O     s      8.9079 *     5.5675 *    -3.3405 *  0.0000     2          
   314  O     s      0.0000      -7.7945 *    -7.7945 *  0.0000     1          
   315  O     s      8.9079 *    -3.3405 *     5.5675 *  0.0000     2          
   316  Cl    s     11.1349 *    -1.1135 *    -1.1135 *  0.0000     2          
   317  Cl    s      2.2270 *     7.7945 *     7.7945 *  0.0000     2          
   318  O     s      0.0000       5.5675 *    10.0214 *  0.0000     1          
   319  O     s      0.0000      10.0214 *     5.5675 *  0.0000     1          
   320  O     s      4.4540 *    10.0214 *    -3.3405 *  0.0000     2          
   321  O     s      4.4540 *    -3.3405 *    10.0214 *  0.0000     2          
   322  Cl    s      2.2270 *    -5.5675 *   -10.0214 *  0.0000     2          
   323  Cl    s      2.2270 *   -10.0214 *    -5.5675 *  0.0000     2          
   324  Cl    s      6.6810 *    -5.5675 *     7.7945 *  0.0000     2          
   325  Cl    s     11.1349 *    -1.1135 *     3.3405 *  0.0000     2          
   326  Cl    s     11.1349 *     3.3405 *    -1.1135 *  0.0000     2          
   327  Cl    s      6.6810 *     7.7945 *    -5.5675 *  0.0000     2          
   328  O     s      8.9079 *     1.1135 *    -7.7945 *  0.0000     2          
   329  O     s      8.9079 *     5.5675 *     5.5675 *  0.0000     2          
   330  O     s      8.9079 *    -7.7945 *     1.1135 *  0.0000     2          
   331  O     s      4.4540 *    -7.7945 *    -7.7945 *  0.0000     2          
--------------------------------------------------------------------------------

  Components of defect energy : 

--------------------------------------------------------------------------------
  Region 1 - region 1                   =      8.25216097 eV
  Region 1 - region 2a (unrelaxed)      =     -0.01594839 eV
  Region 1 - 2a (relaxed - correction)  =     -0.30712388 eV
  Region 1 (Total)                      =      7.92908869 eV
  Region 2a                             =      0.15347638 eV
  Region 2b                             =     -0.43136015 eV
--------------------------------------------------------------------------------
  Total defect energy                   =      7.65120493 eV
--------------------------------------------------------------------------------

  Largest displacement in region 2 =   0.0215 Angstroms


  Number of variables =      904

  Maximum number of calculations  =        1000
  Maximum Hessian update interval =          10
  Maximum step size               =   1.0000000
  Maximum parameter tolerance     =   0.0000100
  Maximum function  tolerance     =   0.0000100
  Maximum gradient  tolerance     =   0.0010000

  Symmetry adapted optimisation

  Symmetry to be used for second derivatives

  Newton-Raphson optimiser to be used

  BFGS hessian update to be used

  Lower half triangular hessian to be used

  Start of defect optimisation :

  Cycle:      0 Defect Energy:   7.651205  Gnorm:     0.021974  CPU:    2.115
  ** Hessian calculated **
  Cycle:      1 Defect Energy:   6.781312  Gnorm:     0.018673  CPU:   10.822
  ** Hessian calculated **
  Cycle:      2 Defect Energy:   6.047157  Gnorm:     0.015339  CPU:   18.317
  ** Hessian calculated **
  Cycle:      3 Defect Energy:   4.672297  Gnorm:     0.004061  CPU:   24.455
  Cycle:      4 Defect Energy:   4.637788  Gnorm:     0.003182  CPU:   25.473
  ** Hessian calculated **
  Cycle:      5 Defect Energy:   4.593514  Gnorm:     0.001406  CPU:   28.173
  Cycle:      6 Defect Energy:   4.584865  Gnorm:     0.000758  CPU:   29.137
  Cycle:      7 Defect Energy:   4.580109  Gnorm:     0.000504  CPU:   30.102
  Cycle:      8 Defect Energy:   4.575797  Gnorm:     0.000279  CPU:   31.115
  Cycle:      9 Defect Energy:   4.571576  Gnorm:     0.000340  CPU:   32.038
  Cycle:     10 Defect Energy:   4.566010  Gnorm:     0.000500  CPU:   32.960
  Cycle:     11 Defect Energy:   4.559673  Gnorm:     0.000684  CPU:   33.892
  Cycle:     12 Defect Energy:   4.550282  Gnorm:     0.000858  CPU:   34.791
  Cycle:     13 Defect Energy:   4.536557  Gnorm:     0.001030  CPU:   35.797
  Cycle:     14 Defect Energy:   4.515528  Gnorm:     0.001207  CPU:   36.672
  ** Hessian calculated **
  Cycle:     15 Defect Energy:   4.506488  Gnorm:     0.000726  CPU:   39.060
  Cycle:     16 Defect Energy:   4.499313  Gnorm:     0.000621  CPU:   39.958
  Cycle:     17 Defect Energy:   4.489906  Gnorm:     0.000541  CPU:   40.909
  Cycle:     18 Defect Energy:   4.477228  Gnorm:     0.000483  CPU:   44.221
  Cycle:     19 Defect Energy:   4.459371  Gnorm:     0.000440  CPU:   46.590
  Cycle:     20 Defect Energy:   4.433407  Gnorm:     0.000443  CPU:   47.702
  Cycle:     21 Defect Energy:   4.397584  Gnorm:     0.000543  CPU:   48.800
  Cycle:     22 Defect Energy:   4.349922  Gnorm:     0.000808  CPU:   49.931
  Cycle:     23 Defect Energy:   4.307530  Gnorm:     0.001322  CPU:   51.108
  Cycle:     24 Defect Energy:   4.293664  Gnorm:     0.001208  CPU:   52.147
  ** Hessian calculated **
  Cycle:     25 Defect Energy:   4.259160  Gnorm:     0.001186  CPU:   54.900
  Cycle:     26 Defect Energy:   4.214492  Gnorm:     0.001116  CPU:   56.038
  Cycle:     27 Defect Energy:   4.175061  Gnorm:     0.000957  CPU:   57.073
  ** Hessian calculated **
  Cycle:     28 Defect Energy:   4.163468  Gnorm:     0.000697  CPU:   59.702
  Cycle:     29 Defect Energy:   4.150617  Gnorm:     0.000551  CPU:   60.722
  Cycle:     30 Defect Energy:   4.138253  Gnorm:     0.000445  CPU:   61.844
  Cycle:     31 Defect Energy:   4.127069  Gnorm:     0.000474  CPU:   62.788
  Cycle:     32 Defect Energy:   4.117376  Gnorm:     0.000490  CPU:   63.713
  Cycle:     33 Defect Energy:   4.110111  Gnorm:     0.000430  CPU:   64.655
  Cycle:     34 Defect Energy:   4.102026  Gnorm:     0.000466  CPU:   65.615
  Cycle:     35 Defect Energy:   4.093000  Gnorm:     0.000491  CPU:   66.636
  Cycle:     36 Defect Energy:   4.082959  Gnorm:     0.000492  CPU:   67.540
  Cycle:     37 Defect Energy:   4.072922  Gnorm:     0.000484  CPU:   68.449
  ** Hessian calculated **
  Cycle:     38 Defect Energy:   4.068768  Gnorm:     0.000400  CPU:   70.920
  Cycle:     39 Defect Energy:   4.063177  Gnorm:     0.000348  CPU:   71.926
  Cycle:     40 Defect Energy:   4.055829  Gnorm:     0.000332  CPU:   72.832
  Cycle:     41 Defect Energy:   4.046204  Gnorm:     0.000298  CPU:   73.707
  Cycle:     42 Defect Energy:   4.033802  Gnorm:     0.000291  CPU:   74.428
  Cycle:     43 Defect Energy:   4.018593  Gnorm:     0.000425  CPU:   74.939
  Cycle:     44 Defect Energy:   4.001575  Gnorm:     0.000618  CPU:   75.928
  Cycle:     45 Defect Energy:   3.988503  Gnorm:     0.000677  CPU:   76.633
  Cycle:     46 Defect Energy:   3.978399  Gnorm:     0.000673  CPU:   80.645
  Cycle:     47 Defect Energy:   3.964417  Gnorm:     0.000753  CPU:   82.500
  ** Hessian calculated **
  Cycle:     48 Defect Energy:   3.955754  Gnorm:     0.000624  CPU:   85.354
  Cycle:     49 Defect Energy:   3.944746  Gnorm:     0.000567  CPU:   86.457
  Cycle:     50 Defect Energy:   3.930905  Gnorm:     0.000491  CPU:   87.654
  Cycle:     51 Defect Energy:   3.915571  Gnorm:     0.000517  CPU:   88.672
  Cycle:     52 Defect Energy:   3.906049  Gnorm:     0.000341  CPU:   89.775
  Cycle:     53 Defect Energy:   3.900059  Gnorm:     0.000373  CPU:   90.746
  Cycle:     54 Defect Energy:   3.894465  Gnorm:     0.000370  CPU:   91.856
  Cycle:     55 Defect Energy:   3.889819  Gnorm:     0.000362  CPU:   92.856
  Cycle:     56 Defect Energy:   3.883629  Gnorm:     0.000384  CPU:   93.838
  Cycle:     57 Defect Energy:   3.877850  Gnorm:     0.000368  CPU:   94.871
  ** Hessian calculated **
  Cycle:     58 Defect Energy:   3.872564  Gnorm:     0.000356  CPU:   97.765
  Cycle:     59 Defect Energy:   3.864113  Gnorm:     0.000334  CPU:   98.861
  Cycle:     60 Defect Energy:   3.845119  Gnorm:     0.000198  CPU:   99.890
  Cycle:     61 Defect Energy:   3.840730  Gnorm:     0.000145  CPU:  100.897
  Cycle:     62 Defect Energy:   3.838361  Gnorm:     0.000093  CPU:  101.990
  Cycle:     63 Defect Energy:   3.837349  Gnorm:     0.000055  CPU:  102.866
  Cycle:     64 Defect Energy:   3.837041  Gnorm:     0.000036  CPU:  103.806
  Cycle:     65 Defect Energy:   3.836905  Gnorm:     0.000025  CPU:  104.750
  Cycle:     66 Defect Energy:   3.836837  Gnorm:     0.000017  CPU:  105.726
  Cycle:     67 Defect Energy:   3.836804  Gnorm:     0.000012  CPU:  106.882
  ** Hessian calculated **
  Cycle:     68 Defect Energy:   3.836787  Gnorm:     0.000008  CPU:  109.472
  Cycle:     69 Defect Energy:   3.836777  Gnorm:     0.000006  CPU:  110.430


  **** Optimisation achieved ****


  Final defect energy  =        3.83677040
  Final defect Gnorm   =        0.00000407

  Components of defect energy : 

--------------------------------------------------------------------------------
  Region 1 - region 1                   =      5.63231109 eV
  Region 1 - region 2a (unrelaxed)      =     -1.25306260 eV
  Region 1 - 2a (relaxed - correction)  =     -0.22589460 eV
  Region 1 (Total)                      =      4.15335389 eV
  Region 2a                             =      0.11283126 eV
  Region 2b                             =     -0.42941475 eV
--------------------------------------------------------------------------------
  Total defect energy                   =      3.83677040 eV
--------------------------------------------------------------------------------

  Largest displacement in region 2 =   0.0215 Angstroms

  Final coordinates of region 1 :

--------------------------------------------------------------------------------
   No.  Atomic        x           y           z          Radius      Charge
        Label       (Angs)      (Angs)      (Angs)       (Angs)       (e) 
--------------------------------------------------------------------------------
     1  Na    c     2.226987    0.178159    2.048828    0.000000    1.000000
     2  O     c     2.226987    2.327602    2.211384    0.000000    1.443000
     3  Cl    c     4.544011   -0.117314    0.016497    0.000000    0.996000
     4  Cl    c    -0.090038   -0.117314    0.016497    0.000000    0.996000
     5  Na    c     4.382575    2.251644    1.821812    0.000000    1.000000
     6  Na    c     0.071399    2.251644    1.821812    0.000000    1.000000
     7  O     c     2.226987    2.236519   -2.177355    0.000000    1.443000
     8  O     c     2.226987   -2.142043    2.201445    0.000000    1.443000
     9  Na    c     2.226987    2.495334    4.386183    0.000000    1.000000
    10  Na    c     2.226987   -2.513973    0.000856    0.000000    1.000000
    11  Na    c     2.226987    0.097902   -1.732999    0.000000    1.000000
    12  Na    c     2.226987    4.431710    1.681466    0.000000    1.000000
    13  Cl    c     4.442069   -0.098960    4.528336    0.000000    0.996000
    14  Cl    c     0.011905   -0.098960    4.528336    0.000000    0.996000
    15  Cl    c     4.595597    4.546189   -0.015788    0.000000    0.996000
    16  Cl    c    -0.141623    4.546189   -0.015788    0.000000    0.996000
    17  Na    c     4.391690    2.224325   -1.879636    0.000000    1.000000
    18  Na    c     0.062284    2.224325   -1.879636    0.000000    1.000000
    19  Na    c     4.454606   -2.086430    2.286141    0.000000    1.000000
    20  Na    c    -0.000632   -2.086430    2.286141    0.000000    1.000000
    21  O     c    -2.186883    2.234539    2.201339    0.000000    1.443000
    22  O     c     6.640857    2.234539    2.201339    0.000000    1.443000
    23  Na    c    -2.326377    0.015250    1.832211    0.000000    1.000000
    24  Na    c     6.780351    0.015250    1.832211    0.000000    1.000000
    25  O     c     2.226987   -2.155225   -2.213638    0.000000    1.443000
    26  Na    c     2.226987   -2.032909    4.425368    0.000000    1.000000
    27  Na    c    -2.502133    2.635105   -0.000385    0.000000    1.000000
    28  Na    c     6.956107    2.635105   -0.000385    0.000000    1.000000
    29  Na    c     2.226987    4.388634   -1.834173    0.000000    1.000000
    30  Cl    c     4.520342    4.506616    4.555961    0.000000    0.996000
    31  Cl    c    -0.066368    4.506616    4.555961    0.000000    0.996000
    32  Na    c     4.457443   -2.111280   -2.301541    0.000000    1.000000
    33  Na    c    -0.003469   -2.111280   -2.301541    0.000000    1.000000
    34  O     c     2.226987    2.266763    6.670791    0.000000    1.443000
    35  O     c     2.226987    6.658342    2.198500    0.000000    1.443000
    36  O     c    -2.197380    2.232485   -2.200133    0.000000    1.443000
    37  O     c     6.651353    2.232485   -2.200133    0.000000    1.443000
    38  O     c    -2.235370   -2.213312    2.224459    0.000000    1.443000
    39  O     c     6.689344   -2.213312    2.224459    0.000000    1.443000
    40  Na    c     2.226987    2.186524   -4.361137    0.000000    1.000000
    41  Na    c     2.226987    7.156672    0.001306    0.000000    1.000000
    42  Na    c    -1.921371    1.899621    4.414594    0.000000    1.000000
    43  Na    c     6.375345    1.899621    4.414594    0.000000    1.000000
    44  Na    c    -2.077051   -2.586690    0.002036    0.000000    1.000000
    45  Na    c     6.531025   -2.586690    0.002036    0.000000    1.000000
    46  Na    c     2.226987    0.038247    6.556994    0.000000    1.000000
    47  Na    c     2.226987   -4.392105    2.478542    0.000000    1.000000
    48  Na    c    -2.288850    0.013531   -1.844850    0.000000    1.000000
    49  Na    c     6.742824    0.013531   -1.844850    0.000000    1.000000
    50  Na    c    -2.120852    4.452719    2.583315    0.000000    1.000000
    51  Na    c     6.574826    4.452719    2.583315    0.000000    1.000000
    52  Cl    c     4.495991   -0.073244   -4.539424    0.000000    0.996000
    53  Cl    c    -0.042018   -0.073244   -4.539424    0.000000    0.996000
    54  Cl    c     4.424842   -4.496139    0.014113    0.000000    0.996000
    55  Cl    c     0.029132   -4.496139    0.014113    0.000000    0.996000
    56  Na    c     4.449838    2.375918    6.780040    0.000000    1.000000
    57  Na    c     0.004136    2.375918    6.780040    0.000000    1.000000
    58  Na    c     4.458116    6.703646    2.104863    0.000000    1.000000
    59  Na    c    -0.004142    6.703646    2.104863    0.000000    1.000000
    60  O     c     2.226987    6.649245   -2.184366    0.000000    1.443000
    61  O     c     2.226987   -2.212898    6.665344    0.000000    1.443000
    62  O     c    -2.236697   -2.216689   -2.219781    0.000000    1.443000
    63  O     c     6.690671   -2.216689   -2.219781    0.000000    1.443000
    64  Na    c     2.226987    6.241214    4.417471    0.000000    1.000000
    65  Na    c     2.226987   -1.794144   -4.426463    0.000000    1.000000
    66  Na    c    -2.322272   -1.829366    4.442393    0.000000    1.000000
    67  Na    c     6.776246   -1.829366    4.442393    0.000000    1.000000
    68  Na    c     2.226987    4.465650    7.044965    0.000000    1.000000
    69  Na    c     2.226987   -4.385296   -2.550802    0.000000    1.000000
    70  Na    c    -2.148224    4.446955   -2.589091    0.000000    1.000000
    71  Na    c     6.602197    4.446955   -2.589091    0.000000    1.000000
    72  Cl    c     4.511634    4.523949   -4.539876    0.000000    0.996000
    73  Cl    c    -0.057660    4.523949   -4.539876    0.000000    0.996000
    74  Cl    c     4.427753   -4.478188    4.485000    0.000000    0.996000
    75  Cl    c     0.026220   -4.478188    4.485000    0.000000    0.996000
    76  Na    c     4.459301    6.679085   -2.119692    0.000000    1.000000
    77  Na    c    -0.005327    6.679085   -2.119692    0.000000    1.000000
    78  Na    c     4.456183   -2.250490    6.559679    0.000000    1.000000
    79  Na    c    -0.002209   -2.250490    6.559679    0.000000    1.000000
    80  Cl    c     8.977499   -0.016292   -0.013325    0.000000    0.996000
    81  Cl    c    -4.523526   -0.016292   -0.013325    0.000000    0.996000
    82  Na    c     8.868550    2.303770    2.525830    0.000000    1.000000
    83  Na    c    -4.414576    2.303770    2.525830    0.000000    1.000000
    84  O     c    -2.233471    6.676656    2.227578    0.000000    1.443000
    85  O     c     6.687444    6.676656    2.227578    0.000000    1.443000
    86  Na    c    -2.362590    6.370905   -0.002047    0.000000    1.000000
    87  Na    c     6.816564    6.370905   -0.002047    0.000000    1.000000
    88  Na    c    -2.159971   -4.420341    2.606076    0.000000    1.000000
    89  Na    c     6.613944   -4.420341    2.606076    0.000000    1.000000
    90  O     c     6.677162    2.223031    6.639585    0.000000    1.443000
    91  O     c    -2.223188    2.223031    6.639585    0.000000    1.443000
    92  Na    c     6.437964    1.923576   -4.422742    0.000000    1.000000
    93  Na    c    -1.983990    1.923576   -4.422742    0.000000    1.000000
    94  Na    c     6.535178    0.013759    7.016359    0.000000    1.000000
    95  Na    c    -2.081205    0.013759    7.016359    0.000000    1.000000
    96  Cl    c     8.962533    0.022860    4.428650    0.000000    0.996000
    97  Cl    c    -4.508559    0.022860    4.428650    0.000000    0.996000
    98  Cl    c     9.026847    4.522758    0.012073    0.000000    0.996000
    99  Cl    c    -4.572874    4.522758    0.012073    0.000000    0.996000
   100  Na    c     8.877764    2.255475   -2.515873    0.000000    1.000000
   101  Na    c    -4.423790    2.255475   -2.515873    0.000000    1.000000
   102  Na    c     8.901687   -2.355716    2.089560    0.000000    1.000000
   103  Na    c    -4.447713   -2.355716    2.089560    0.000000    1.000000
   104  O     c     2.226987    6.670490    6.648864    0.000000    1.443000
   105  O     c    -2.237029    6.671039   -2.226281    0.000000    1.443000
   106  O     c     6.691003    6.671039   -2.226281    0.000000    1.443000
   107  O     c    -2.235482   -2.209018    6.666208    0.000000    1.443000
   108  O     c     6.689456   -2.209018    6.666208    0.000000    1.443000
   109  Na    c     2.226987    6.348847   -4.412445    0.000000    1.000000
   110  Na    c    -2.124769    7.010442    4.440958    0.000000    1.000000
   111  Na    c     6.578743    7.010442    4.440958    0.000000    1.000000
   112  Na    c    -2.336234   -1.854125   -4.440257    0.000000    1.000000
   113  Na    c     6.790208   -1.854125   -4.440257    0.000000    1.000000
   114  Na    c     2.226987   -4.438077    6.547672    0.000000    1.000000
   115  Na    c    -2.326831    4.456175    6.346647    0.000000    1.000000
   116  Na    c     6.780805    4.456175    6.346647    0.000000    1.000000
   117  Na    c    -2.230133   -4.421802   -2.611612    0.000000    1.000000
   118  Na    c     6.684107   -4.421802   -2.611612    0.000000    1.000000
   119  O     c     2.226987    2.220035   -6.651659    0.000000    1.443000
   120  O     c     2.226987   -6.649694    2.219178    0.000000    1.443000
   121  Na    c     2.226987    1.987337    8.905026    0.000000    1.000000
   122  Na    c     2.226987   -6.391712   -0.005501    0.000000    1.000000
   123  Na    c     2.226987    0.003341   -6.888077    0.000000    1.000000
   124  Na    c     2.226987    8.879618    2.592564    0.000000    1.000000
   125  Cl    c     4.459398   -4.506562   -4.478767    0.000000    0.996000
   126  Cl    c    -0.005424   -4.506562   -4.478767    0.000000    0.996000
   127  Na    c     4.459074    6.575757    6.676278    0.000000    1.000000
   128  Na    c    -0.005100    6.575757    6.676278    0.000000    1.000000
   129  Cl    c     4.418215   -0.005753    8.957482    0.000000    0.996000
   130  Cl    c     0.035759   -0.005753    8.957482    0.000000    0.996000
   131  Cl    c     4.491646    8.952593   -0.008006    0.000000    0.996000
   132  Cl    c    -0.037672    8.952593   -0.008006    0.000000    0.996000
   133  Cl    c     8.964360    4.482003    4.455328    0.000000    0.996000
   134  Cl    c    -4.510386    4.482003    4.455328    0.000000    0.996000
   135  Na    c     4.446675    2.264946   -6.759856    0.000000    1.000000
   136  Na    c     0.007299    2.264946   -6.759856    0.000000    1.000000
   137  Na    c     4.449548   -6.635893    2.188373    0.000000    1.000000
   138  Na    c     0.004426   -6.635893    2.188373    0.000000    1.000000
   139  Na    c     8.907245   -2.272914   -2.064633    0.000000    1.000000
   140  Na    c    -4.453271   -2.272914   -2.064633    0.000000    1.000000
   141  O     c     2.226987   -2.228065   -6.645782    0.000000    1.443000
   142  O     c     2.226987   -6.641249   -2.226078    0.000000    1.443000
   143  Na    c     2.226987   -2.167838    8.885144    0.000000    1.000000
   144  Na    c     2.226987   -6.833110    4.445653    0.000000    1.000000
   145  Na    c     2.226987    4.436527   -6.783038    0.000000    1.000000
   146  Na    c     2.226987    8.874946   -2.560640    0.000000    1.000000
   147  Cl    c     4.483712    4.473623    8.940975    0.000000    0.996000
   148  Cl    c    -0.029738    4.473623    8.940975    0.000000    0.996000
   149  Cl    c     8.971918    0.029630   -4.457642    0.000000    0.996000
   150  Cl    c    -4.517944    0.029630   -4.457642    0.000000    0.996000
   151  Cl    c     8.956118   -4.457728   -0.003441    0.000000    0.996000
   152  Cl    c    -4.502144   -4.457728   -0.003441    0.000000    0.996000
   153  Na    c     4.457835   -2.218242   -6.567261    0.000000    1.000000
   154  Na    c    -0.003861   -2.218242   -6.567261    0.000000    1.000000
   155  Na    c     8.895198    2.072609    6.479711    0.000000    1.000000
   156  Na    c    -4.441224    2.072609    6.479711    0.000000    1.000000
   157  Na    c     8.907813    6.605577    2.364085    0.000000    1.000000
   158  Na    c    -4.453839    6.605577    2.364085    0.000000    1.000000
   159  Cl    c     4.452746    8.973108    4.475710    0.000000    0.996000
   160  Cl    c     0.001228    8.973108    4.475710    0.000000    0.996000
   161  Na    c     4.450997   -6.589827   -2.211708    0.000000    1.000000
   162  Na    c     0.002977   -6.589827   -2.211708    0.000000    1.000000
   163  O     c    11.106762    2.223141    2.219539    0.000000    1.443000
   164  O     c    -6.652788    2.223141    2.219539    0.000000    1.443000
   165  Na    c    10.877066    2.259519   -0.001625    0.000000    1.000000
   166  Na    c    -6.423092    2.259519   -0.001625    0.000000    1.000000
   167  Na    c    11.000659    0.001915    2.168844    0.000000    1.000000
   168  Na    c    -6.546685    0.001915    2.168844    0.000000    1.000000
   169  O     c     6.690292    6.684821    6.663007    0.000000    1.443000
   170  O     c    -2.236318    6.684821    6.663007    0.000000    1.443000
   171  O     c     6.677102   -6.642829    2.219156    0.000000    1.443000
   172  O     c    -2.223128   -6.642829    2.219156    0.000000    1.443000
   173  O     c    -2.222624    2.220055   -6.646351    0.000000    1.443000
   174  O     c     6.676598    2.220055   -6.646351    0.000000    1.443000
   175  Na    c     6.569967    6.922930   -4.448210    0.000000    1.000000
   176  Na    c    -2.115993    6.922930   -4.448210    0.000000    1.000000
   177  Na    c     6.728191   -6.361390   -0.002007    0.000000    1.000000
   178  Na    c    -2.274217   -6.361390   -0.002007    0.000000    1.000000
   179  Na    c    -2.339983    2.514409    8.868956    0.000000    1.000000
   180  Na    c     6.793957    2.514409    8.868956    0.000000    1.000000
   181  Na    c     6.745354    8.894548    1.935660    0.000000    1.000000
   182  Na    c    -2.291380    8.894548    1.935660    0.000000    1.000000
   183  Na    c     6.745087   -4.434913    6.406690    0.000000    1.000000
   184  Na    c    -2.291113   -4.434913    6.406690    0.000000    1.000000
   185  Na    c    -2.154501    0.002137   -6.948897    0.000000    1.000000
   186  Na    c     6.608475    0.002137   -6.948897    0.000000    1.000000
   187  Cl    c     8.952650    4.471196   -4.466679    0.000000    0.996000
   188  Cl    c    -4.498677    4.471196   -4.466679    0.000000    0.996000
   189  Cl    c     8.954903   -4.471011    4.445222    0.000000    0.996000
   190  Cl    c    -4.500929   -4.471011    4.445222    0.000000    0.996000
   191  Na    c     8.907744    6.640741   -2.357809    0.000000    1.000000
   192  Na    c    -4.453770    6.640741   -2.357809    0.000000    1.000000
   193  Na    c     8.900548   -2.110567    6.786462    0.000000    1.000000
   194  Na    c    -4.446575   -2.110567    6.786462    0.000000    1.000000
   195  O     c    11.111275    2.228437   -2.220195    0.000000    1.443000
   196  O     c    -6.657301    2.228437   -2.220195    0.000000    1.443000
   197  O     c    11.132497   -2.222746    2.230301    0.000000    1.443000
   198  O     c    -6.678523   -2.222746    2.230301    0.000000    1.443000
   199  Na    c    11.319300    2.170324    4.437410    0.000000    1.000000
   200  Na    c    -6.865326    2.170324    4.437410    0.000000    1.000000
   201  Na    c    11.244913   -2.271650    0.006363    0.000000    1.000000
   202  Na    c    -6.790939   -2.271650    0.006363    0.000000    1.000000
   203  Na    c    11.086884    0.002026   -2.222905    0.000000    1.000000
   204  Na    c    -6.632911    0.002026   -2.222905    0.000000    1.000000
   205  Na    c    11.172820    4.448654    2.244479    0.000000    1.000000
   206  Na    c    -6.718846    4.448654    2.244479    0.000000    1.000000
   207  O     c     2.226987    6.665420   -6.649696    0.000000    1.443000
   208  O     c     2.226987   -6.670611    6.675088    0.000000    1.443000
   209  O     c     6.690567   -2.224038   -6.661517    0.000000    1.443000
   210  O     c    -2.236593   -2.224038   -6.661517    0.000000    1.443000
   211  O     c     6.676936   -6.645756   -2.222761    0.000000    1.443000
   212  O     c    -2.222962   -6.645756   -2.222761    0.000000    1.443000
   213  Na    c     2.226987    6.931325    8.875211    0.000000    1.000000
   214  Na    c     2.226987   -6.869847   -4.445790    0.000000    1.000000
   215  Na    c     6.627348   -2.482808    8.886105    0.000000    1.000000
   216  Na    c    -2.173374   -2.482808    8.886105    0.000000    1.000000
   217  Na    c     6.640899   -6.922129    4.435827    0.000000    1.000000
   218  Na    c    -2.186925   -6.922129    4.435827    0.000000    1.000000
   219  Na    c     2.226987    8.891854    6.431514    0.000000    1.000000
   220  Na    c     2.226987   -4.442707   -6.447094    0.000000    1.000000
   221  Na    c     6.706673    4.453600   -6.468405    0.000000    1.000000
   222  Na    c    -2.252699    4.453600   -6.468405    0.000000    1.000000
   223  Na    c     6.727699    8.896496   -2.021181    0.000000    1.000000
   224  Na    c    -2.273725    8.896496   -2.021181    0.000000    1.000000
   225  Cl    c     4.465603   -4.482535    8.936395    0.000000    0.996000
   226  Cl    c    -0.011629   -4.482535    8.936395    0.000000    0.996000
   227  Na    c     4.451742    6.622358   -6.674386    0.000000    1.000000
   228  Na    c     0.002231    6.622358   -6.674386    0.000000    1.000000
   229  Cl    c     4.455333    8.966066   -4.466928    0.000000    0.996000
   230  Cl    c    -0.001359    8.966066   -4.466928    0.000000    0.996000
   231  Na    c     4.456021   -6.648018    6.670170    0.000000    1.000000
   232  Na    c    -0.002047   -6.648018    6.670170    0.000000    1.000000
   233  O     c     2.226987    2.228104   11.129182    0.000000    1.443000
   234  O     c     2.226987   11.110543    2.233199    0.000000    1.443000
   235  Na    c     2.226987    2.251874   -8.908925    0.000000    1.000000
   236  Na    c     2.226987   10.991569    0.001921    0.000000    1.000000
   237  Na    c     2.226987   -0.004064   11.213239    0.000000    1.000000
   238  Na    c     2.226987   -8.888173    2.101522    0.000000    1.000000
   239  O     c    11.136059   -2.227285   -2.218401    0.000000    1.443000
   240  O     c    -6.682086   -2.227285   -2.218401    0.000000    1.443000
   241  Na    c    11.039088   -2.172284    4.455421    0.000000    1.000000
   242  Na    c    -6.585115   -2.172284    4.455421    0.000000    1.000000
   243  Na    c    11.145513    4.453302   -2.225177    0.000000    1.000000
   244  Na    c    -6.691539    4.453302   -2.225177    0.000000    1.000000
   245  Cl    c     4.436784    0.005745   -8.925405    0.000000    0.996000
   246  Cl    c     0.017190    0.005745   -8.925405    0.000000    0.996000
   247  Cl    c     4.458058   -8.976521    0.000060    0.000000    0.996000
   248  Cl    c    -0.004084   -8.976521    0.000060    0.000000    0.996000
   249  Na    c     4.457945    2.214735   11.081803    0.000000    1.000000
   250  Na    c    -0.003972    2.214735   11.081803    0.000000    1.000000
   251  Na    c     4.455629   11.087159    2.233683    0.000000    1.000000
   252  Na    c    -0.001655   11.087159    2.233683    0.000000    1.000000
   253  Cl    c     8.954465   -4.480234   -4.461797    0.000000    0.996000
   254  Cl    c    -4.500491   -4.480234   -4.461797    0.000000    0.996000
   255  Na    c     8.906752    6.784116    6.606662    0.000000    1.000000
   256  Na    c    -4.452778    6.784116    6.606662    0.000000    1.000000
   257  Cl    c     8.935825    0.017410    8.908784    0.000000    0.996000
   258  Cl    c    -4.481851    0.017410    8.908784    0.000000    0.996000
   259  Cl    c     8.939029    8.936665   -0.010995    0.000000    0.996000
   260  Cl    c    -4.485055    8.936665   -0.010995    0.000000    0.996000
   261  Na    c     8.899926    2.178225   -6.544756    0.000000    1.000000
   262  Na    c    -4.445952    2.178225   -6.544756    0.000000    1.000000
   263  Na    c     8.903962   -6.612670    2.273307    0.000000    1.000000
   264  Na    c    -4.449988   -6.612670    2.273307    0.000000    1.000000
   265  O     c     2.226987   11.110998   -2.230272    0.000000    1.443000
   266  O     c     2.226987   -2.227497   11.130045    0.000000    1.443000
   267  O     c    11.138764    6.679420    2.229608    0.000000    1.443000
   268  O     c    -6.684790    6.679420    2.229608    0.000000    1.443000
   269  Na    c     2.226987   11.302513    4.452575    0.000000    1.000000
   270  Na    c     2.226987   -2.343864   -8.884385    0.000000    1.000000
   271  Na    c    11.049940    6.689248    0.001780    0.000000    1.000000
   272  Na    c    -6.595966    6.689248    0.001780    0.000000    1.000000
   273  Na    c     2.226987    4.455386   11.013953    0.000000    1.000000
[...]
    251 y         -2.226987     -2.222823     0.004164    Cartesian   -0.19
    251 z          2.226987      2.223185    -0.003802    Cartesian   -0.17
    252 x          4.453974      4.524250     0.070276    Cartesian    1.58
    252 y          0.000000     -0.104584    -0.104584    Cartesian    0.00
    252 z         -4.453974     -4.555993    -0.102019    Cartesian    2.29
    253 x          4.453974      4.429509    -0.024465    Cartesian   -0.55
    253 y         -4.453974     -4.506163    -0.052189    Cartesian    1.17
    253 z          0.000000      0.016279     0.016279    Cartesian    0.00
    254 x          2.226987      2.226987     0.000000    Cartesian    0.00
    254 y          6.680961      6.676161    -0.004799    Cartesian   -0.07
    254 z         -2.226987     -2.180034     0.046952    Cartesian   -2.11
    255 x          2.226987      2.226987     0.000000    Cartesian    0.00
    255 y         -2.226987     -2.214046     0.012941    Cartesian   -0.58
    255 z          6.680961      6.648919    -0.032042    Cartesian   -0.48
    256 x         -2.226987     -2.241887    -0.014900    Cartesian    0.67
    256 y         -2.226987     -2.222285     0.004702    Cartesian   -0.21
    256 z         -2.226987     -2.219960     0.007027    Cartesian   -0.32
    257 x          4.453974      4.542836     0.088862    Cartesian    2.00
    257 y          4.453974      4.554226     0.100252    Cartesian    2.25
    257 z         -4.453974     -4.556874    -0.102900    Cartesian    2.31
    258 x          4.453974      4.434060    -0.019914    Cartesian   -0.45
    258 y         -4.453974     -4.481821    -0.027848    Cartesian    0.63
    258 z          4.453974      4.483096     0.029122    Cartesian    0.65
    259 x          8.907948      8.968165     0.060218    Cartesian    0.68
    259 y          0.000000     -0.017432    -0.017432    Cartesian    0.00
    259 z          0.000000     -0.010449    -0.010449    Cartesian    0.00
    260 x         -2.226987     -2.234285    -0.007298    Cartesian    0.33
    260 y          6.680961      6.683730     0.002769    Cartesian    0.04
    260 z          2.226987      2.236479     0.009492    Cartesian    0.43
    261 x          6.680961      6.667683    -0.013278    Cartesian   -0.20
    261 y          2.226987      2.219477    -0.007509    Cartesian   -0.34
    261 z          6.680961      6.651221    -0.029739    Cartesian   -0.45
    262 x          8.907948      8.960500     0.052552    Cartesian    0.59
    262 y          0.000000      0.028585     0.028585    Cartesian    0.00
    262 z          4.453974      4.431722    -0.022252    Cartesian   -0.50
    263 x          8.907948      9.016952     0.109004    Cartesian    1.22
    263 y          4.453974      4.516109     0.062135    Cartesian    1.40
    263 z          0.000000      0.012855     0.012855    Cartesian    0.00
    264 x          2.226987      2.226987     0.000000    Cartesian    0.00
    264 y          6.680961      6.655180    -0.025781    Cartesian   -0.39
    264 z          6.680961      6.676162    -0.004799    Cartesian   -0.07
    265 x         -2.226987     -2.239855    -0.012868    Cartesian    0.58
    265 y          6.680961      6.676290    -0.004671    Cartesian   -0.07
    265 z         -2.226987     -2.240642    -0.013655    Cartesian    0.61
    266 x         -2.226987     -2.239383    -0.012396    Cartesian    0.56
    266 y         -2.226987     -2.206378     0.020609    Cartesian   -0.93
    266 z          6.680961      6.681114     0.000153    Cartesian    0.00
    267 x          2.226987      2.226987     0.000000    Cartesian    0.00
    267 y          2.226987      2.230629     0.003642    Cartesian    0.16
    267 z         -6.680961     -6.701867    -0.020906    Cartesian    0.31
    268 x          2.226987      2.226987     0.000000    Cartesian    0.00
    268 y         -6.680961     -6.655972     0.024989    Cartesian   -0.37
    268 z          2.226987      2.225139    -0.001848    Cartesian   -0.08
    269 x          4.453974      4.460780     0.006807    Cartesian    0.15
    269 y         -4.453974     -4.519525    -0.065551    Cartesian    1.47
    269 z         -4.453974     -4.473170    -0.019196    Cartesian    0.43
    270 x          4.453974      4.421949    -0.032025    Cartesian   -0.72
    270 y          0.000000      0.003307     0.003307    Cartesian    0.00
    270 z          8.907948      8.958654     0.050706    Cartesian    0.57
    271 x          4.453974      4.488902     0.034928    Cartesian    0.78
    271 y          8.907948      8.946415     0.038467    Cartesian    0.43
    271 z          0.000000     -0.006079    -0.006079    Cartesian    0.00
    272 x          8.907948      8.953349     0.045401    Cartesian    0.51
    272 y          4.453974      4.479150     0.025176    Cartesian    0.57
    272 z          4.453974      4.447695    -0.006279    Cartesian   -0.14
    273 x          2.226987      2.226987     0.000000    Cartesian    0.00
    273 y         -2.226987     -2.217592     0.009394    Cartesian   -0.42
    273 z         -6.680961     -6.647479     0.033482    Cartesian   -0.50
    274 x          2.226987      2.226987     0.000000    Cartesian    0.00
    274 y         -6.680961     -6.647014     0.033947    Cartesian   -0.51
    274 z         -2.226987     -2.235242    -0.008255    Cartesian    0.37
    275 x          4.453974      4.480404     0.026430    Cartesian    0.59
    275 y          4.453974      4.469139     0.015165    Cartesian    0.34
    275 z          8.907948      8.933261     0.025314    Cartesian    0.28
    276 x          8.907948      8.969654     0.061706    Cartesian    0.69
    276 y          0.000000      0.034449     0.034449    Cartesian    0.00
    276 z         -4.453974     -4.457544    -0.003570    Cartesian    0.08
    277 x          8.907948      8.950646     0.042699    Cartesian    0.48
    277 y         -4.453974     -4.452444     0.001530    Cartesian   -0.03
    277 z          0.000000     -0.002572    -0.002572    Cartesian    0.00
    278 x          4.453974      4.449483    -0.004491    Cartesian   -0.10
    278 y          8.907948      8.980048     0.072101    Cartesian    0.81
    278 z          4.453974      4.477058     0.023084    Cartesian    0.52
    279 x         11.134934     11.111665    -0.023269    Cartesian   -0.21
    279 y          2.226987      2.224252    -0.002735    Cartesian   -0.12
    279 z          2.226987      2.229706     0.002719    Cartesian    0.12
    280 x          6.680961      6.693630     0.012669    Cartesian    0.19
    280 y          6.680961      6.705538     0.024577    Cartesian    0.37
    280 z          6.680961      6.660123    -0.020838    Cartesian   -0.31
    281 x          6.680961      6.674500    -0.006460    Cartesian   -0.10
    281 y         -6.680961     -6.646868     0.034093    Cartesian   -0.51
    281 z          2.226987      2.237176     0.010189    Cartesian    0.46
    282 x         -2.226987     -2.212484     0.014503    Cartesian   -0.65
    282 y          2.226987      2.211231    -0.015755    Cartesian   -0.71
    282 z         -6.680961     -6.660508     0.020453    Cartesian   -0.31
    283 x          8.907948      8.948910     0.040963    Cartesian    0.46
    283 y          4.453974      4.469005     0.015031    Cartesian    0.34
    283 z         -4.453974     -4.455276    -0.001303    Cartesian    0.03
    284 x          8.907948      8.949737     0.041789    Cartesian    0.47
    284 y         -4.453974     -4.481817    -0.027844    Cartesian    0.63
    284 z          4.453974      4.441271    -0.012703    Cartesian   -0.29
    285 x         11.134934     11.115623    -0.019311    Cartesian   -0.17
    285 y          2.226987      2.232003     0.005016    Cartesian    0.23
    285 z         -2.226987     -2.231413    -0.004426    Cartesian    0.20
    286 x         11.134934     11.136540     0.001605    Cartesian    0.01
    286 y         -2.226987     -2.227416    -0.000429    Cartesian    0.02
    286 z          2.226987      2.223697    -0.003290    Cartesian   -0.15
    287 x          2.226987      2.226987     0.000000    Cartesian    0.00
    287 y          6.680961      6.646620    -0.034341    Cartesian   -0.51
    287 z         -6.680961     -6.664778     0.016183    Cartesian   -0.24
    288 x          2.226987      2.226987     0.000000    Cartesian    0.00
    288 y         -6.680961     -6.678331     0.002629    Cartesian   -0.04
    288 z          6.680961      6.674110    -0.006850    Cartesian   -0.10
    289 x          6.680961      6.697891     0.016930    Cartesian    0.25
    289 y         -2.226987     -2.216203     0.010784    Cartesian   -0.48
    289 z         -6.680961     -6.675456     0.005504    Cartesian   -0.08
    290 x          6.680961      6.678096    -0.002865    Cartesian   -0.04
    290 y         -6.680961     -6.649040     0.031921    Cartesian   -0.48
    290 z         -2.226987     -2.240116    -0.013129    Cartesian    0.59
    291 x          4.453974      4.480835     0.026861    Cartesian    0.60
    291 y         -4.453974     -4.484790    -0.030816    Cartesian    0.69
    291 z          8.907948      8.951664     0.043717    Cartesian    0.49
    292 x          4.453974      4.452447    -0.001526    Cartesian   -0.03
    292 y          8.907948      8.971256     0.063309    Cartesian    0.71
    292 z         -4.453974     -4.463712    -0.009738    Cartesian    0.22
    293 x          2.226987      2.226987     0.000000    Cartesian    0.00
    293 y          2.226987      2.212141    -0.014846    Cartesian   -0.67
    293 z         11.134934     11.123403    -0.011532    Cartesian   -0.10
    294 x          2.226987      2.226987     0.000000    Cartesian    0.00
    294 y         11.134934     11.117173    -0.017761    Cartesian   -0.16
    294 z          2.226987      2.256831     0.029844    Cartesian    1.34
    295 x         11.134934     11.140565     0.005630    Cartesian    0.05
    295 y         -2.226987     -2.234813    -0.007826    Cartesian    0.35
    295 z         -2.226987     -2.210096     0.016891    Cartesian   -0.76
    296 x          4.453974      4.437387    -0.016587    Cartesian   -0.37
    296 y          0.000000      0.011193     0.011193    Cartesian    0.00
    296 z         -8.907948     -8.910038    -0.002090    Cartesian    0.02
    297 x          4.453974      4.460323     0.006349    Cartesian    0.14
    297 y         -8.907948     -9.001137    -0.093189    Cartesian    1.05
    297 z          0.000000      0.000340     0.000340    Cartesian    0.00
    298 x          8.907948      8.949447     0.041500    Cartesian    0.47
    298 y         -4.453974     -4.489708    -0.035734    Cartesian    0.80
    298 z         -4.453974     -4.455948    -0.001974    Cartesian    0.04
    299 x          8.907948      8.939312     0.031365    Cartesian    0.35
    299 y          0.000000      0.012962     0.012962    Cartesian    0.00
    299 z          8.907948      8.903372    -0.004575    Cartesian   -0.05
    300 x          8.907948      8.930486     0.022539    Cartesian    0.25
    300 y          8.907948      8.946706     0.038759    Cartesian    0.44
    300 z          0.000000     -0.008101    -0.008101    Cartesian    0.00
    301 x          2.226987      2.226987     0.000000    Cartesian    0.00
    301 y         11.134934     11.112573    -0.022361    Cartesian   -0.20
    301 z         -2.226987     -2.253746    -0.026759    Cartesian    1.20
    302 x          2.226987      2.226987     0.000000    Cartesian    0.00
    302 y         -2.226987     -2.225187     0.001800    Cartesian   -0.08
    302 z         11.134934     11.141812     0.006878    Cartesian    0.06
    303 x         11.134934     11.143117     0.008183    Cartesian    0.07
    303 y          6.680961      6.680245    -0.000716    Cartesian   -0.01
    303 z          2.226987      2.240436     0.013449    Cartesian    0.60
    304 x          6.680961      6.688759     0.007798    Cartesian    0.12
    304 y         -6.680961     -6.682686    -0.001726    Cartesian    0.03
    304 z          6.680961      6.643685    -0.037275    Cartesian   -0.56
    305 x         11.134934     11.141885     0.006951    Cartesian    0.06
    305 y          2.226987      2.215593    -0.011394    Cartesian   -0.51
    305 z          6.680961      6.656113    -0.024848    Cartesian   -0.37
    306 x         -2.226987     -2.227644    -0.000657    Cartesian    0.03
    306 y          6.680961      6.710099     0.029139    Cartesian    0.44
    306 z         -6.680961     -6.671565     0.009396    Cartesian   -0.14
    307 x          4.453974      4.445233    -0.008741    Cartesian   -0.20
    307 y          4.453974      4.449067    -0.004906    Cartesian   -0.11
    307 z         -8.907948     -8.948399    -0.040452    Cartesian    0.45
    308 x          4.453974      4.472631     0.018657    Cartesian    0.42
    308 y         -8.907948     -8.910561    -0.002613    Cartesian    0.03
    308 z          4.453974      4.477216     0.023242    Cartesian    0.52
    309 x          8.907948      8.930735     0.022788    Cartesian    0.26
    309 y          4.453974      4.475778     0.021804    Cartesian    0.49
    309 z          8.907948      8.959084     0.051136    Cartesian    0.57
    310 x          8.907948      8.950742     0.042795    Cartesian    0.48
    310 y          8.907948      8.918151     0.010203    Cartesian    0.11
    310 z          4.453974      4.459496     0.005522    Cartesian    0.12
    311 x          6.680961      6.691808     0.010848    Cartesian    0.16
    311 y         11.134934     11.130859    -0.004075    Cartesian   -0.04
    311 z          2.226987      2.199837    -0.027150    Cartesian   -1.22
    312 x         -2.226987     -2.238767    -0.011780    Cartesian    0.53
    312 y          2.226987      2.252490     0.025503    Cartesian    1.15
    312 z         11.134934     11.113776    -0.021159    Cartesian   -0.19
    313 x         11.134934     11.140700     0.005766    Cartesian    0.05
    313 y          6.680961      6.682405     0.001444    Cartesian    0.02
    313 z         -2.226987     -2.237606    -0.010619    Cartesian    0.48
    314 x          2.226987      2.226987     0.000000    Cartesian    0.00
    314 y         -6.680961     -6.687581    -0.006620    Cartesian    0.10
    314 z         -6.680961     -6.666240     0.014721    Cartesian   -0.22
    315 x         11.134934     11.128509    -0.006425    Cartesian   -0.06
    315 y         -2.226987     -2.211825     0.015162    Cartesian   -0.68
    315 z          6.680961      6.692737     0.011776    Cartesian    0.18
    316 x         13.361921     13.429060     0.067139    Cartesian    0.50
    316 y          0.000000     -0.005988    -0.005988    Cartesian    0.00
    316 z          0.000000      0.008645     0.008645    Cartesian    0.00
    317 x          4.453974      4.460790     0.006817    Cartesian    0.15
    317 y          8.907948      8.946330     0.038382    Cartesian    0.43
    317 z          8.907948      8.936990     0.029042    Cartesian    0.33
    318 x          2.226987      2.226987     0.000000    Cartesian    0.00
    318 y          6.680961      6.707813     0.026853    Cartesian    0.40
    318 z         11.134934     11.101769    -0.033165    Cartesian   -0.30
    319 x          2.226987      2.226987     0.000000    Cartesian    0.00
    319 y         11.134934     11.153761     0.018827    Cartesian    0.17
    319 z          6.680961      6.656443    -0.024517    Cartesian   -0.37
    320 x          6.680961      6.689241     0.008281    Cartesian    0.12
    320 y         11.134934     11.147499     0.012564    Cartesian    0.11
    320 z         -2.226987     -2.212455     0.014532    Cartesian   -0.65
    321 x          6.680961      6.682049     0.001088    Cartesian    0.02
    321 y         -2.226987     -2.243269    -0.016282    Cartesian    0.73
    321 z         11.134934     11.115319    -0.019615    Cartesian   -0.18
    322 x          4.453974      4.473722     0.019748    Cartesian    0.44
    322 y         -4.453974     -4.458863    -0.004889    Cartesian    0.11
    322 z         -8.907948     -8.980425    -0.072477    Cartesian    0.81
    323 x          4.453974      4.461143     0.007169    Cartesian    0.16
    323 y         -8.907948     -8.920776    -0.012829    Cartesian    0.14
    323 z         -4.453974     -4.487220    -0.033246    Cartesian    0.75
    324 x          8.907948      8.917937     0.009990    Cartesian    0.11
    324 y         -4.453974     -4.457875    -0.003901    Cartesian    0.09
    324 z          8.907948      8.934530     0.026582    Cartesian    0.30
    325 x         13.361921     13.400442     0.038521    Cartesian    0.29
    325 y          0.000000     -0.007050    -0.007050    Cartesian    0.00
    325 z          4.453974      4.492567     0.038593    Cartesian    0.87
    326 x         13.361921     13.421113     0.059191    Cartesian    0.44
    326 y          4.453974      4.427648    -0.026326    Cartesian   -0.59
    326 z          0.000000      0.001720     0.001720    Cartesian    0.00
    327 x          8.907948      8.944133     0.036186    Cartesian    0.41
    327 y          8.907948      8.924328     0.016381    Cartesian    0.18
    327 z         -4.453974     -4.464070    -0.010096    Cartesian    0.23
    328 x         11.134934     11.156358     0.021423    Cartesian    0.19
    328 y          2.226987      2.226354    -0.000633    Cartesian   -0.03
    328 z         -6.680961     -6.669461     0.011499    Cartesian   -0.17
    329 x         11.134934     11.140074     0.005139    Cartesian    0.05
    329 y          6.680961      6.693320     0.012359    Cartesian    0.18
    329 z          6.680961      6.676203    -0.004758    Cartesian   -0.07
    330 x         11.134934     11.144439     0.009505    Cartesian    0.09
    330 y         -6.680961     -6.678405     0.002555    Cartesian   -0.04
    330 z          2.226987      2.235765     0.008778    Cartesian    0.39
    331 x          6.680961      6.687297     0.006336    Cartesian    0.09
    331 y         -6.680961     -6.696027    -0.015066    Cartesian    0.23
    331 z         -6.680961     -6.665018     0.015942    Cartesian   -0.24
--------------------------------------------------------------------------------


  Time to end of optimisation  =      111.5086 seconds


  Peak dynamic memory used =     101.61 MB 


  Timing analysis for GULP :

--------------------------------------------------------------------------------
  Task / Subroutine                                          Time (Seconds)
--------------------------------------------------------------------------------
  Calculation of reciprocal space energy and derivatives          0.0006
  Calculation of reciprocal space energy using symmetry           0.0009
  Calculation of real space energy and derivatives                0.0034
  Calculation of real space energy using symmetry                 0.0086
  Calculation for region 1 energy and derivatives (2-b)          65.6682
  Calculation for region 2a energy                               40.0413
  Calculation for region 2b energy                                0.0179
  Calculation and manipulation of Hessian matrix                  0.1923
  Calculation of matrix inversion                                 5.1437
  Symmetry generation of equivalent positions                     0.0040
--------------------------------------------------------------------------------
  Total CPU time                                                111.5087
--------------------------------------------------------------------------------


  Dump file written as Na3OCl.grs


  Job Finished at 17:30.33  1st March      2021                               

