********************************************************************************
*                       GENERAL UTILITY LATTICE PROGRAM                        *
*                                 Julian Gale                                  *
*                       Curtin Institute for Computation                       *
*                    School of Molecular and Life Sciences                     *
*                    Curtin University, Western Australia                      *
********************************************************************************
* Version = 5.2.0 * Last modified =  10th September 2020                       *
********************************************************************************
*  optimise     - perform optimisation run                                     *
*  conp         - constant pressure calculation                                *
*  property     - calculate properties for final geometry                      *
*  defect       - perform defect calculation after bulk run                    *
*  compare      - compare initial and final structures                         *
********************************************************************************

  Job Started  at 17:28.50  1st March      2021                               

  Number of CPUs =     1


  Total number of configurations input =      1

********************************************************************************
*  Input for Configuration =   1                                               *
********************************************************************************

  Formula = ClONa3                                                      

  Number of irreducible atoms/shells =       5


  Total number atoms/shells =       7

  Dimensionality = 3               :  Bulk   


  Symmetry :

  Crystal family                   :  Cubic       
  Crystal class  (Groth - 1921)    :  Cubic Hexakisoctahedral              

  Space group (centrosymmetric)    :  P M 3 M         

  Patterson group                  :  P m -3 m 

  Cartesian lattice vectors (Angstroms) :

        4.504000    0.000000    0.000000
        0.000000    4.504000    0.000000
        0.000000    0.000000    4.504000

  Cell parameters (Angstroms/Degrees):

  a =       4.5040    alpha =  90.0000
  b =       4.5040    beta  =  90.0000
  c =       4.5040    gamma =  90.0000

  Initial cell volume =          91.368216 Angs**3

  Temperature of configuration =   0.00     K 

  Pressure of configuration =         0.000 GPa 

  Fractional coordinates of asymmetric unit :

--------------------------------------------------------------------------------
   No.  Atomic       x           y          z         Charge      Occupancy
        Label      (Frac)      (Frac)     (Frac)        (e)         (Frac)  
--------------------------------------------------------------------------------
      1 Cl    c    0.000000    0.000000    0.000000     0.99600    1.000000    
      2 O     c    0.500000    0.500000    0.500000     1.44300    1.000000    
      3 Na    c    0.500000    0.500000    0.000000     1.00000    1.000000    
      4 Cl    s    0.000000    0.000000    0.000000    -1.99600    1.000000    
      5 O     s    0.500000    0.500000    0.500000    -3.44300    1.000000    
--------------------------------------------------------------------------------


  Constraints : 

--------------------------------------------------------------------------------
  Constraint no.      Unconstrained     Constrained    Coefficient    Offset
                         Variable         Variable
--------------------------------------------------------------------------------
           1              Strain 1        Strain 2       1.00000      0.0000
           2              Strain 1        Strain 3       1.00000      0.0000
--------------------------------------------------------------------------------


********************************************************************************
*  General input information                                                   *
********************************************************************************

  Species output for all configurations : 

--------------------------------------------------------------------------------
  Species    Type    Atomic    Atomic    Charge       Radii (Angs)     Library
                     Number     Mass       (e)     Cova   Ionic  VDW   Symbol
--------------------------------------------------------------------------------
    Na       Core       11      22.99   1.000000   0.970  0.000  2.300          
    O        Core        8      16.00   1.443000   0.730  0.000  1.360          
    O        Shell       8       0.00  -3.443000   0.730  0.000  1.360          
    Cl       Core       17      35.45   0.996000   0.990  0.000  1.650          
    Cl       Shell      17       0.00  -1.996000   0.990  0.000  1.650          
--------------------------------------------------------------------------------


  Lattice summation method               =    Ewald          (3-D)
                                         =    Parry          (2-D)
                                         =    Saunders et al (1-D)
  Accuracy factor for lattice sums       =   12.000


  Analytic derivatives to be used

  Time limit = Infinity

  Maximum range for interatomic potentials =    100000.000000 Angstroms

  General interatomic potentials :

--------------------------------------------------------------------------------
Atom  Types   Potential      Parameter       Value         Units   Cutoffs(Ang)
  1     2                                                            Min /  Max 
--------------------------------------------------------------------------------
O    c O    s Spring (c-s)  Spring k 2       20.486200    eV*Ang^-2 0.000  0.800
                            Spring k 4       0.0000000    eV*Ang^-4 
--------------------------------------------------------------------------------
Cl   c Cl   s Spring (c-s)  Spring k 2       10.001500    eV*Ang^-2 0.000  0.800
                            Spring k 4       0.0000000    eV*Ang^-4 
--------------------------------------------------------------------------------
Na   c Na   c Buckingham    Buckingham A     29281.710    eV        0.000 12.000
                            Buckingham rho  0.37200000E-01Ang       
                            Buckingham C     0.0000000    eV*Ang^6  
--------------------------------------------------------------------------------
Na   c O    s Buckingham    Buckingham A     602.40000    eV        0.000 12.000
                            Buckingham rho  0.34280000    Ang       
                            Buckingham C     0.0000000    eV*Ang^6  
--------------------------------------------------------------------------------
Na   c Cl   s Buckingham    Buckingham A     3515.6900    eV        0.000 12.000
                            Buckingham rho  0.27460000    Ang       
                            Buckingham C     0.0000000    eV*Ang^6  
--------------------------------------------------------------------------------
O    s O    s Buckingham    Buckingham A     25201.690    eV        0.000 12.000
                            Buckingham rho  0.16450000    Ang       
                            Buckingham C     13.190000    eV*Ang^6  
--------------------------------------------------------------------------------
O    s Cl   s Buckingham    Buckingham A     1105.8600    eV        0.000 12.000
                            Buckingham rho  0.31330000    Ang       
                            Buckingham C     62.200000    eV*Ang^6  
--------------------------------------------------------------------------------
Cl   s Cl   s Buckingham    Buckingham A     31408.750    eV        0.000 12.000
                            Buckingham rho  0.13660000    Ang       
                            Buckingham C     14.530000    eV*Ang^6  
--------------------------------------------------------------------------------

********************************************************************************
*  Output for configuration   1                                                *
********************************************************************************


  Components of energy : 

--------------------------------------------------------------------------------
  Interatomic potentials     =           5.33200327 eV    
  Monopole - monopole (real) =         -10.03624526 eV    
  Monopole - monopole (recip)=         -29.53581274 eV    
  Monopole - monopole (total)=         -39.57205800 eV    
--------------------------------------------------------------------------------
  Total lattice energy       =         -34.24005473 eV    
--------------------------------------------------------------------------------
  Total lattice energy       =           -3303.6419 kJ/(mole unit cells)
--------------------------------------------------------------------------------


  Number of variables =        1

  Maximum number of calculations  =          1000
  Maximum Hessian update interval =            10
  Maximum step size               =   1.000000000
  Maximum parameter tolerance     =   0.000010000
  Maximum function  tolerance     =   0.000010000
  Maximum gradient  tolerance     =   0.001000000
  Maximum gradient  component     =   0.010000000

  Symmetry constrained optimisation

  Symmetry used for second derivatives

  Cell parameters to be optimised using strains

  Newton-Raphson optimiser to be used

  BFGS hessian update to be used

  Lower half triangular hessian to be used

  Start of bulk optimisation :

  Cycle:      0 Energy:       -34.240055  Gnorm:      2.245244  CPU:    0.016
  ** Hessian calculated **
  Cycle:      1 Energy:       -34.252747  Gnorm:      0.013309  CPU:    0.021


  **** Optimisation achieved ****


  Final energy =     -34.25274716 eV
  Final Gnorm  =       0.00056121

  Components of energy : 

--------------------------------------------------------------------------------
  Interatomic potentials     =           5.76377683 eV    
  Monopole - monopole (real) =         -10.14897050 eV    
  Monopole - monopole (recip)=         -29.86755349 eV    
  Monopole - monopole (total)=         -40.01652399 eV    
--------------------------------------------------------------------------------
  Total lattice energy       =         -34.25274716 eV    
--------------------------------------------------------------------------------
  Total lattice energy       =           -3304.8665 kJ/(mole unit cells)
--------------------------------------------------------------------------------

  Final asymmetric unit coordinates :

--------------------------------------------------------------------------------
   No.  Atomic        x           y           z         Radius
        Label       (Frac)      (Frac)      (Frac)       (Angs) 
--------------------------------------------------------------------------------
     1  Cl    c     0.000000    0.000000    0.000000    0.000000
     2  O     c     0.500000    0.500000    0.500000    0.000000
     3  Na    c     0.500000    0.500000    0.000000    0.000000
     4  Cl    s     0.000000    0.000000    0.000000    0.000000
     5  O     s     0.500000    0.500000    0.500000    0.000000
--------------------------------------------------------------------------------

  Final Cartesian lattice vectors (Angstroms) :

        4.453974    0.000000    0.000000
        0.000000    4.453974    0.000000
        0.000000    0.000000    4.453974


  Final cell parameters and derivatives :

--------------------------------------------------------------------------------
       a            4.453974 Angstrom     dE/de1(xx)     0.000561 eV/strain
       b            4.453974 Angstrom     dE/de2(yy)     0.000000 eV/strain
       c            4.453974 Angstrom     dE/de3(zz)     0.000000 eV/strain
       alpha       90.000000 Degrees      dE/de4(yz)     0.000000 eV/strain
       beta        90.000000 Degrees      dE/de5(xz)     0.000000 eV/strain
       gamma       90.000000 Degrees      dE/de6(xy)     0.000000 eV/strain
--------------------------------------------------------------------------------

  Primitive cell volume =            88.357409 Angs**3

  Density of cell =      2.263141 g/cm**3

  Non-primitive cell volume =            88.357409 Angs**3


  Final internal derivatives :

--------------------------------------------------------------------------------
   No.  Atomic          a             b             c           Radius
        Label          (eV)          (eV)          (eV)        (eV/Angs)
--------------------------------------------------------------------------------
      1 Cl    c       0.000000      0.000000      0.000000      0.000000
      2 O     c       0.000000      0.000000      0.000000      0.000000
      3 Na    c       0.000000      0.000000      0.000000      0.000000
      4 Cl    s       0.000000      0.000000      0.000000      0.000000
      5 O     s       0.000000      0.000000      0.000000      0.000000
--------------------------------------------------------------------------------
  Maximum abs         0.000000      0.000000      0.000000      0.000000
--------------------------------------------------------------------------------

  Comparison of initial and final structures : 

--------------------------------------------------------------------------------
  Parameter   Initial value   Final value   Difference    Units      Percent
--------------------------------------------------------------------------------
    Volume        91.368216     88.357409    -3.010807    Angs**3     -3.30
    a              4.504000      4.453974    -0.050026    Angstroms   -1.11
    b              4.504000      4.453974    -0.050026    Angstroms   -1.11
    c              4.504000      4.453974    -0.050026    Angstroms   -1.11
    alpha         90.000000     90.000000     0.000000    Degrees      0.00
    beta          90.000000     90.000000     0.000000    Degrees      0.00
    gamma         90.000000     90.000000     0.000000    Degrees      0.00
      1 x          0.000000      0.000000     0.000000    Fractional   0.00
      1 y          0.000000      0.000000     0.000000    Fractional   0.00
      1 z          0.000000      0.000000     0.000000    Fractional   0.00
      2 x          0.500000      0.500000     0.000000    Fractional   0.00
      2 y          0.500000      0.500000     0.000000    Fractional   0.00
      2 z          0.500000      0.500000     0.000000    Fractional   0.00
      3 x          0.500000      0.500000     0.000000    Fractional   0.00
      3 y          0.500000      0.500000     0.000000    Fractional   0.00
      3 z          0.000000      0.000000     0.000000    Fractional   0.00
      4 x          0.000000      0.000000     0.000000    Fractional   0.00
      4 y          0.000000      0.000000     0.000000    Fractional   0.00
      4 z          0.000000      0.000000     0.000000    Fractional   0.00
      5 x          0.500000      0.500000     0.000000    Fractional   0.00
      5 y          0.500000      0.500000     0.000000    Fractional   0.00
      5 z          0.500000      0.500000     0.000000    Fractional   0.00
--------------------------------------------------------------------------------


  Born effective charge tensors : 

-------------------------------------------------------------------------------
  Atom             x           y             z
-------------------------------------------------------------------------------
    1 Cl    x      -1.4271      0.0000      0.0000
            y       0.0000     -1.4271      0.0000
            z       0.0000      0.0000     -1.4271
-------------------------------------------------------------------------------
    2 O     x      -1.6137     -0.0000     -0.0000
            y      -0.0000     -1.6137     -0.0000
            z      -0.0000     -0.0000     -1.6137
-------------------------------------------------------------------------------
    3 Na    x       0.8295     -0.0000     -0.0000
            y      -0.0000      0.8295      0.0000
            z      -0.0000      0.0000      1.3817
-------------------------------------------------------------------------------




  Elastic Constant Matrix: (Units=GPa)

-------------------------------------------------------------------------------
  Indices      1         2         3         4         5         6    
-------------------------------------------------------------------------------
       1     82.8226   21.5342   21.5342    0.0000   -0.0000   -0.0000
       2     21.5342   82.8226   21.5342   -0.0000    0.0000   -0.0000
       3     21.5342   21.5342   82.8226    0.0000    0.0000   -0.0000
       4      0.0000   -0.0000    0.0000   21.5346   -0.0000    0.0000
       5     -0.0000    0.0000    0.0000   -0.0000   21.5346    0.0000
       6     -0.0000   -0.0000   -0.0000    0.0000    0.0000   21.5346
-------------------------------------------------------------------------------


  Elastic Compliance Matrix: (Units=1/GPa)

-------------------------------------------------------------------------------
  Indices      1         2         3         4         5         6    
-------------------------------------------------------------------------------
       1    0.013525 -0.002791 -0.002791 -0.000000  0.000000  0.000000
       2   -0.002791  0.013525 -0.002791  0.000000 -0.000000  0.000000
       3   -0.002791 -0.002791  0.013525 -0.000000 -0.000000  0.000000
       4   -0.000000  0.000000 -0.000000  0.046437  0.000000 -0.000000
       5    0.000000 -0.000000 -0.000000  0.000000  0.046437 -0.000000
       6    0.000000  0.000000  0.000000 -0.000000 -0.000000  0.046437
-------------------------------------------------------------------------------

  Mechanical properties :

-------------------------------------------------------------------------------
  Convention :                    Reuss         Voigt         Hill
-------------------------------------------------------------------------------
  Bulk  Modulus (GPa)     =      41.96371      41.96371      41.96371
  Shear Modulus (GPa)     =      24.44079      25.17843      24.80961
-------------------------------------------------------------------------------
  Velocity S-wave (km/s)  =       3.28626       3.33548       3.31096
  Velocity P-wave (km/s)  =       5.73948       5.77721       5.75837
-------------------------------------------------------------------------------
  Compressibility (1/GPa) =    0.02383011
-------------------------------------------------------------------------------
  Stress axis :                     x             y             z
-------------------------------------------------------------------------------
  Youngs Moduli (GPa)     =      73.93539      73.93539      73.93539
-------------------------------------------------------------------------------
  Poissons Ratio (x)      =                     0.20635       0.20635
  Poissons Ratio (y)      =       0.20635                     0.20635
  Poissons Ratio (z)      =       0.20635       0.20635
-------------------------------------------------------------------------------


  Piezoelectric Strain Matrix: (Units=C/m**2)

-------------------------------------------------------------------------------
  Indices      1         2         3         4         5         6    
-------------------------------------------------------------------------------
       x     0.00000  -0.00000   0.00000   0.00000  -0.00000  -0.00000
       y    -0.00000  -0.00000  -0.00000  -0.00000   0.00000   0.00000
       z    -0.00000  -0.00000   0.00000   0.00000   0.00000   0.00000
-------------------------------------------------------------------------------


  Piezoelectric Stress Matrix: (Units=10**-11 C/N)

-------------------------------------------------------------------------------
  Indices      1         2         3         4         5         6    
-------------------------------------------------------------------------------
       x     0.00000  -0.00000  -0.00000   0.00000  -0.00000  -0.00000
       y    -0.00000   0.00000   0.00000  -0.00000   0.00000   0.00000
       z    -0.00000  -0.00000   0.00000   0.00000   0.00000   0.00000
-------------------------------------------------------------------------------


  Static dielectric constant tensor : 

-------------------------------------------------------------------------------
              x         y         z
-------------------------------------------------------------------------------
       x    28.60451  -0.00000  -0.00000
       y    -0.00000  28.60451  -0.00000
       z    -0.00000  -0.00000  28.60451
--------------------------------------------------------------------------------

  High frequency dielectric constant tensor : 

-------------------------------------------------------------------------------
              x         y         z
-------------------------------------------------------------------------------
       x     3.92296  -0.00000  -0.00000
       y    -0.00000   3.92296   0.00000
       z    -0.00000   0.00000   3.92296
-------------------------------------------------------------------------------

  Static refractive indices : 

-------------------------------------------------------------------------------
    1 =    5.34832      2 =    5.34832      3 =    5.34832
-------------------------------------------------------------------------------

  High frequency refractive indices : 

-------------------------------------------------------------------------------
    1 =    1.98065      2 =    1.98065      3 =    1.98065
-------------------------------------------------------------------------------


  Time to end of optimisation =       0.0318 seconds

********************************************************************************
*  Defect calculation for configuration   1 :                                  *
********************************************************************************

  Total number of defects =      3

  Total charge on defect  =  -1.00

  Defect centre is at   0.5000   0.2500   0.2500  Frac

  Region 1 radius =  12.0000      Number of ions =    575

  Number of symmetry inequivalent region 1 ions  =    331

  Region 2 radius =  16.0000      Number of ions =    818

  Number of symmetry inequivalent region 2a ions =    447

  Region 2a mode = 4 : screened electrostatics due to region 1 
                       neglect correction to region 1 forces from 2a
                       region 2a displacements based on defects only

  Region 2a ions will only interact with defects in region 1

  Vacancies:

--------------------------------------------------------------------------------
    Specification type     Symbol/Number         x          y          z
--------------------------------------------------------------------------------
    Fractional                               0.500000   0.500000   0.000000
    Fractional                               0.500000   0.000000   0.500000
--------------------------------------------------------------------------------

  Interstitials:

--------------------------------------------------------------------------------
    Specification type     Symbol/Number         x          y          z
--------------------------------------------------------------------------------
    Atom/Fractional         Na               0.500000   0.410000   0.090000
--------------------------------------------------------------------------------


  Symmetry reduced region 1 (Relative to defect centre) :

--------------------------------------------------------------------------------
   No.   Atomic       x            y             z       Radius  Multiplicity   
         Label      (Angs)       (Angs)        (Angs)    (Angs)     
--------------------------------------------------------------------------------
     1  Na    c      0.0000       0.7126      -0.7126    0.0000     1    Defect
     2  O     c      0.0000       1.1135 *     1.1135 *  0.0000     1          
     3  Cl    c      2.2270 *    -1.1135 *    -1.1135 *  0.0000     2          
     4  Na    c      2.2270 *     1.1135 *     1.1135 *  0.0000     2          
     5  O     c      0.0000       1.1135 *    -3.3405 *  0.0000     1          
     6  O     c      0.0000      -3.3405 *     1.1135 *  0.0000     1          
     7  Na    c      0.0000       1.1135 *     3.3405 *  0.0000     1          
     8  Na    c      0.0000      -3.3405 *    -1.1135 *  0.0000     1          
     9  Na    c      0.0000      -1.1135 *    -3.3405 *  0.0000     1          
    10  Na    c      0.0000       3.3405 *     1.1135 *  0.0000     1          
    11  Cl    c      2.2270 *    -1.1135 *     3.3405 *  0.0000     2          
    12  Cl    c      2.2270 *     3.3405 *    -1.1135 *  0.0000     2          
    13  Na    c      2.2270 *     1.1135 *    -3.3405 *  0.0000     2          
    14  Na    c      2.2270 *    -3.3405 *     1.1135 *  0.0000     2          
    15  O     c     -4.4540 *     1.1135 *     1.1135 *  0.0000     2          
    16  Na    c     -4.4540 *    -1.1135 *     1.1135 *  0.0000     2          
    17  O     c      0.0000      -3.3405 *    -3.3405 *  0.0000     1          
    18  Na    c      0.0000      -3.3405 *     3.3405 *  0.0000     1          
    19  Na    c     -4.4540 *     1.1135 *    -1.1135 *  0.0000     2          
    20  Na    c      0.0000       3.3405 *    -3.3405 *  0.0000     1          
    21  Cl    c      2.2270 *     3.3405 *     3.3405 *  0.0000     2          
    22  Na    c      2.2270 *    -3.3405 *    -3.3405 *  0.0000     2          
    23  O     c      0.0000       1.1135 *     5.5675 *  0.0000     1          
    24  O     c      0.0000       5.5675 *     1.1135 *  0.0000     1          
    25  O     c     -4.4540 *     1.1135 *    -3.3405 *  0.0000     2          
    26  O     c     -4.4540 *    -3.3405 *     1.1135 *  0.0000     2          
    27  Na    c      0.0000       1.1135 *    -5.5675 *  0.0000     1          
    28  Na    c      0.0000       5.5675 *    -1.1135 *  0.0000     1          
    29  Na    c     -4.4540 *     1.1135 *     3.3405 *  0.0000     2          
    30  Na    c     -4.4540 *    -3.3405 *    -1.1135 *  0.0000     2          
    31  Na    c      0.0000      -1.1135 *     5.5675 *  0.0000     1          
    32  Na    c      0.0000      -5.5675 *     1.1135 *  0.0000     1          
    33  Na    c     -4.4540 *    -1.1135 *    -3.3405 *  0.0000     2          
    34  Na    c     -4.4540 *     3.3405 *     1.1135 *  0.0000     2          
    35  Cl    c      2.2270 *    -1.1135 *    -5.5675 *  0.0000     2          
    36  Cl    c      2.2270 *    -5.5675 *    -1.1135 *  0.0000     2          
    37  Na    c      2.2270 *     1.1135 *     5.5675 *  0.0000     2          
    38  Na    c      2.2270 *     5.5675 *     1.1135 *  0.0000     2          
    39  O     c      0.0000       5.5675 *    -3.3405 *  0.0000     1          
    40  O     c      0.0000      -3.3405 *     5.5675 *  0.0000     1          
    41  O     c     -4.4540 *    -3.3405 *    -3.3405 *  0.0000     2          
    42  Na    c      0.0000       5.5675 *     3.3405 *  0.0000     1          
    43  Na    c      0.0000      -3.3405 *    -5.5675 *  0.0000     1          
    44  Na    c     -4.4540 *    -3.3405 *     3.3405 *  0.0000     2          
    45  Na    c      0.0000       3.3405 *     5.5675 *  0.0000     1          
    46  Na    c      0.0000      -5.5675 *    -3.3405 *  0.0000     1          
    47  Na    c     -4.4540 *     3.3405 *    -3.3405 *  0.0000     2          
    48  Cl    c      2.2270 *     3.3405 *    -5.5675 *  0.0000     2          
    49  Cl    c      2.2270 *    -5.5675 *     3.3405 *  0.0000     2          
    50  Na    c      2.2270 *     5.5675 *    -3.3405 *  0.0000     2          
    51  Na    c      2.2270 *    -3.3405 *     5.5675 *  0.0000     2          
    52  Cl    c      6.6810 *    -1.1135 *    -1.1135 *  0.0000     2          
    53  Na    c      6.6810 *     1.1135 *     1.1135 *  0.0000     2          
    54  O     c     -4.4540 *     5.5675 *     1.1135 *  0.0000     2          
    55  Na    c     -4.4540 *     5.5675 *    -1.1135 *  0.0000     2          
    56  Na    c     -4.4540 *    -5.5675 *     1.1135 *  0.0000     2          
    57  O     c      4.4540 *     1.1135 *     5.5675 *  0.0000     2          
    58  Na    c      4.4540 *     1.1135 *    -5.5675 *  0.0000     2          
    59  Na    c      4.4540 *    -1.1135 *     5.5675 *  0.0000     2          
    60  Cl    c      6.6810 *    -1.1135 *     3.3405 *  0.0000     2          
    61  Cl    c      6.6810 *     3.3405 *    -1.1135 *  0.0000     2          
    62  Na    c      6.6810 *     1.1135 *    -3.3405 *  0.0000     2          
    63  Na    c      6.6810 *    -3.3405 *     1.1135 *  0.0000     2          
    64  O     c      0.0000       5.5675 *     5.5675 *  0.0000     1          
    65  O     c     -4.4540 *     5.5675 *    -3.3405 *  0.0000     2          
    66  O     c     -4.4540 *    -3.3405 *     5.5675 *  0.0000     2          
    67  Na    c      0.0000       5.5675 *    -5.5675 *  0.0000     1          
    68  Na    c     -4.4540 *     5.5675 *     3.3405 *  0.0000     2          
    69  Na    c     -4.4540 *    -3.3405 *    -5.5675 *  0.0000     2          
    70  Na    c      0.0000      -5.5675 *     5.5675 *  0.0000     1          
    71  Na    c     -4.4540 *     3.3405 *     5.5675 *  0.0000     2          
    72  Na    c     -4.4540 *    -5.5675 *    -3.3405 *  0.0000     2          
    73  O     c      0.0000       1.1135 *    -7.7945 *  0.0000     1          
    74  O     c      0.0000      -7.7945 *     1.1135 *  0.0000     1          
    75  Na    c      0.0000       1.1135 *     7.7945 *  0.0000     1          
    76  Na    c      0.0000      -7.7945 *    -1.1135 *  0.0000     1          
    77  Na    c      0.0000      -1.1135 *    -7.7945 *  0.0000     1          
    78  Na    c      0.0000       7.7945 *     1.1135 *  0.0000     1          
    79  Cl    c      2.2270 *    -5.5675 *    -5.5675 *  0.0000     2          
    80  Na    c      2.2270 *     5.5675 *     5.5675 *  0.0000     2          
    81  Cl    c      2.2270 *    -1.1135 *     7.7945 *  0.0000     2          
    82  Cl    c      2.2270 *     7.7945 *    -1.1135 *  0.0000     2          
    83  Cl    c      6.6810 *     3.3405 *     3.3405 *  0.0000     2          
    84  Na    c      2.2270 *     1.1135 *    -7.7945 *  0.0000     2          
    85  Na    c      2.2270 *    -7.7945 *     1.1135 *  0.0000     2          
    86  Na    c      6.6810 *    -3.3405 *    -3.3405 *  0.0000     2          
    87  O     c      0.0000      -3.3405 *    -7.7945 *  0.0000     1          
    88  O     c      0.0000      -7.7945 *    -3.3405 *  0.0000     1          
    89  Na    c      0.0000      -3.3405 *     7.7945 *  0.0000     1          
    90  Na    c      0.0000      -7.7945 *     3.3405 *  0.0000     1          
    91  Na    c      0.0000       3.3405 *    -7.7945 *  0.0000     1          
    92  Na    c      0.0000       7.7945 *    -3.3405 *  0.0000     1          
    93  Cl    c      2.2270 *     3.3405 *     7.7945 *  0.0000     2          
    94  Cl    c      6.6810 *    -1.1135 *    -5.5675 *  0.0000     2          
    95  Cl    c      6.6810 *    -5.5675 *    -1.1135 *  0.0000     2          
    96  Na    c      2.2270 *    -3.3405 *    -7.7945 *  0.0000     2          
    97  Na    c      6.6810 *     1.1135 *     5.5675 *  0.0000     2          
    98  Na    c      6.6810 *     5.5675 *     1.1135 *  0.0000     2          
    99  Cl    c      2.2270 *     7.7945 *     3.3405 *  0.0000     2          
   100  Na    c      2.2270 *    -7.7945 *    -3.3405 *  0.0000     2          
   101  O     c      8.9079 *     1.1135 *     1.1135 *  0.0000     2          
   102  Na    c      8.9079 *     1.1135 *    -1.1135 *  0.0000     2          
   103  Na    c      8.9079 *    -1.1135 *     1.1135 *  0.0000     2          
   104  O     c      4.4540 *     5.5675 *     5.5675 *  0.0000     2          
   105  O     c      4.4540 *    -7.7945 *     1.1135 *  0.0000     2          
   106  O     c     -4.4540 *     1.1135 *    -7.7945 *  0.0000     2          
   107  Na    c      4.4540 *     5.5675 *    -5.5675 *  0.0000     2          
   108  Na    c      4.4540 *    -7.7945 *    -1.1135 *  0.0000     2          
   109  Na    c     -4.4540 *     1.1135 *     7.7945 *  0.0000     2          
   110  Na    c      4.4540 *     7.7945 *     1.1135 *  0.0000     2          
   111  Na    c      4.4540 *    -5.5675 *     5.5675 *  0.0000     2          
   112  Na    c     -4.4540 *    -1.1135 *    -7.7945 *  0.0000     2          
   113  Cl    c      6.6810 *     3.3405 *    -5.5675 *  0.0000     2          
   114  Cl    c      6.6810 *    -5.5675 *     3.3405 *  0.0000     2          
   115  Na    c      6.6810 *     5.5675 *    -3.3405 *  0.0000     2          
   116  Na    c      6.6810 *    -3.3405 *     5.5675 *  0.0000     2          
   117  O     c      8.9079 *     1.1135 *    -3.3405 *  0.0000     2          
   118  O     c      8.9079 *    -3.3405 *     1.1135 *  0.0000     2          
   119  Na    c      8.9079 *     1.1135 *     3.3405 *  0.0000     2          
   120  Na    c      8.9079 *    -3.3405 *    -1.1135 *  0.0000     2          
   121  Na    c      8.9079 *    -1.1135 *    -3.3405 *  0.0000     2          
   122  Na    c      8.9079 *     3.3405 *     1.1135 *  0.0000     2          
   123  O     c      0.0000       5.5675 *    -7.7945 *  0.0000     1          
   124  O     c      0.0000      -7.7945 *     5.5675 *  0.0000     1          
   125  O     c      4.4540 *    -3.3405 *    -7.7945 *  0.0000     2          
   126  O     c      4.4540 *    -7.7945 *    -3.3405 *  0.0000     2          
   127  Na    c      0.0000       5.5675 *     7.7945 *  0.0000     1          
   128  Na    c      0.0000      -7.7945 *    -5.5675 *  0.0000     1          
   129  Na    c      4.4540 *    -3.3405 *     7.7945 *  0.0000     2          
   130  Na    c      4.4540 *    -7.7945 *     3.3405 *  0.0000     2          
   131  Na    c      0.0000       7.7945 *     5.5675 *  0.0000     1          
   132  Na    c      0.0000      -5.5675 *    -7.7945 *  0.0000     1          
   133  Na    c      4.4540 *     3.3405 *    -7.7945 *  0.0000     2          
   134  Na    c      4.4540 *     7.7945 *    -3.3405 *  0.0000     2          
   135  Cl    c      2.2270 *    -5.5675 *     7.7945 *  0.0000     2          
   136  Na    c      2.2270 *     5.5675 *    -7.7945 *  0.0000     2          
   137  Cl    c      2.2270 *     7.7945 *    -5.5675 *  0.0000     2          
   138  Na    c      2.2270 *    -7.7945 *     5.5675 *  0.0000     2          
   139  O     c      0.0000       1.1135 *    10.0214 *  0.0000     1          
   140  O     c      0.0000      10.0214 *     1.1135 *  0.0000     1          
   141  Na    c      0.0000       1.1135 *   -10.0214 *  0.0000     1          
   142  Na    c      0.0000      10.0214 *    -1.1135 *  0.0000     1          
   143  Na    c      0.0000      -1.1135 *    10.0214 *  0.0000     1          
   144  Na    c      0.0000     -10.0214 *     1.1135 *  0.0000     1          
   145  O     c      8.9079 *    -3.3405 *    -3.3405 *  0.0000     2          
   146  Na    c      8.9079 *    -3.3405 *     3.3405 *  0.0000     2          
   147  Na    c      8.9079 *     3.3405 *    -3.3405 *  0.0000     2          
   148  Cl    c      2.2270 *    -1.1135 *   -10.0214 *  0.0000     2          
   149  Cl    c      2.2270 *   -10.0214 *    -1.1135 *  0.0000     2          
   150  Na    c      2.2270 *     1.1135 *    10.0214 *  0.0000     2          
   151  Na    c      2.2270 *    10.0214 *     1.1135 *  0.0000     2          
   152  Cl    c      6.6810 *    -5.5675 *    -5.5675 *  0.0000     2          
   153  Na    c      6.6810 *     5.5675 *     5.5675 *  0.0000     2          
   154  Cl    c      6.6810 *    -1.1135 *     7.7945 *  0.0000     2          
   155  Cl    c      6.6810 *     7.7945 *    -1.1135 *  0.0000     2          
   156  Na    c      6.6810 *     1.1135 *    -7.7945 *  0.0000     2          
   157  Na    c      6.6810 *    -7.7945 *     1.1135 *  0.0000     2          
   158  O     c      0.0000      10.0214 *    -3.3405 *  0.0000     1          
   159  O     c      0.0000      -3.3405 *    10.0214 *  0.0000     1          
   160  O     c      8.9079 *     5.5675 *     1.1135 *  0.0000     2          
   161  Na    c      0.0000      10.0214 *     3.3405 *  0.0000     1          
   162  Na    c      0.0000      -3.3405 *   -10.0214 *  0.0000     1          
   163  Na    c      8.9079 *     5.5675 *    -1.1135 *  0.0000     2          
   164  Na    c      0.0000       3.3405 *    10.0214 *  0.0000     1          
   165  Na    c      0.0000     -10.0214 *    -3.3405 *  0.0000     1          
   166  Na    c      8.9079 *    -5.5675 *     1.1135 *  0.0000     2          
   167  O     c      4.4540 *    -7.7945 *     5.5675 *  0.0000     2          
   168  O     c      8.9079 *     1.1135 *     5.5675 *  0.0000     2          
   169  O     c     -4.4540 *     5.5675 *    -7.7945 *  0.0000     2          
   170  Na    c      4.4540 *    -7.7945 *    -5.5675 *  0.0000     2          
   171  Na    c      8.9079 *     1.1135 *    -5.5675 *  0.0000     2          
   172  Na    c     -4.4540 *     5.5675 *     7.7945 *  0.0000     2          
   173  Na    c      4.4540 *     7.7945 *     5.5675 *  0.0000     2          
   174  Na    c      8.9079 *    -1.1135 *     5.5675 *  0.0000     2          
   175  Na    c     -4.4540 *    -5.5675 *    -7.7945 *  0.0000     2          
   176  Cl    c      2.2270 *     3.3405 *   -10.0214 *  0.0000     2          
   177  Na    c      2.2270 *    -3.3405 *    10.0214 *  0.0000     2          
   178  Cl    c      2.2270 *   -10.0214 *     3.3405 *  0.0000     2          
   179  Na    c      2.2270 *    10.0214 *    -3.3405 *  0.0000     2          
   180  Cl    c      6.6810 *     3.3405 *     7.7945 *  0.0000     2          
   181  Na    c      6.6810 *    -3.3405 *    -7.7945 *  0.0000     2          
   182  Cl    c      6.6810 *     7.7945 *     3.3405 *  0.0000     2          
   183  Na    c      6.6810 *    -7.7945 *    -3.3405 *  0.0000     2          
   184  O     c      4.4540 *    10.0214 *     1.1135 *  0.0000     2          
   185  O     c     -4.4540 *     1.1135 *    10.0214 *  0.0000     2          
   186  Na    c      4.4540 *    10.0214 *    -1.1135 *  0.0000     2          
   187  Na    c     -4.4540 *     1.1135 *   -10.0214 *  0.0000     2          
   188  Na    c      4.4540 *   -10.0214 *     1.1135 *  0.0000     2          
   189  Na    c     -4.4540 *    -1.1135 *    10.0214 *  0.0000     2          
   190  O     c      8.9079 *     5.5675 *    -3.3405 *  0.0000     2          
   191  Na    c      8.9079 *     5.5675 *     3.3405 *  0.0000     2          
   192  Na    c      8.9079 *    -5.5675 *    -3.3405 *  0.0000     2          
   193  O     c      0.0000      -7.7945 *    -7.7945 *  0.0000     1          
   194  O     c      8.9079 *    -3.3405 *     5.5675 *  0.0000     2          
   195  Na    c      0.0000      -7.7945 *     7.7945 *  0.0000     1          
   196  Na    c      8.9079 *    -3.3405 *    -5.5675 *  0.0000     2          
   197  Na    c      0.0000       7.7945 *    -7.7945 *  0.0000     1          
   198  Na    c      8.9079 *     3.3405 *     5.5675 *  0.0000     2          
   199  Cl    c     11.1349 *    -1.1135 *    -1.1135 *  0.0000     2          
   200  Na    c     11.1349 *     1.1135 *     1.1135 *  0.0000     2          
   201  Cl    c      2.2270 *     7.7945 *     7.7945 *  0.0000     2          
   202  Na    c      2.2270 *    -7.7945 *    -7.7945 *  0.0000     2          
   203  O     c      0.0000       5.5675 *    10.0214 *  0.0000     1          
   204  O     c      0.0000      10.0214 *     5.5675 *  0.0000     1          
   205  O     c      4.4540 *    10.0214 *    -3.3405 *  0.0000     2          
   206  O     c      4.4540 *    -3.3405 *    10.0214 *  0.0000     2          
   207  Na    c      0.0000       5.5675 *   -10.0214 *  0.0000     1          
   208  Na    c      0.0000      10.0214 *    -5.5675 *  0.0000     1          
   209  Na    c      4.4540 *    10.0214 *     3.3405 *  0.0000     2          
   210  Na    c      4.4540 *    -3.3405 *   -10.0214 *  0.0000     2          
   211  Na    c      0.0000      -5.5675 *    10.0214 *  0.0000     1          
   212  Na    c      0.0000     -10.0214 *     5.5675 *  0.0000     1          
   213  Na    c      4.4540 *     3.3405 *    10.0214 *  0.0000     2          
   214  Na    c      4.4540 *   -10.0214 *    -3.3405 *  0.0000     2          
   215  Cl    c      2.2270 *    -5.5675 *   -10.0214 *  0.0000     2          
   216  Cl    c      2.2270 *   -10.0214 *    -5.5675 *  0.0000     2          
   217  Cl    c      6.6810 *    -5.5675 *     7.7945 *  0.0000     2          
   218  Cl    c     11.1349 *    -1.1135 *     3.3405 *  0.0000     2          
   219  Cl    c     11.1349 *     3.3405 *    -1.1135 *  0.0000     2          
   220  Na    c      2.2270 *     5.5675 *    10.0214 *  0.0000     2          
   221  Na    c      2.2270 *    10.0214 *     5.5675 *  0.0000     2          
   222  Na    c      6.6810 *     5.5675 *    -7.7945 *  0.0000     2          
   223  Na    c     11.1349 *     1.1135 *    -3.3405 *  0.0000     2          
   224  Na    c     11.1349 *    -3.3405 *     1.1135 *  0.0000     2          
   225  Cl    c      6.6810 *     7.7945 *    -5.5675 *  0.0000     2          
   226  Na    c      6.6810 *    -7.7945 *     5.5675 *  0.0000     2          
   227  O     c      8.9079 *     1.1135 *    -7.7945 *  0.0000     2          
   228  O     c      8.9079 *     5.5675 *     5.5675 *  0.0000     2          
   229  O     c      8.9079 *    -7.7945 *     1.1135 *  0.0000     2          
   230  Na    c      8.9079 *     1.1135 *     7.7945 *  0.0000     2          
   231  Na    c      8.9079 *     5.5675 *    -5.5675 *  0.0000     2          
   232  Na    c      8.9079 *    -7.7945 *    -1.1135 *  0.0000     2          
   233  Na    c      8.9079 *    -1.1135 *    -7.7945 *  0.0000     2          
   234  Na    c      8.9079 *     7.7945 *     1.1135 *  0.0000     2          
   235  Na    c      8.9079 *    -5.5675 *     5.5675 *  0.0000     2          
   236  O     c      4.4540 *    -7.7945 *    -7.7945 *  0.0000     2          
   237  Na    c      4.4540 *    -7.7945 *     7.7945 *  0.0000     2          
   238  Na    c      4.4540 *     7.7945 *    -7.7945 *  0.0000     2          
   239  O     s      0.0000       1.1135 *     1.1135 *  0.0000     1          
   240  Cl    s      2.2270 *    -1.1135 *    -1.1135 *  0.0000     2          
   241  O     s      0.0000       1.1135 *    -3.3405 *  0.0000     1          
   242  O     s      0.0000      -3.3405 *     1.1135 *  0.0000     1          
   243  Cl    s      2.2270 *    -1.1135 *     3.3405 *  0.0000     2          
   244  Cl    s      2.2270 *     3.3405 *    -1.1135 *  0.0000     2          
   245  O     s     -4.4540 *     1.1135 *     1.1135 *  0.0000     2          
   246  O     s      0.0000      -3.3405 *    -3.3405 *  0.0000     1          
   247  Cl    s      2.2270 *     3.3405 *     3.3405 *  0.0000     2          
   248  O     s      0.0000       1.1135 *     5.5675 *  0.0000     1          
   249  O     s      0.0000       5.5675 *     1.1135 *  0.0000     1          
   250  O     s     -4.4540 *     1.1135 *    -3.3405 *  0.0000     2          
   251  O     s     -4.4540 *    -3.3405 *     1.1135 *  0.0000     2          
   252  Cl    s      2.2270 *    -1.1135 *    -5.5675 *  0.0000     2          
   253  Cl    s      2.2270 *    -5.5675 *    -1.1135 *  0.0000     2          
   254  O     s      0.0000       5.5675 *    -3.3405 *  0.0000     1          
   255  O     s      0.0000      -3.3405 *     5.5675 *  0.0000     1          
   256  O     s     -4.4540 *    -3.3405 *    -3.3405 *  0.0000     2          
   257  Cl    s      2.2270 *     3.3405 *    -5.5675 *  0.0000     2          
   258  Cl    s      2.2270 *    -5.5675 *     3.3405 *  0.0000     2          
   259  Cl    s      6.6810 *    -1.1135 *    -1.1135 *  0.0000     2          
   260  O     s     -4.4540 *     5.5675 *     1.1135 *  0.0000     2          
   261  O     s      4.4540 *     1.1135 *     5.5675 *  0.0000     2          
   262  Cl    s      6.6810 *    -1.1135 *     3.3405 *  0.0000     2          
   263  Cl    s      6.6810 *     3.3405 *    -1.1135 *  0.0000     2          
   264  O     s      0.0000       5.5675 *     5.5675 *  0.0000     1          
   265  O     s     -4.4540 *     5.5675 *    -3.3405 *  0.0000     2          
   266  O     s     -4.4540 *    -3.3405 *     5.5675 *  0.0000     2          
   267  O     s      0.0000       1.1135 *    -7.7945 *  0.0000     1          
   268  O     s      0.0000      -7.7945 *     1.1135 *  0.0000     1          
   269  Cl    s      2.2270 *    -5.5675 *    -5.5675 *  0.0000     2          
   270  Cl    s      2.2270 *    -1.1135 *     7.7945 *  0.0000     2          
   271  Cl    s      2.2270 *     7.7945 *    -1.1135 *  0.0000     2          
   272  Cl    s      6.6810 *     3.3405 *     3.3405 *  0.0000     2          
   273  O     s      0.0000      -3.3405 *    -7.7945 *  0.0000     1          
   274  O     s      0.0000      -7.7945 *    -3.3405 *  0.0000     1          
   275  Cl    s      2.2270 *     3.3405 *     7.7945 *  0.0000     2          
   276  Cl    s      6.6810 *    -1.1135 *    -5.5675 *  0.0000     2          
   277  Cl    s      6.6810 *    -5.5675 *    -1.1135 *  0.0000     2          
   278  Cl    s      2.2270 *     7.7945 *     3.3405 *  0.0000     2          
   279  O     s      8.9079 *     1.1135 *     1.1135 *  0.0000     2          
   280  O     s      4.4540 *     5.5675 *     5.5675 *  0.0000     2          
   281  O     s      4.4540 *    -7.7945 *     1.1135 *  0.0000     2          
   282  O     s     -4.4540 *     1.1135 *    -7.7945 *  0.0000     2          
   283  Cl    s      6.6810 *     3.3405 *    -5.5675 *  0.0000     2          
   284  Cl    s      6.6810 *    -5.5675 *     3.3405 *  0.0000     2          
   285  O     s      8.9079 *     1.1135 *    -3.3405 *  0.0000     2          
   286  O     s      8.9079 *    -3.3405 *     1.1135 *  0.0000     2          
   287  O     s      0.0000       5.5675 *    -7.7945 *  0.0000     1          
   288  O     s      0.0000      -7.7945 *     5.5675 *  0.0000     1          
   289  O     s      4.4540 *    -3.3405 *    -7.7945 *  0.0000     2          
   290  O     s      4.4540 *    -7.7945 *    -3.3405 *  0.0000     2          
   291  Cl    s      2.2270 *    -5.5675 *     7.7945 *  0.0000     2          
   292  Cl    s      2.2270 *     7.7945 *    -5.5675 *  0.0000     2          
   293  O     s      0.0000       1.1135 *    10.0214 *  0.0000     1          
   294  O     s      0.0000      10.0214 *     1.1135 *  0.0000     1          
   295  O     s      8.9079 *    -3.3405 *    -3.3405 *  0.0000     2          
   296  Cl    s      2.2270 *    -1.1135 *   -10.0214 *  0.0000     2          
   297  Cl    s      2.2270 *   -10.0214 *    -1.1135 *  0.0000     2          
   298  Cl    s      6.6810 *    -5.5675 *    -5.5675 *  0.0000     2          
   299  Cl    s      6.6810 *    -1.1135 *     7.7945 *  0.0000     2          
   300  Cl    s      6.6810 *     7.7945 *    -1.1135 *  0.0000     2          
   301  O     s      0.0000      10.0214 *    -3.3405 *  0.0000     1          
   302  O     s      0.0000      -3.3405 *    10.0214 *  0.0000     1          
   303  O     s      8.9079 *     5.5675 *     1.1135 *  0.0000     2          
   304  O     s      4.4540 *    -7.7945 *     5.5675 *  0.0000     2          
   305  O     s      8.9079 *     1.1135 *     5.5675 *  0.0000     2          
   306  O     s     -4.4540 *     5.5675 *    -7.7945 *  0.0000     2          
   307  Cl    s      2.2270 *     3.3405 *   -10.0214 *  0.0000     2          
   308  Cl    s      2.2270 *   -10.0214 *     3.3405 *  0.0000     2          
   309  Cl    s      6.6810 *     3.3405 *     7.7945 *  0.0000     2          
   310  Cl    s      6.6810 *     7.7945 *     3.3405 *  0.0000     2          
   311  O     s      4.4540 *    10.0214 *     1.1135 *  0.0000     2          
   312  O     s     -4.4540 *     1.1135 *    10.0214 *  0.0000     2          
   313  O     s      8.9079 *     5.5675 *    -3.3405 *  0.0000     2          
   314  O     s      0.0000      -7.7945 *    -7.7945 *  0.0000     1          
   315  O     s      8.9079 *    -3.3405 *     5.5675 *  0.0000     2          
   316  Cl    s     11.1349 *    -1.1135 *    -1.1135 *  0.0000     2          
   317  Cl    s      2.2270 *     7.7945 *     7.7945 *  0.0000     2          
   318  O     s      0.0000       5.5675 *    10.0214 *  0.0000     1          
   319  O     s      0.0000      10.0214 *     5.5675 *  0.0000     1          
   320  O     s      4.4540 *    10.0214 *    -3.3405 *  0.0000     2          
   321  O     s      4.4540 *    -3.3405 *    10.0214 *  0.0000     2          
   322  Cl    s      2.2270 *    -5.5675 *   -10.0214 *  0.0000     2          
   323  Cl    s      2.2270 *   -10.0214 *    -5.5675 *  0.0000     2          
   324  Cl    s      6.6810 *    -5.5675 *     7.7945 *  0.0000     2          
   325  Cl    s     11.1349 *    -1.1135 *     3.3405 *  0.0000     2          
   326  Cl    s     11.1349 *     3.3405 *    -1.1135 *  0.0000     2          
   327  Cl    s      6.6810 *     7.7945 *    -5.5675 *  0.0000     2          
   328  O     s      8.9079 *     1.1135 *    -7.7945 *  0.0000     2          
   329  O     s      8.9079 *     5.5675 *     5.5675 *  0.0000     2          
   330  O     s      8.9079 *    -7.7945 *     1.1135 *  0.0000     2          
   331  O     s      4.4540 *    -7.7945 *    -7.7945 *  0.0000     2          
--------------------------------------------------------------------------------

  Components of defect energy : 

--------------------------------------------------------------------------------
  Region 1 - region 1                   =      8.33392796 eV
  Region 1 - region 2a (unrelaxed)      =     -0.01961148 eV
  Region 1 - 2a (relaxed - correction)  =     -0.30494851 eV
  Region 1 (Total)                      =      8.00936797 eV
  Region 2a                             =      0.15239089 eV
  Region 2b                             =     -0.43052633 eV
--------------------------------------------------------------------------------
  Total defect energy                   =      7.73123253 eV
--------------------------------------------------------------------------------

  Largest displacement in region 2 =   0.0209 Angstroms


  Number of variables =      904

  Maximum number of calculations  =        1000
  Maximum Hessian update interval =          10
  Maximum step size               =   1.0000000
  Maximum parameter tolerance     =   0.0000100
  Maximum function  tolerance     =   0.0000100
  Maximum gradient  tolerance     =   0.0010000

  Symmetry adapted optimisation

  Symmetry to be used for second derivatives

  Newton-Raphson optimiser to be used

  BFGS hessian update to be used

  Lower half triangular hessian to be used

  Start of defect optimisation :

  Cycle:      0 Defect Energy:   7.731233  Gnorm:     0.021138  CPU:    3.215
  ** Hessian calculated **
  Cycle:      1 Defect Energy:   5.471520  Gnorm:     0.006126  CPU:    8.496
  Cycle:      2 Defect Energy:   5.136335  Gnorm:     0.003248  CPU:   12.144
  Cycle:      3 Defect Energy:   5.041582  Gnorm:     0.002104  CPU:   13.126
  Cycle:      4 Defect Energy:   4.967686  Gnorm:     0.001671  CPU:   14.135
  Cycle:      5 Defect Energy:   4.880584  Gnorm:     0.001558  CPU:   15.194
  Cycle:      6 Defect Energy:   4.778204  Gnorm:     0.001655  CPU:   16.178
  Cycle:      7 Defect Energy:   4.692194  Gnorm:     0.001574  CPU:   17.116
  Cycle:      8 Defect Energy:   4.620977  Gnorm:     0.001292  CPU:   18.077
  Cycle:      9 Defect Energy:   4.567143  Gnorm:     0.001147  CPU:   19.141
  Cycle:     10 Defect Energy:   4.519604  Gnorm:     0.001022  CPU:   20.058
  ** Hessian calculated **
  Cycle:     11 Defect Energy:   4.503097  Gnorm:     0.000943  CPU:   22.510
  Cycle:     12 Defect Energy:   4.481615  Gnorm:     0.000831  CPU:   23.441
  Cycle:     13 Defect Energy:   4.453808  Gnorm:     0.000815  CPU:   24.445
  Cycle:     14 Defect Energy:   4.417059  Gnorm:     0.000716  CPU:   25.325
  Cycle:     15 Defect Energy:   4.371499  Gnorm:     0.000800  CPU:   26.163
  Cycle:     16 Defect Energy:   4.318924  Gnorm:     0.000831  CPU:   27.058
  Cycle:     17 Defect Energy:   4.292157  Gnorm:     0.000754  CPU:   27.948
  Cycle:     18 Defect Energy:   4.276121  Gnorm:     0.000822  CPU:   28.929
  Cycle:     19 Defect Energy:   4.263431  Gnorm:     0.000688  CPU:   30.058
  Cycle:     20 Defect Energy:   4.250192  Gnorm:     0.000705  CPU:   34.534
  ** Hessian calculated **
  Cycle:     21 Defect Energy:   4.231396  Gnorm:     0.000597  CPU:   37.551
  Cycle:     22 Defect Energy:   4.209165  Gnorm:     0.000414  CPU:   38.688
  Cycle:     23 Defect Energy:   4.200257  Gnorm:     0.000284  CPU:   39.884
  Cycle:     24 Defect Energy:   4.197342  Gnorm:     0.000211  CPU:   40.929
  ** Hessian calculated **
  Cycle:     25 Defect Energy:   4.197011  Gnorm:     0.000171  CPU:   43.703
  Cycle:     26 Defect Energy:   4.196551  Gnorm:     0.000148  CPU:   44.855
  Cycle:     27 Defect Energy:   4.195941  Gnorm:     0.000140  CPU:   45.822
  Cycle:     28 Defect Energy:   4.195321  Gnorm:     0.000127  CPU:   46.374
  Cycle:     29 Defect Energy:   4.194964  Gnorm:     0.000092  CPU:   47.158
  Cycle:     30 Defect Energy:   4.194695  Gnorm:     0.000095  CPU:   48.141
  Cycle:     31 Defect Energy:   4.194570  Gnorm:     0.000083  CPU:   49.140
  Cycle:     32 Defect Energy:   4.194382  Gnorm:     0.000078  CPU:   50.222
  Cycle:     33 Defect Energy:   4.194193  Gnorm:     0.000081  CPU:   51.174
  Cycle:     34 Defect Energy:   4.193910  Gnorm:     0.000092  CPU:   52.096
  ** Hessian calculated **
  Cycle:     35 Defect Energy:   4.193802  Gnorm:     0.000076  CPU:   54.209
  Cycle:     36 Defect Energy:   4.193610  Gnorm:     0.000069  CPU:   55.166
  Cycle:     37 Defect Energy:   4.193390  Gnorm:     0.000066  CPU:   56.073
  Cycle:     38 Defect Energy:   4.193052  Gnorm:     0.000062  CPU:   56.985
  Cycle:     39 Defect Energy:   4.192689  Gnorm:     0.000057  CPU:   57.863
  Cycle:     40 Defect Energy:   4.192203  Gnorm:     0.000071  CPU:   58.787
  Cycle:     41 Defect Energy:   4.191756  Gnorm:     0.000097  CPU:   59.684
  Cycle:     42 Defect Energy:   4.191162  Gnorm:     0.000125  CPU:   60.671
  Cycle:     43 Defect Energy:   4.190501  Gnorm:     0.000160  CPU:   61.556
  Cycle:     44 Defect Energy:   4.189340  Gnorm:     0.000214  CPU:   62.423
  ** Hessian calculated **
  Cycle:     45 Defect Energy:   4.188638  Gnorm:     0.000194  CPU:   64.892
  Cycle:     46 Defect Energy:   4.187672  Gnorm:     0.000174  CPU:   65.874
  Cycle:     47 Defect Energy:   4.186350  Gnorm:     0.000156  CPU:   70.359
  Cycle:     48 Defect Energy:   4.184645  Gnorm:     0.000148  CPU:   71.834
  Cycle:     49 Defect Energy:   4.182523  Gnorm:     0.000104  CPU:   72.888
  Cycle:     50 Defect Energy:   4.180057  Gnorm:     0.000149  CPU:   73.984
  Cycle:     51 Defect Energy:   4.177395  Gnorm:     0.000251  CPU:   75.074
  Cycle:     52 Defect Energy:   4.174438  Gnorm:     0.000286  CPU:   76.265
  Cycle:     53 Defect Energy:   4.170172  Gnorm:     0.000419  CPU:   77.317
  Cycle:     54 Defect Energy:   4.164825  Gnorm:     0.000540  CPU:   78.355
  ** Hessian calculated **
  Cycle:     55 Defect Energy:   4.160023  Gnorm:     0.000492  CPU:   81.207
  Cycle:     56 Defect Energy:   4.153675  Gnorm:     0.000434  CPU:   82.203
  Cycle:     57 Defect Energy:   4.145245  Gnorm:     0.000382  CPU:   83.180
  Cycle:     58 Defect Energy:   4.135176  Gnorm:     0.000367  CPU:   84.215
  Cycle:     59 Defect Energy:   4.124671  Gnorm:     0.000321  CPU:   85.259
  Cycle:     60 Defect Energy:   4.120028  Gnorm:     0.000312  CPU:   86.351
  Cycle:     61 Defect Energy:   4.115510  Gnorm:     0.000246  CPU:   87.397
  Cycle:     62 Defect Energy:   4.112289  Gnorm:     0.000255  CPU:   88.446
  Cycle:     63 Defect Energy:   4.107590  Gnorm:     0.000311  CPU:   89.427
  Cycle:     64 Defect Energy:   4.100972  Gnorm:     0.000395  CPU:   90.509
  ** Hessian calculated **
  Cycle:     65 Defect Energy:   4.099072  Gnorm:     0.000317  CPU:   92.950
  Cycle:     66 Defect Energy:   4.096557  Gnorm:     0.000289  CPU:   93.871
  Cycle:     67 Defect Energy:   4.093173  Gnorm:     0.000275  CPU:   94.861
  Cycle:     68 Defect Energy:   4.089052  Gnorm:     0.000231  CPU:   95.955
  Cycle:     69 Defect Energy:   4.085101  Gnorm:     0.000213  CPU:   96.928
  Cycle:     70 Defect Energy:   4.082525  Gnorm:     0.000242  CPU:   97.807
  Cycle:     71 Defect Energy:   4.080469  Gnorm:     0.000200  CPU:   98.758
  Cycle:     72 Defect Energy:   4.078987  Gnorm:     0.000215  CPU:   99.675
  Cycle:     73 Defect Energy:   4.076654  Gnorm:     0.000252  CPU:  100.698
  Cycle:     74 Defect Energy:   4.074231  Gnorm:     0.000249  CPU:  101.312
  ** Hessian calculated **
  Cycle:     75 Defect Energy:   4.070597  Gnorm:     0.000225  CPU:  107.453
  Cycle:     76 Defect Energy:   4.065973  Gnorm:     0.000182  CPU:  108.575
  Cycle:     77 Defect Energy:   4.063809  Gnorm:     0.000138  CPU:  109.692
  ** Hessian calculated **
  Cycle:     78 Defect Energy:   4.062092  Gnorm:     0.000099  CPU:  112.757
  Cycle:     79 Defect Energy:   4.061216  Gnorm:     0.000072  CPU:  113.805
  Cycle:     80 Defect Energy:   4.060729  Gnorm:     0.000053  CPU:  114.817
  Cycle:     81 Defect Energy:   4.060414  Gnorm:     0.000039  CPU:  115.896
  Cycle:     82 Defect Energy:   4.060200  Gnorm:     0.000030  CPU:  116.936
  Cycle:     83 Defect Energy:   4.060003  Gnorm:     0.000021  CPU:  117.932
  Cycle:     84 Defect Energy:   4.059864  Gnorm:     0.000018  CPU:  118.898
  Cycle:     85 Defect Energy:   4.059807  Gnorm:     0.000013  CPU:  119.846
  Cycle:     86 Defect Energy:   4.059753  Gnorm:     0.000014  CPU:  120.809
  Cycle:     87 Defect Energy:   4.059708  Gnorm:     0.000008  CPU:  121.934
  ** Hessian calculated **
  Cycle:     88 Defect Energy:   4.059686  Gnorm:     0.000006  CPU:  124.456
  Cycle:     89 Defect Energy:   4.059671  Gnorm:     0.000004  CPU:  125.397
  Cycle:     90 Defect Energy:   4.059661  Gnorm:     0.000003  CPU:  126.463


  **** Optimisation achieved ****


  Final defect energy  =        4.05965386
  Final defect Gnorm   =        0.00000205

  Components of defect energy : 

--------------------------------------------------------------------------------
  Region 1 - region 1                   =      5.90938572 eV
  Region 1 - region 2a (unrelaxed)      =     -1.30891006 eV
  Region 1 - 2a (relaxed - correction)  =     -0.22250794 eV
  Region 1 (Total)                      =      4.37796772 eV
  Region 2a                             =      0.11110170 eV
  Region 2b                             =     -0.42941557 eV
--------------------------------------------------------------------------------
  Total defect energy                   =      4.05965386 eV
--------------------------------------------------------------------------------

  Largest displacement in region 2 =   0.0209 Angstroms

  Final coordinates of region 1 :

--------------------------------------------------------------------------------
   No.  Atomic        x           y           z          Radius      Charge
        Label       (Angs)      (Angs)      (Angs)       (Angs)       (e) 
--------------------------------------------------------------------------------
     1  Na    c     2.226987    1.826129    0.400858    0.000000    1.000000
     2  O     c     2.226987    2.275733    2.471610    0.000000    1.443000
     3  Cl    c     4.529414    0.015549   -0.073558    0.000000    0.996000
     4  Cl    c    -0.075440    0.015549   -0.073558    0.000000    0.996000
     5  Na    c     4.397538    1.897995    2.446462    0.000000    1.000000
     6  Na    c     0.056436    1.897995    2.446462    0.000000    1.000000
     7  O     c     2.226987    2.197414   -2.063120    0.000000    1.443000
     8  O     c     2.226987   -2.173540    2.240016    0.000000    1.443000
     9  Na    c     2.226987    1.605427    4.516565    0.000000    1.000000
    10  Na    c     2.226987   -1.805201    0.080271    0.000000    1.000000
    11  Na    c     2.226987    0.015053   -2.522923    0.000000    1.000000
    12  Na    c     2.226987    4.438030    2.444475    0.000000    1.000000
    13  Cl    c     4.583367   -0.018567    4.628466    0.000000    0.996000
    14  Cl    c    -0.129393   -0.018567    4.628466    0.000000    0.996000
    15  Cl    c     4.516680    4.551753    0.003591    0.000000    0.996000
    16  Cl    c    -0.062706    4.551753    0.003591    0.000000    0.996000
    17  Na    c     4.436751    2.160177   -2.253518    0.000000    1.000000
    18  Na    c     0.017222    2.160177   -2.253518    0.000000    1.000000
    19  Na    c     4.368567   -1.743995    2.288780    0.000000    1.000000
    20  Na    c     0.085407   -1.743995    2.288780    0.000000    1.000000
    21  O     c    -2.196613    2.207895    2.247146    0.000000    1.443000
    22  O     c     6.650586    2.207895    2.247146    0.000000    1.443000
    23  Na    c    -2.603671    0.001109    2.181287    0.000000    1.000000
    24  Na    c     7.057645    0.001109    2.181287    0.000000    1.000000
    25  O     c     2.226987   -2.213454   -2.175608    0.000000    1.443000
    26  Na    c     2.226987   -1.944923    4.415066    0.000000    1.000000
    27  Na    c    -2.022805    2.127878    0.026510    0.000000    1.000000
    28  Na    c     6.476778    2.127878    0.026510    0.000000    1.000000
    29  Na    c     2.226987    4.397441   -1.775453    0.000000    1.000000
    30  Cl    c     4.575559    4.517018    4.542365    0.000000    0.996000
    31  Cl    c    -0.121585    4.517018    4.542365    0.000000    0.996000
    32  Na    c     4.451470   -2.144452   -2.327939    0.000000    1.000000
    33  Na    c     0.002504   -2.144452   -2.327939    0.000000    1.000000
    34  O     c     2.226987    2.217785    6.693369    0.000000    1.443000
    35  O     c     2.226987    6.692783    2.265517    0.000000    1.443000
    36  O     c    -2.231421    2.237146   -2.206415    0.000000    1.443000
    37  O     c     6.685395    2.237146   -2.206415    0.000000    1.443000
    38  O     c    -2.172803   -2.198739    2.236045    0.000000    1.443000
    39  O     c     6.626777   -2.198739    2.236045    0.000000    1.443000
    40  Na    c     2.226987    2.588497   -4.331289    0.000000    1.000000
    41  Na    c     2.226987    6.782420    0.029007    0.000000    1.000000
    42  Na    c    -2.337531    2.105075    4.475291    0.000000    1.000000
    43  Na    c     6.791505    2.105075    4.475291    0.000000    1.000000
    44  Na    c    -2.031082   -2.171014    0.010598    0.000000    1.000000
    45  Na    c     6.485055   -2.171014    0.010598    0.000000    1.000000
    46  Na    c     2.226987    0.005278    7.155603    0.000000    1.000000
    47  Na    c     2.226987   -4.357268    2.158661    0.000000    1.000000
    48  Na    c    -2.317068    0.006576   -2.356885    0.000000    1.000000
    49  Na    c     6.771042    0.006576   -2.356885    0.000000    1.000000
    50  Na    c    -1.890006    4.433456    2.249994    0.000000    1.000000
    51  Na    c     6.343980    4.433456    2.249994    0.000000    1.000000
    52  Cl    c     4.472466    0.005797   -4.429915    0.000000    0.996000
    53  Cl    c    -0.018493    0.005797   -4.429915    0.000000    0.996000
    54  Cl    c     4.523900   -4.542085   -0.039786    0.000000    0.996000
    55  Cl    c    -0.069926   -4.542085   -0.039786    0.000000    0.996000
    56  Na    c     4.460524    2.330250    6.633282    0.000000    1.000000
    57  Na    c    -0.006551    2.330250    6.633282    0.000000    1.000000
    58  Na    c     4.450863    6.851047    2.180410    0.000000    1.000000
    59  Na    c     0.003111    6.851047    2.180410    0.000000    1.000000
    60  O     c     2.226987    6.625538   -2.209565    0.000000    1.443000
    61  O     c     2.226987   -2.195460    6.673340    0.000000    1.443000
    62  O     c    -2.236291   -2.227211   -2.220833    0.000000    1.443000
    63  O     c     6.690265   -2.227211   -2.220833    0.000000    1.443000
    64  Na    c     2.226987    7.038839    4.470413    0.000000    1.000000
    65  Na    c     2.226987   -2.606664   -4.399011    0.000000    1.000000
    66  Na    c    -2.269696   -2.072191    4.465265    0.000000    1.000000
    67  Na    c     6.723670   -2.072191    4.465265    0.000000    1.000000
    68  Na    c     2.226987    4.415955    6.173629    0.000000    1.000000
    69  Na    c     2.226987   -4.424731   -1.797196    0.000000    1.000000
    70  Na    c    -2.134275    4.458338   -2.009129    0.000000    1.000000
    71  Na    c     6.588249    4.458338   -2.009129    0.000000    1.000000
    72  Cl    c     4.494048    4.447634   -4.453056    0.000000    0.996000
    73  Cl    c    -0.040074    4.447634   -4.453056    0.000000    0.996000
    74  Cl    c     4.495621   -4.514122    4.567320    0.000000    0.996000
    75  Cl    c    -0.041647   -4.514122    4.567320    0.000000    0.996000
    76  Na    c     4.453099    6.678410   -2.150878    0.000000    1.000000
    77  Na    c     0.000875    6.678410   -2.150878    0.000000    1.000000
    78  Na    c     4.453355   -2.301477    6.642391    0.000000    1.000000
    79  Na    c     0.000618   -2.301477    6.642391    0.000000    1.000000
    80  Cl    c     8.929340   -0.005649   -0.014734    0.000000    0.996000
    81  Cl    c    -4.475366   -0.005649   -0.014734    0.000000    0.996000
    82  Na    c     8.875755    2.540356    2.110409    0.000000    1.000000
    83  Na    c    -4.421782    2.540356    2.110409    0.000000    1.000000
    84  O     c    -2.229968    6.663369    2.236185    0.000000    1.443000
    85  O     c     6.683942    6.663369    2.236185    0.000000    1.443000
    86  Na    c    -2.260906    6.762876    0.011267    0.000000    1.000000
    87  Na    c     6.714880    6.762876    0.011267    0.000000    1.000000
    88  Na    c    -1.824613   -4.411779    2.296062    0.000000    1.000000
    89  Na    c     6.278586   -4.411779    2.296062    0.000000    1.000000
    90  O     c     6.694317    2.231629    6.707599    0.000000    1.443000
    91  O     c    -2.240343    2.231629    6.707599    0.000000    1.443000
    92  Na    c     6.807665    2.471174   -4.423942    0.000000    1.000000
    93  Na    c    -2.353691    2.471174   -4.423942    0.000000    1.000000
    94  Na    c     6.523725    0.002994    6.859017    0.000000    1.000000
    95  Na    c    -2.069751    0.002994    6.859017    0.000000    1.000000
    96  Cl    c     8.881415   -0.002700    4.541510    0.000000    0.996000
    97  Cl    c    -4.427441   -0.002700    4.541510    0.000000    0.996000
    98  Cl    c     8.939818    4.501920   -0.008436    0.000000    0.996000
    99  Cl    c    -4.485844    4.501920   -0.008436    0.000000    0.996000
   100  Na    c     8.902641    2.310225   -2.006125    0.000000    1.000000
   101  Na    c    -4.448667    2.310225   -2.006125    0.000000    1.000000
   102  Na    c     8.854638   -2.554043    2.134257    0.000000    1.000000
   103  Na    c    -4.400664   -2.554043    2.134257    0.000000    1.000000
   104  O     c     2.226987    6.633182    6.672865    0.000000    1.443000
   105  O     c    -2.235441    6.679725   -2.229765    0.000000    1.443000
   106  O     c     6.689415    6.679725   -2.229765    0.000000    1.443000
   107  O     c    -2.235710   -2.226749    6.699880    0.000000    1.443000
   108  O     c     6.689683   -2.226749    6.699880    0.000000    1.443000
   109  Na    c     2.226987    6.364148   -4.423597    0.000000    1.000000
   110  Na    c    -2.118643    6.708806    4.458801    0.000000    1.000000
   111  Na    c     6.572617    6.708806    4.458801    0.000000    1.000000
   112  Na    c    -2.398283   -2.413079   -4.439167    0.000000    1.000000
   113  Na    c     6.852256   -2.413079   -4.439167    0.000000    1.000000
   114  Na    c     2.226987   -4.430817    6.427926    0.000000    1.000000
   115  Na    c    -2.375171    4.453765    6.535977    0.000000    1.000000
   116  Na    c     6.829145    4.453765    6.535977    0.000000    1.000000
   117  Na    c    -2.103361   -4.453497   -2.129096    0.000000    1.000000
   118  Na    c     6.557335   -4.453497   -2.129096    0.000000    1.000000
   119  O     c     2.226987    2.225483   -6.605664    0.000000    1.443000
   120  O     c     2.226987   -6.653330    2.213184    0.000000    1.443000
   121  Na    c     2.226987    2.606029    8.893355    0.000000    1.000000
   122  Na    c     2.226987   -6.918131    0.001133    0.000000    1.000000
   123  Na    c     2.226987    0.006238   -6.302290    0.000000    1.000000
   124  Na    c     2.226987    8.933841    2.108170    0.000000    1.000000
   125  Cl    c     4.493748   -4.454232   -4.477716    0.000000    0.996000
   126  Cl    c    -0.039774   -4.454232   -4.477716    0.000000    0.996000
   127  Na    c     4.459435    6.538309    6.714811    0.000000    1.000000
   128  Na    c    -0.005461    6.538309    6.714811    0.000000    1.000000
   129  Cl    c     4.481998   -0.010745    8.985064    0.000000    0.996000
   130  Cl    c    -0.028025   -0.010745    8.985064    0.000000    0.996000
   131  Cl    c     4.435655    8.911624    0.002308    0.000000    0.996000
   132  Cl    c     0.018318    8.911624    0.002308    0.000000    0.996000
   133  Cl    c     8.917670    4.471820    4.469452    0.000000    0.996000
   134  Cl    c    -4.463696    4.471820    4.469452    0.000000    0.996000
   135  Na    c     4.452389    2.301302   -6.535810    0.000000    1.000000
   136  Na    c     0.001585    2.301302   -6.535810    0.000000    1.000000
   137  Na    c     4.441627   -6.834564    2.109299    0.000000    1.000000
   138  Na    c     0.012347   -6.834564    2.109299    0.000000    1.000000
   139  Na    c     8.907068   -2.315838   -2.026734    0.000000    1.000000
   140  Na    c    -4.453094   -2.315838   -2.026734    0.000000    1.000000
   141  O     c     2.226987   -2.214684   -6.633681    0.000000    1.443000
   142  O     c     2.226987   -6.649878   -2.221115    0.000000    1.443000
   143  Na    c     2.226987   -2.536270    8.894961    0.000000    1.000000
   144  Na    c     2.226987   -6.722094    4.436601    0.000000    1.000000
   145  Na    c     2.226987    4.435796   -6.950019    0.000000    1.000000
   146  Na    c     2.226987    8.870065   -2.345841    0.000000    1.000000
   147  Cl    c     4.485494    4.481331    8.961039    0.000000    0.996000
   148  Cl    c    -0.031520    4.481331    8.961039    0.000000    0.996000
   149  Cl    c     8.904542   -0.010717   -4.498998    0.000000    0.996000
   150  Cl    c    -4.450569   -0.010717   -4.498998    0.000000    0.996000
   151  Cl    c     8.957981   -4.504816   -0.016449    0.000000    0.996000
   152  Cl    c    -4.504007   -4.504816   -0.016449    0.000000    0.996000
   153  Na    c     4.455490   -2.281235   -6.541493    0.000000    1.000000
   154  Na    c    -0.001516   -2.281235   -6.541493    0.000000    1.000000
   155  Na    c     8.911975    2.048969    6.756499    0.000000    1.000000
   156  Na    c    -4.458001    2.048969    6.756499    0.000000    1.000000
   157  Na    c     8.900408    6.455839    2.297531    0.000000    1.000000
   158  Na    c    -4.446434    6.455839    2.297531    0.000000    1.000000
   159  Cl    c     4.474515    8.947920    4.445216    0.000000    0.996000
   160  Cl    c    -0.020541    8.947920    4.445216    0.000000    0.996000
   161  Na    c     4.453924   -6.697712   -2.129394    0.000000    1.000000
   162  Na    c     0.000049   -6.697712   -2.129394    0.000000    1.000000
   163  O     c    11.104401    2.213736    2.225425    0.000000    1.443000
   164  O     c    -6.650427    2.213736    2.225425    0.000000    1.443000
   165  Na    c    11.204224    1.828618    0.017546    0.000000    1.000000
   166  Na    c    -6.750250    1.828618    0.017546    0.000000    1.000000
   167  Na    c    10.897854   -0.001544    2.573351    0.000000    1.000000
   168  Na    c    -6.443880   -0.001544    2.573351    0.000000    1.000000
   169  O     c     6.692672    6.686809    6.687888    0.000000    1.443000
   170  O     c    -2.238698    6.686809    6.687888    0.000000    1.443000
   171  O     c     6.665892   -6.640748    2.233965    0.000000    1.443000
   172  O     c    -2.211918   -6.640748    2.233965    0.000000    1.443000
   173  O     c    -2.225427    2.221628   -6.656698    0.000000    1.443000
   174  O     c     6.679400    2.221628   -6.656698    0.000000    1.443000
   175  Na    c     6.647631    6.501642   -4.450416    0.000000    1.000000
   176  Na    c    -2.193657    6.501642   -4.450416    0.000000    1.000000
   177  Na    c     6.780213   -6.642610    0.007682    0.000000    1.000000
   178  Na    c    -2.326239   -6.642610    0.007682    0.000000    1.000000
   179  Na    c    -2.216283    2.398771    8.917472    0.000000    1.000000
   180  Na    c     6.670257    2.398771    8.917472    0.000000    1.000000
   181  Na    c     6.818182    8.893444    2.278036    0.000000    1.000000
   182  Na    c    -2.364208    8.893444    2.278036    0.000000    1.000000
   183  Na    c     6.746423   -4.450665    6.530236    0.000000    1.000000
   184  Na    c    -2.292449   -4.450665    6.530236    0.000000    1.000000
   185  Na    c    -2.180507    0.005998   -6.440438    0.000000    1.000000
   186  Na    c     6.634481    0.005998   -6.440438    0.000000    1.000000
   187  Cl    c     8.932109    4.495570   -4.477868    0.000000    0.996000
   188  Cl    c    -4.478135    4.495570   -4.477868    0.000000    0.996000
   189  Cl    c     8.917842   -4.474309    4.479930    0.000000    0.996000
   190  Cl    c    -4.463868   -4.474309    4.479930    0.000000    0.996000
   191  Na    c     8.912045    6.606527   -2.260281    0.000000    1.000000
   192  Na    c    -4.458071    6.606527   -2.260281    0.000000    1.000000
   193  Na    c     8.906687   -2.098447    6.734092    0.000000    1.000000
   194  Na    c    -4.452714   -2.098447    6.734092    0.000000    1.000000
   195  O     c    11.126619    2.213032   -2.196935    0.000000    1.443000
   196  O     c    -6.672645    2.213032   -2.196935    0.000000    1.443000
   197  O     c    11.090228   -2.215036    2.234255    0.000000    1.443000
   198  O     c    -6.636254   -2.215036    2.234255    0.000000    1.443000
   199  Na    c    11.070391    2.565140    4.443207    0.000000    1.000000
   200  Na    c    -6.616417    2.565140    4.443207    0.000000    1.000000
   201  Na    c    11.189429   -1.923520    0.018079    0.000000    1.000000
   202  Na    c    -6.735455   -1.923520    0.018079    0.000000    1.000000
   203  Na    c    11.049998   -0.001942   -2.556543    0.000000    1.000000
   204  Na    c    -6.596025   -0.001942   -2.556543    0.000000    1.000000
   205  Na    c    11.301811    4.429317    1.884073    0.000000    1.000000
   206  Na    c    -6.847837    4.429317    1.884073    0.000000    1.000000
   207  O     c     2.226987    6.655506   -6.654345    0.000000    1.443000
   208  O     c     2.226987   -6.661777    6.675251    0.000000    1.443000
   209  O     c     6.678769   -2.214663   -6.667431    0.000000    1.443000
   210  O     c    -2.224795   -2.214663   -6.667431    0.000000    1.443000
   211  O     c     6.686253   -6.677523   -2.234368    0.000000    1.443000
   212  O     c    -2.232279   -6.677523   -2.234368    0.000000    1.443000
   213  Na    c     2.226987    6.402177    8.893758    0.000000    1.000000
   214  Na    c     2.226987   -6.449676   -4.438373    0.000000    1.000000
   215  Na    c     6.646814   -2.371113    8.910941    0.000000    1.000000
   216  Na    c    -2.192840   -2.371113    8.910941    0.000000    1.000000
   217  Na    c     6.530341   -6.726571    4.452125    0.000000    1.000000
   218  Na    c    -2.076367   -6.726571    4.452125    0.000000    1.000000
   219  Na    c     2.226987    8.866823    6.927082    0.000000    1.000000
   220  Na    c     2.226987   -4.437336   -6.915368    0.000000    1.000000
   221  Na    c     6.742630    4.443260   -6.841134    0.000000    1.000000
   222  Na    c    -2.288657    4.443260   -6.841134    0.000000    1.000000
   223  Na    c     6.730438    8.895641   -2.350707    0.000000    1.000000
   224  Na    c    -2.276464    8.895641   -2.350707    0.000000    1.000000
   225  Cl    c     4.466234   -4.474050    8.948908    0.000000    0.996000
   226  Cl    c    -0.012260   -4.474050    8.948908    0.000000    0.996000
   227  Na    c     4.453193    6.627052   -6.689252    0.000000    1.000000
   228  Na    c     0.000781    6.627052   -6.689252    0.000000    1.000000
   229  Cl    c     4.461460    8.941500   -4.452888    0.000000    0.996000
   230  Cl    c    -0.007486    8.941500   -4.452888    0.000000    0.996000
   231  Na    c     4.452295   -6.605981    6.726156    0.000000    1.000000
   232  Na    c     0.001679   -6.605981    6.726156    0.000000    1.000000
   233  O     c     2.226987    2.239083   11.117862    0.000000    1.443000
   234  O     c     2.226987   11.145841    2.225401    0.000000    1.443000
   235  Na    c     2.226987    2.040180   -8.864821    0.000000    1.000000
   236  Na    c     2.226987   11.141929   -0.009827    0.000000    1.000000
   237  Na    c     2.226987    0.002699   10.985362    0.000000    1.000000
   238  Na    c     2.226987   -8.911617    2.298694    0.000000    1.000000
   239  O     c    11.131541   -2.213251   -2.209498    0.000000    1.443000
   240  O     c    -6.677568   -2.213251   -2.209498    0.000000    1.443000
   241  Na    c    11.068883   -2.531409    4.447528    0.000000    1.000000
   242  Na    c    -6.614909   -2.531409    4.447528    0.000000    1.000000
   243  Na    c    11.199559    4.443840   -1.937206    0.000000    1.000000
   244  Na    c    -6.745585    4.443840   -1.937206    0.000000    1.000000
   245  Cl    c     4.449568   -0.002022   -8.988641    0.000000    0.996000
   246  Cl    c     0.004406   -0.002022   -8.988641    0.000000    0.996000
   247  Cl    c     4.462082   -8.927659   -0.002798    0.000000    0.996000
   248  Cl    c    -0.008108   -8.927659   -0.002798    0.000000    0.996000
   249  Na    c     4.450370    2.187410   11.123822    0.000000    1.000000
   250  Na    c     0.003604    2.187410   11.123822    0.000000    1.000000
   251  Na    c     4.459979   11.092563    2.242608    0.000000    1.000000
   252  Na    c    -0.006005   11.092563    2.242608    0.000000    1.000000
[...]
    251 y         -2.226987     -2.188133     0.038854    Cartesian   -1.74
    251 z          2.226987      2.230899     0.003912    Cartesian    0.18
    252 x          4.453974      4.457908     0.003934    Cartesian    0.09
    252 y          0.000000      0.002321     0.002321    Cartesian    0.00
    252 z         -4.453974     -4.430968     0.023006    Cartesian   -0.52
    253 x          4.453974      4.549331     0.095357    Cartesian    2.14
    253 y         -4.453974     -4.563516    -0.109542    Cartesian    2.46
    253 z          0.000000     -0.065337    -0.065337    Cartesian    0.00
    254 x          2.226987      2.226987     0.000000    Cartesian    0.00
    254 y          6.680961      6.635509    -0.045452    Cartesian   -0.68
    254 z         -2.226987     -2.190912     0.036075    Cartesian   -1.62
    255 x          2.226987      2.226987     0.000000    Cartesian    0.00
    255 y         -2.226987     -2.219677     0.007310    Cartesian   -0.33
    255 z          6.680961      6.691614     0.010654    Cartesian    0.16
    256 x         -2.226987     -2.236620    -0.009633    Cartesian    0.43
    256 y         -2.226987     -2.239521    -0.012534    Cartesian    0.56
    256 z         -2.226987     -2.221132     0.005855    Cartesian   -0.26
    257 x          4.453974      4.489309     0.035335    Cartesian    0.79
    257 y          4.453974      4.440913    -0.013061    Cartesian   -0.29
    257 z         -4.453974     -4.464182    -0.010209    Cartesian    0.23
    258 x          4.453974      4.519813     0.065839    Cartesian    1.48
    258 y         -4.453974     -4.534703    -0.080729    Cartesian    1.81
    258 z          4.453974      4.598259     0.144285    Cartesian    3.24
    259 x          8.907948      8.941017     0.033070    Cartesian    0.37
    259 y          0.000000     -0.001318    -0.001318    Cartesian    0.00
    259 z          0.000000     -0.008565    -0.008565    Cartesian    0.00
    260 x         -2.226987     -2.218829     0.008158    Cartesian   -0.37
    260 y          6.680961      6.680828    -0.000132    Cartesian   -0.00
    260 z          2.226987      2.240936     0.013949    Cartesian    0.63
    261 x          6.680961      6.701433     0.020472    Cartesian    0.31
    261 y          2.226987      2.232377     0.005390    Cartesian    0.24
    261 z          6.680961      6.713902     0.032941    Cartesian    0.49
    262 x          8.907948      8.883054    -0.024893    Cartesian   -0.28
    262 y          0.000000     -0.000527    -0.000527    Cartesian    0.00
    262 z          4.453974      4.531733     0.077759    Cartesian    1.75
    263 x          8.907948      8.958437     0.050490    Cartesian    0.57
    263 y          4.453974      4.491346     0.037373    Cartesian    0.84
    263 z          0.000000     -0.008079    -0.008079    Cartesian    0.00
    264 x          2.226987      2.226987     0.000000    Cartesian    0.00
    264 y          6.680961      6.643233    -0.037728    Cartesian   -0.56
    264 z          6.680961      6.669897    -0.011064    Cartesian   -0.17
    265 x         -2.226987     -2.236320    -0.009333    Cartesian    0.42
    265 y          6.680961      6.675190    -0.005771    Cartesian   -0.09
    265 z         -2.226987     -2.226430     0.000557    Cartesian   -0.03
    266 x         -2.226987     -2.235438    -0.008451    Cartesian    0.38
    266 y         -2.226987     -2.227673    -0.000687    Cartesian    0.03
    266 z          6.680961      6.707846     0.026885    Cartesian    0.40
    267 x          2.226987      2.226987     0.000000    Cartesian    0.00
    267 y          2.226987      2.243974     0.016987    Cartesian    0.76
    267 z         -6.680961     -6.613056     0.067905    Cartesian   -1.02
    268 x          2.226987      2.226987     0.000000    Cartesian    0.00
    268 y         -6.680961     -6.711404    -0.030443    Cartesian    0.46
    268 z          2.226987      2.204035    -0.022951    Cartesian   -1.03
    269 x          4.453974      4.487684     0.033711    Cartesian    0.76
    269 y         -4.453974     -4.441510     0.012464    Cartesian   -0.28
    269 z         -4.453974     -4.488091    -0.034117    Cartesian    0.77
    270 x          4.453974      4.481981     0.028007    Cartesian    0.63
    270 y          0.000000     -0.013809    -0.013809    Cartesian    0.00
    270 z          8.907948      8.987617     0.079670    Cartesian    0.89
    271 x          4.453974      4.422608    -0.031366    Cartesian   -0.70
    271 y          8.907948      8.899888    -0.008060    Cartesian   -0.09
    271 z          0.000000      0.016488     0.016488    Cartesian    0.00
    272 x          8.907948      8.933871     0.025924    Cartesian    0.29
    272 y          4.453974      4.470965     0.016991    Cartesian    0.38
    272 z          4.453974      4.468041     0.014067    Cartesian    0.32
    273 x          2.226987      2.226987     0.000000    Cartesian    0.00
    273 y         -2.226987     -2.238245    -0.011258    Cartesian    0.51
    273 z         -6.680961     -6.628042     0.052918    Cartesian   -0.79
    274 x          2.226987      2.226987     0.000000    Cartesian    0.00
    274 y         -6.680961     -6.668533     0.012428    Cartesian   -0.19
    274 z         -2.226987     -2.199020     0.027967    Cartesian   -1.26
    275 x          4.453974      4.474897     0.020923    Cartesian    0.47
    275 y          4.453974      4.484377     0.030403    Cartesian    0.68
    275 z          8.907948      8.970833     0.062885    Cartesian    0.71
    276 x          8.907948      8.909388     0.001441    Cartesian    0.02
    276 y          0.000000     -0.015810    -0.015810    Cartesian    0.00
    276 z         -4.453974     -4.503424    -0.049451    Cartesian    1.11
    277 x          8.907948      8.975340     0.067392    Cartesian    0.76
    277 y         -4.453974     -4.502327    -0.048353    Cartesian    1.09
    277 z          0.000000     -0.017764    -0.017764    Cartesian    0.00
    278 x          4.453974      4.470274     0.016300    Cartesian    0.37
    278 y          8.907948      8.944619     0.036672    Cartesian    0.41
    278 z          4.453974      4.435460    -0.018514    Cartesian   -0.42
    279 x         11.134934     11.114354    -0.020580    Cartesian   -0.18
    279 y          2.226987      2.225639    -0.001348    Cartesian   -0.06
    279 z          2.226987      2.222322    -0.004665    Cartesian   -0.21
    280 x          6.680961      6.699009     0.018049    Cartesian    0.27
    280 y          6.680961      6.689943     0.008982    Cartesian    0.13
    280 z          6.680961      6.684489     0.003529    Cartesian    0.05
    281 x          6.680961      6.650390    -0.030570    Cartesian   -0.46
    281 y         -6.680961     -6.657917     0.023043    Cartesian   -0.34
    281 z          2.226987      2.238096     0.011109    Cartesian    0.50
    282 x         -2.226987     -2.229917    -0.002930    Cartesian    0.13
    282 y          2.226987      2.229862     0.002875    Cartesian    0.13
    282 z         -6.680961     -6.658568     0.022392    Cartesian   -0.34
    283 x          8.907948      8.933607     0.025659    Cartesian    0.29
    283 y          4.453974      4.492681     0.038707    Cartesian    0.87
    283 z         -4.453974     -4.486980    -0.033006    Cartesian    0.74
    284 x          8.907948      8.934539     0.026591    Cartesian    0.30
    284 y         -4.453974     -4.472520    -0.018546    Cartesian    0.42
    284 z          4.453974      4.479407     0.025433    Cartesian    0.57
    285 x         11.134934     11.129888    -0.005046    Cartesian   -0.05
    285 y          2.226987      2.210218    -0.016769    Cartesian   -0.75
    285 z         -2.226987     -2.198679     0.028308    Cartesian   -1.27
    286 x         11.134934     11.102125    -0.032809    Cartesian   -0.29
    286 y         -2.226987     -2.230906    -0.003919    Cartesian    0.18
    286 z          2.226987      2.238893     0.011906    Cartesian    0.53
    287 x          2.226987      2.226987     0.000000    Cartesian    0.00
    287 y          6.680961      6.643223    -0.037738    Cartesian   -0.56
    287 z         -6.680961     -6.673732     0.007228    Cartesian   -0.11
    288 x          2.226987      2.226987     0.000000    Cartesian    0.00
    288 y         -6.680961     -6.661617     0.019343    Cartesian   -0.29
    288 z          6.680961      6.673410    -0.007551    Cartesian   -0.11
    289 x          6.680961      6.683918     0.002957    Cartesian    0.04
    289 y         -2.226987     -2.220612     0.006375    Cartesian   -0.29
    289 z         -6.680961     -6.664923     0.016038    Cartesian   -0.24
    290 x          6.680961      6.686250     0.005289    Cartesian    0.08
    290 y         -6.680961     -6.672561     0.008399    Cartesian   -0.13
    290 z         -2.226987     -2.236135    -0.009148    Cartesian    0.41
    291 x          4.453974      4.462078     0.008104    Cartesian    0.18
    291 y         -4.453974     -4.467667    -0.013693    Cartesian    0.31
    291 z          8.907948      8.957499     0.049552    Cartesian    0.56
    292 x          4.453974      4.462265     0.008291    Cartesian    0.19
    292 y          8.907948      8.960043     0.052095    Cartesian    0.58
    292 z         -4.453974     -4.452194     0.001780    Cartesian   -0.04
    293 x          2.226987      2.226987     0.000000    Cartesian    0.00
    293 y          2.226987      2.258995     0.032009    Cartesian    1.44
    293 z         11.134934     11.129360    -0.005575    Cartesian   -0.05
    294 x          2.226987      2.226987     0.000000    Cartesian    0.00
    294 y         11.134934     11.131538    -0.003397    Cartesian   -0.03
    294 z          2.226987      2.219835    -0.007152    Cartesian   -0.32
    295 x         11.134934     11.129848    -0.005087    Cartesian   -0.05
    295 y         -2.226987     -2.215910     0.011077    Cartesian   -0.50
    295 z         -2.226987     -2.212477     0.014510    Cartesian   -0.65
    296 x          4.453974      4.448835    -0.005139    Cartesian   -0.12
    296 y          0.000000     -0.001781    -0.001781    Cartesian    0.00
    296 z         -8.907948     -9.019867    -0.111919    Cartesian    1.26
    297 x          4.453974      4.453833    -0.000141    Cartesian   -0.00
    297 y         -8.907948     -8.912534    -0.004586    Cartesian    0.05
    297 z          0.000000      0.005153     0.005153    Cartesian    0.00
    298 x          8.907948      8.929407     0.021460    Cartesian    0.24
    298 y         -4.453974     -4.478142    -0.024169    Cartesian    0.54
    298 z         -4.453974     -4.498174    -0.044200    Cartesian    0.99
    299 x          8.907948      8.947527     0.039579    Cartesian    0.44
    299 y          0.000000      0.013153     0.013153    Cartesian    0.00
    299 z          8.907948      8.943829     0.035881    Cartesian    0.40
    300 x          8.907948      8.924312     0.016364    Cartesian    0.18
    300 y          8.907948      8.930970     0.023023    Cartesian    0.26
    300 z          0.000000     -0.002855    -0.002855    Cartesian    0.00
    301 x          2.226987      2.226987     0.000000    Cartesian    0.00
    301 y         11.134934     11.128951    -0.005983    Cartesian   -0.05
    301 z         -2.226987     -2.240810    -0.013824    Cartesian    0.62
    302 x          2.226987      2.226987     0.000000    Cartesian    0.00
    302 y         -2.226987     -2.251192    -0.024205    Cartesian    1.09
    302 z         11.134934     11.126546    -0.008388    Cartesian   -0.08
    303 x         11.134934     11.142985     0.008051    Cartesian    0.07
    303 y          6.680961      6.642150    -0.038811    Cartesian   -0.58
    303 z          2.226987      2.219967    -0.007020    Cartesian   -0.32
    304 x          6.680961      6.688182     0.007222    Cartesian    0.11
    304 y         -6.680961     -6.690280    -0.009320    Cartesian    0.14
    304 z          6.680961      6.678290    -0.002671    Cartesian   -0.04
    305 x         11.134934     11.135607     0.000672    Cartesian    0.01
    305 y          2.226987      2.222637    -0.004350    Cartesian   -0.20
    305 z          6.680961      6.674218    -0.006743    Cartesian   -0.10
    306 x         -2.226987     -2.226547     0.000440    Cartesian   -0.02
    306 y          6.680961      6.661224    -0.019737    Cartesian   -0.30
    306 z         -6.680961     -6.684794    -0.003834    Cartesian    0.06
    307 x          4.453974      4.478586     0.024612    Cartesian    0.55
    307 y          4.453974      4.472276     0.018302    Cartesian    0.41
    307 z         -8.907948     -8.897460     0.010488    Cartesian   -0.12
    308 x          4.453974      4.447055    -0.006918    Cartesian   -0.16
    308 y         -8.907948     -8.943857    -0.035910    Cartesian    0.40
    308 z          4.453974      4.430964    -0.023010    Cartesian   -0.52
    309 x          8.907948      8.928575     0.020628    Cartesian    0.23
    309 y          4.453974      4.474308     0.020334    Cartesian    0.46
    309 z          8.907948      8.936699     0.028751    Cartesian    0.32
    310 x          8.907948      8.931825     0.023877    Cartesian    0.27
    310 y          8.907948      8.959996     0.052048    Cartesian    0.58
    310 z          4.453974      4.449683    -0.004291    Cartesian   -0.10
    311 x          6.680961      6.695910     0.014950    Cartesian    0.22
    311 y         11.134934     11.124271    -0.010664    Cartesian   -0.10
    311 z          2.226987      2.227779     0.000792    Cartesian    0.04
    312 x         -2.226987     -2.228305    -0.001318    Cartesian    0.06
    312 y          2.226987      2.242871     0.015884    Cartesian    0.71
    312 z         11.134934     11.139228     0.004293    Cartesian    0.04
    313 x         11.134934     11.141541     0.006607    Cartesian    0.06
    313 y          6.680961      6.683990     0.003029    Cartesian    0.05
    313 z         -2.226987     -2.198177     0.028810    Cartesian   -1.29
    314 x          2.226987      2.226987     0.000000    Cartesian    0.00
    314 y         -6.680961     -6.650916     0.030045    Cartesian   -0.45
    314 z         -6.680961     -6.694263    -0.013302    Cartesian    0.20
    315 x         11.134934     11.137928     0.002993    Cartesian    0.03
    315 y         -2.226987     -2.235792    -0.008805    Cartesian    0.40
    315 z          6.680961      6.668066    -0.012895    Cartesian   -0.19
    316 x         13.361921     13.428177     0.066256    Cartesian    0.50
    316 y          0.000000     -0.017368    -0.017368    Cartesian    0.00
    316 z          0.000000      0.026554     0.026554    Cartesian    0.00
    317 x          4.453974      4.454384     0.000410    Cartesian    0.01
    317 y          8.907948      8.953932     0.045984    Cartesian    0.52
    317 z          8.907948      8.921297     0.013349    Cartesian    0.15
    318 x          2.226987      2.226987     0.000000    Cartesian    0.00
    318 y          6.680961      6.664478    -0.016483    Cartesian   -0.25
    318 z         11.134934     11.138934     0.003999    Cartesian    0.04
    319 x          2.226987      2.226987     0.000000    Cartesian    0.00
    319 y         11.134934     11.117032    -0.017902    Cartesian   -0.16
    319 z          6.680961      6.696746     0.015785    Cartesian    0.24
    320 x          6.680961      6.685746     0.004785    Cartesian    0.07
    320 y         11.134934     11.128483    -0.006452    Cartesian   -0.06
    320 z         -2.226987     -2.235925    -0.008938    Cartesian    0.40
    321 x          6.680961      6.687517     0.006556    Cartesian    0.10
    321 y         -2.226987     -2.240600    -0.013613    Cartesian    0.61
    321 z         11.134934     11.132486    -0.002449    Cartesian   -0.02
    322 x          4.453974      4.454301     0.000327    Cartesian    0.01
    322 y         -4.453974     -4.488132    -0.034158    Cartesian    0.77
    322 z         -8.907948     -8.911546    -0.003599    Cartesian    0.04
    323 x          4.453974      4.458384     0.004410    Cartesian    0.10
    323 y         -8.907948     -8.955422    -0.047475    Cartesian    0.53
    323 z         -4.453974     -4.458306    -0.004332    Cartesian    0.10
    324 x          8.907948      8.954296     0.046349    Cartesian    0.52
    324 y         -4.453974     -4.463045    -0.009071    Cartesian    0.20
    324 z          8.907948      8.945488     0.037541    Cartesian    0.42
    325 x         13.361921     13.432088     0.070167    Cartesian    0.53
    325 y          0.000000     -0.000293    -0.000293    Cartesian    0.00
    325 z          4.453974      4.449651    -0.004323    Cartesian   -0.10
    326 x         13.361921     13.419291     0.057370    Cartesian    0.43
    326 y          4.453974      4.466081     0.012108    Cartesian    0.27
    326 z          0.000000     -0.019319    -0.019319    Cartesian    0.00
    327 x          8.907948      8.916836     0.008888    Cartesian    0.10
    327 y          8.907948      8.936876     0.028928    Cartesian    0.32
    327 z         -4.453974     -4.464342    -0.010368    Cartesian    0.23
    328 x         11.134934     11.137075     0.002140    Cartesian    0.02
    328 y          2.226987      2.241539     0.014552    Cartesian    0.65
    328 z         -6.680961     -6.665831     0.015130    Cartesian   -0.23
    329 x         11.134934     11.136523     0.001589    Cartesian    0.01
    329 y          6.680961      6.670439    -0.010521    Cartesian   -0.16
    329 z          6.680961      6.693216     0.012255    Cartesian    0.18
    330 x         11.134934     11.137980     0.003045    Cartesian    0.03
    330 y         -6.680961     -6.674516     0.006444    Cartesian   -0.10
    330 z          2.226987      2.221008    -0.005979    Cartesian   -0.27
    331 x          6.680961      6.682438     0.001477    Cartesian    0.02
    331 y         -6.680961     -6.676415     0.004545    Cartesian   -0.07
    331 z         -6.680961     -6.696269    -0.015308    Cartesian    0.23
--------------------------------------------------------------------------------


  Time to end of optimisation  =      127.4339 seconds


  Peak dynamic memory used =     101.61 MB 


  Timing analysis for GULP :

--------------------------------------------------------------------------------
  Task / Subroutine                                          Time (Seconds)
--------------------------------------------------------------------------------
  Calculation of reciprocal space energy and derivatives          0.0007
  Calculation of reciprocal space energy using symmetry           0.0011
  Calculation of real space energy and derivatives                0.0044
  Calculation of real space energy using symmetry                 0.0105
  Calculation for region 1 energy and derivatives (2-b)          74.3943
  Calculation for region 2a energy                               46.9386
  Calculation for region 2b energy                                0.0220
  Calculation and manipulation of Hessian matrix                  0.2426
  Calculation of matrix inversion                                 5.2524
  Symmetry generation of equivalent positions                     0.0053
--------------------------------------------------------------------------------
  Total CPU time                                                127.4340
--------------------------------------------------------------------------------


  Dump file written as Na3OCl.grs


  Job Finished at 17:31.01  1st March      2021                               

