********************************************************************************
*                       GENERAL UTILITY LATTICE PROGRAM                        *
*                                 Julian Gale                                  *
*                       Curtin Institute for Computation                       *
*                    School of Molecular and Life Sciences                     *
*                    Curtin University, Western Australia                      *
********************************************************************************
* Version = 5.2.0 * Last modified =  10th September 2020                       *
********************************************************************************
*  optimise     - perform optimisation run                                     *
*  conp         - constant pressure calculation                                *
*  property     - calculate properties for final geometry                      *
*  defect       - perform defect calculation after bulk run                    *
*  compare      - compare initial and final structures                         *
********************************************************************************

  Job Started  at 17:30.26  1st March      2021                               

  Number of CPUs =     1


  Total number of configurations input =      1

********************************************************************************
*  Input for Configuration =   1                                               *
********************************************************************************

  Formula = ClONa3                                                      

  Number of irreducible atoms/shells =       5


  Total number atoms/shells =       7

  Dimensionality = 3               :  Bulk   


  Symmetry :

  Crystal family                   :  Cubic       
  Crystal class  (Groth - 1921)    :  Cubic Hexakisoctahedral              

  Space group (centrosymmetric)    :  P M 3 M         

  Patterson group                  :  P m -3 m 

  Cartesian lattice vectors (Angstroms) :

        4.504000    0.000000    0.000000
        0.000000    4.504000    0.000000
        0.000000    0.000000    4.504000

  Cell parameters (Angstroms/Degrees):

  a =       4.5040    alpha =  90.0000
  b =       4.5040    beta  =  90.0000
  c =       4.5040    gamma =  90.0000

  Initial cell volume =          91.368216 Angs**3

  Temperature of configuration =   0.00     K 

  Pressure of configuration =         0.000 GPa 

  Fractional coordinates of asymmetric unit :

--------------------------------------------------------------------------------
   No.  Atomic       x           y          z         Charge      Occupancy
        Label      (Frac)      (Frac)     (Frac)        (e)         (Frac)  
--------------------------------------------------------------------------------
      1 Cl    c    0.000000    0.000000    0.000000     0.99600    1.000000    
      2 O     c    0.500000    0.500000    0.500000     1.44300    1.000000    
      3 Na    c    0.500000    0.500000    0.000000     1.00000    1.000000    
      4 Cl    s    0.000000    0.000000    0.000000    -1.99600    1.000000    
      5 O     s    0.500000    0.500000    0.500000    -3.44300    1.000000    
--------------------------------------------------------------------------------


  Constraints : 

--------------------------------------------------------------------------------
  Constraint no.      Unconstrained     Constrained    Coefficient    Offset
                         Variable         Variable
--------------------------------------------------------------------------------
           1              Strain 1        Strain 2       1.00000      0.0000
           2              Strain 1        Strain 3       1.00000      0.0000
--------------------------------------------------------------------------------


********************************************************************************
*  General input information                                                   *
********************************************************************************

  Species output for all configurations : 

--------------------------------------------------------------------------------
  Species    Type    Atomic    Atomic    Charge       Radii (Angs)     Library
                     Number     Mass       (e)     Cova   Ionic  VDW   Symbol
--------------------------------------------------------------------------------
    Na       Core       11      22.99   1.000000   0.970  0.000  2.300          
    O        Core        8      16.00   1.443000   0.730  0.000  1.360          
    O        Shell       8       0.00  -3.443000   0.730  0.000  1.360          
    Cl       Core       17      35.45   0.996000   0.990  0.000  1.650          
    Cl       Shell      17       0.00  -1.996000   0.990  0.000  1.650          
--------------------------------------------------------------------------------


  Lattice summation method               =    Ewald          (3-D)
                                         =    Parry          (2-D)
                                         =    Saunders et al (1-D)
  Accuracy factor for lattice sums       =   12.000


  Analytic derivatives to be used

  Time limit = Infinity

  Maximum range for interatomic potentials =    100000.000000 Angstroms

  General interatomic potentials :

--------------------------------------------------------------------------------
Atom  Types   Potential      Parameter       Value         Units   Cutoffs(Ang)
  1     2                                                            Min /  Max 
--------------------------------------------------------------------------------
O    c O    s Spring (c-s)  Spring k 2       20.486200    eV*Ang^-2 0.000  0.800
                            Spring k 4       0.0000000    eV*Ang^-4 
--------------------------------------------------------------------------------
Cl   c Cl   s Spring (c-s)  Spring k 2       10.001500    eV*Ang^-2 0.000  0.800
                            Spring k 4       0.0000000    eV*Ang^-4 
--------------------------------------------------------------------------------
Na   c Na   c Buckingham    Buckingham A     29281.710    eV        0.000 12.000
                            Buckingham rho  0.37200000E-01Ang       
                            Buckingham C     0.0000000    eV*Ang^6  
--------------------------------------------------------------------------------
Na   c O    s Buckingham    Buckingham A     602.40000    eV        0.000 12.000
                            Buckingham rho  0.34280000    Ang       
                            Buckingham C     0.0000000    eV*Ang^6  
--------------------------------------------------------------------------------
Na   c Cl   s Buckingham    Buckingham A     3515.6900    eV        0.000 12.000
                            Buckingham rho  0.27460000    Ang       
                            Buckingham C     0.0000000    eV*Ang^6  
--------------------------------------------------------------------------------
O    s O    s Buckingham    Buckingham A     25201.690    eV        0.000 12.000
                            Buckingham rho  0.16450000    Ang       
                            Buckingham C     13.190000    eV*Ang^6  
--------------------------------------------------------------------------------
O    s Cl   s Buckingham    Buckingham A     1105.8600    eV        0.000 12.000
                            Buckingham rho  0.31330000    Ang       
                            Buckingham C     62.200000    eV*Ang^6  
--------------------------------------------------------------------------------
Cl   s Cl   s Buckingham    Buckingham A     31408.750    eV        0.000 12.000
                            Buckingham rho  0.13660000    Ang       
                            Buckingham C     14.530000    eV*Ang^6  
--------------------------------------------------------------------------------

********************************************************************************
*  Output for configuration   1                                                *
********************************************************************************


  Components of energy : 

--------------------------------------------------------------------------------
  Interatomic potentials     =           5.33200327 eV    
  Monopole - monopole (real) =         -10.03624526 eV    
  Monopole - monopole (recip)=         -29.53581274 eV    
  Monopole - monopole (total)=         -39.57205800 eV    
--------------------------------------------------------------------------------
  Total lattice energy       =         -34.24005473 eV    
--------------------------------------------------------------------------------
  Total lattice energy       =           -3303.6419 kJ/(mole unit cells)
--------------------------------------------------------------------------------


  Number of variables =        1

  Maximum number of calculations  =          1000
  Maximum Hessian update interval =            10
  Maximum step size               =   1.000000000
  Maximum parameter tolerance     =   0.000010000
  Maximum function  tolerance     =   0.000010000
  Maximum gradient  tolerance     =   0.001000000
  Maximum gradient  component     =   0.010000000

  Symmetry constrained optimisation

  Symmetry used for second derivatives

  Cell parameters to be optimised using strains

  Newton-Raphson optimiser to be used

  BFGS hessian update to be used

  Lower half triangular hessian to be used

  Start of bulk optimisation :

  Cycle:      0 Energy:       -34.240055  Gnorm:      2.245244  CPU:    0.014
  ** Hessian calculated **
  Cycle:      1 Energy:       -34.252747  Gnorm:      0.013309  CPU:    0.018


  **** Optimisation achieved ****


  Final energy =     -34.25274716 eV
  Final Gnorm  =       0.00056121

  Components of energy : 

--------------------------------------------------------------------------------
  Interatomic potentials     =           5.76377683 eV    
  Monopole - monopole (real) =         -10.14897050 eV    
  Monopole - monopole (recip)=         -29.86755349 eV    
  Monopole - monopole (total)=         -40.01652399 eV    
--------------------------------------------------------------------------------
  Total lattice energy       =         -34.25274716 eV    
--------------------------------------------------------------------------------
  Total lattice energy       =           -3304.8665 kJ/(mole unit cells)
--------------------------------------------------------------------------------

  Final asymmetric unit coordinates :

--------------------------------------------------------------------------------
   No.  Atomic        x           y           z         Radius
        Label       (Frac)      (Frac)      (Frac)       (Angs) 
--------------------------------------------------------------------------------
     1  Cl    c     0.000000    0.000000    0.000000    0.000000
     2  O     c     0.500000    0.500000    0.500000    0.000000
     3  Na    c     0.500000    0.500000    0.000000    0.000000
     4  Cl    s     0.000000    0.000000    0.000000    0.000000
     5  O     s     0.500000    0.500000    0.500000    0.000000
--------------------------------------------------------------------------------

  Final Cartesian lattice vectors (Angstroms) :

        4.453974    0.000000    0.000000
        0.000000    4.453974    0.000000
        0.000000    0.000000    4.453974


  Final cell parameters and derivatives :

--------------------------------------------------------------------------------
       a            4.453974 Angstrom     dE/de1(xx)     0.000561 eV/strain
       b            4.453974 Angstrom     dE/de2(yy)     0.000000 eV/strain
       c            4.453974 Angstrom     dE/de3(zz)     0.000000 eV/strain
       alpha       90.000000 Degrees      dE/de4(yz)     0.000000 eV/strain
       beta        90.000000 Degrees      dE/de5(xz)     0.000000 eV/strain
       gamma       90.000000 Degrees      dE/de6(xy)     0.000000 eV/strain
--------------------------------------------------------------------------------

  Primitive cell volume =            88.357409 Angs**3

  Density of cell =      2.263141 g/cm**3

  Non-primitive cell volume =            88.357409 Angs**3


  Final internal derivatives :

--------------------------------------------------------------------------------
   No.  Atomic          a             b             c           Radius
        Label          (eV)          (eV)          (eV)        (eV/Angs)
--------------------------------------------------------------------------------
      1 Cl    c       0.000000      0.000000      0.000000      0.000000
      2 O     c       0.000000      0.000000      0.000000      0.000000
      3 Na    c       0.000000      0.000000      0.000000      0.000000
      4 Cl    s       0.000000      0.000000      0.000000      0.000000
      5 O     s       0.000000      0.000000      0.000000      0.000000
--------------------------------------------------------------------------------
  Maximum abs         0.000000      0.000000      0.000000      0.000000
--------------------------------------------------------------------------------

  Comparison of initial and final structures : 

--------------------------------------------------------------------------------
  Parameter   Initial value   Final value   Difference    Units      Percent
--------------------------------------------------------------------------------
    Volume        91.368216     88.357409    -3.010807    Angs**3     -3.30
    a              4.504000      4.453974    -0.050026    Angstroms   -1.11
    b              4.504000      4.453974    -0.050026    Angstroms   -1.11
    c              4.504000      4.453974    -0.050026    Angstroms   -1.11
    alpha         90.000000     90.000000     0.000000    Degrees      0.00
    beta          90.000000     90.000000     0.000000    Degrees      0.00
    gamma         90.000000     90.000000     0.000000    Degrees      0.00
      1 x          0.000000      0.000000     0.000000    Fractional   0.00
      1 y          0.000000      0.000000     0.000000    Fractional   0.00
      1 z          0.000000      0.000000     0.000000    Fractional   0.00
      2 x          0.500000      0.500000     0.000000    Fractional   0.00
      2 y          0.500000      0.500000     0.000000    Fractional   0.00
      2 z          0.500000      0.500000     0.000000    Fractional   0.00
      3 x          0.500000      0.500000     0.000000    Fractional   0.00
      3 y          0.500000      0.500000     0.000000    Fractional   0.00
      3 z          0.000000      0.000000     0.000000    Fractional   0.00
      4 x          0.000000      0.000000     0.000000    Fractional   0.00
      4 y          0.000000      0.000000     0.000000    Fractional   0.00
      4 z          0.000000      0.000000     0.000000    Fractional   0.00
      5 x          0.500000      0.500000     0.000000    Fractional   0.00
      5 y          0.500000      0.500000     0.000000    Fractional   0.00
      5 z          0.500000      0.500000     0.000000    Fractional   0.00
--------------------------------------------------------------------------------


  Born effective charge tensors : 

-------------------------------------------------------------------------------
  Atom             x           y             z
-------------------------------------------------------------------------------
    1 Cl    x      -1.4271      0.0000      0.0000
            y       0.0000     -1.4271      0.0000
            z       0.0000      0.0000     -1.4271
-------------------------------------------------------------------------------
    2 O     x      -1.6137     -0.0000     -0.0000
            y      -0.0000     -1.6137     -0.0000
            z      -0.0000     -0.0000     -1.6137
-------------------------------------------------------------------------------
    3 Na    x       0.8295     -0.0000     -0.0000
            y      -0.0000      0.8295      0.0000
            z      -0.0000      0.0000      1.3817
-------------------------------------------------------------------------------




  Elastic Constant Matrix: (Units=GPa)

-------------------------------------------------------------------------------
  Indices      1         2         3         4         5         6    
-------------------------------------------------------------------------------
       1     82.8226   21.5342   21.5342    0.0000   -0.0000   -0.0000
       2     21.5342   82.8226   21.5342   -0.0000    0.0000   -0.0000
       3     21.5342   21.5342   82.8226    0.0000    0.0000   -0.0000
       4      0.0000   -0.0000    0.0000   21.5346   -0.0000    0.0000
       5     -0.0000    0.0000    0.0000   -0.0000   21.5346    0.0000
       6     -0.0000   -0.0000   -0.0000    0.0000    0.0000   21.5346
-------------------------------------------------------------------------------


  Elastic Compliance Matrix: (Units=1/GPa)

-------------------------------------------------------------------------------
  Indices      1         2         3         4         5         6    
-------------------------------------------------------------------------------
       1    0.013525 -0.002791 -0.002791 -0.000000  0.000000  0.000000
       2   -0.002791  0.013525 -0.002791  0.000000 -0.000000  0.000000
       3   -0.002791 -0.002791  0.013525 -0.000000 -0.000000  0.000000
       4   -0.000000  0.000000 -0.000000  0.046437  0.000000 -0.000000
       5    0.000000 -0.000000 -0.000000  0.000000  0.046437 -0.000000
       6    0.000000  0.000000  0.000000 -0.000000 -0.000000  0.046437
-------------------------------------------------------------------------------

  Mechanical properties :

-------------------------------------------------------------------------------
  Convention :                    Reuss         Voigt         Hill
-------------------------------------------------------------------------------
  Bulk  Modulus (GPa)     =      41.96371      41.96371      41.96371
  Shear Modulus (GPa)     =      24.44079      25.17843      24.80961
-------------------------------------------------------------------------------
  Velocity S-wave (km/s)  =       3.28626       3.33548       3.31096
  Velocity P-wave (km/s)  =       5.73948       5.77721       5.75837
-------------------------------------------------------------------------------
  Compressibility (1/GPa) =    0.02383011
-------------------------------------------------------------------------------
  Stress axis :                     x             y             z
-------------------------------------------------------------------------------
  Youngs Moduli (GPa)     =      73.93539      73.93539      73.93539
-------------------------------------------------------------------------------
  Poissons Ratio (x)      =                     0.20635       0.20635
  Poissons Ratio (y)      =       0.20635                     0.20635
  Poissons Ratio (z)      =       0.20635       0.20635
-------------------------------------------------------------------------------


  Piezoelectric Strain Matrix: (Units=C/m**2)

-------------------------------------------------------------------------------
  Indices      1         2         3         4         5         6    
-------------------------------------------------------------------------------
       x     0.00000  -0.00000   0.00000   0.00000  -0.00000  -0.00000
       y    -0.00000  -0.00000  -0.00000  -0.00000   0.00000   0.00000
       z    -0.00000  -0.00000   0.00000   0.00000   0.00000   0.00000
-------------------------------------------------------------------------------


  Piezoelectric Stress Matrix: (Units=10**-11 C/N)

-------------------------------------------------------------------------------
  Indices      1         2         3         4         5         6    
-------------------------------------------------------------------------------
       x     0.00000  -0.00000  -0.00000   0.00000  -0.00000  -0.00000
       y    -0.00000   0.00000   0.00000  -0.00000   0.00000   0.00000
       z    -0.00000  -0.00000   0.00000   0.00000   0.00000   0.00000
-------------------------------------------------------------------------------


  Static dielectric constant tensor : 

-------------------------------------------------------------------------------
              x         y         z
-------------------------------------------------------------------------------
       x    28.60451  -0.00000  -0.00000
       y    -0.00000  28.60451  -0.00000
       z    -0.00000  -0.00000  28.60451
--------------------------------------------------------------------------------

  High frequency dielectric constant tensor : 

-------------------------------------------------------------------------------
              x         y         z
-------------------------------------------------------------------------------
       x     3.92296  -0.00000  -0.00000
       y    -0.00000   3.92296   0.00000
       z    -0.00000   0.00000   3.92296
-------------------------------------------------------------------------------

  Static refractive indices : 

-------------------------------------------------------------------------------
    1 =    5.34832      2 =    5.34832      3 =    5.34832
-------------------------------------------------------------------------------

  High frequency refractive indices : 

-------------------------------------------------------------------------------
    1 =    1.98065      2 =    1.98065      3 =    1.98065
-------------------------------------------------------------------------------


  Time to end of optimisation =       0.0274 seconds

********************************************************************************
*  Defect calculation for configuration   1 :                                  *
********************************************************************************

  Total number of defects =      3

  Total charge on defect  =  -1.00

  Defect centre is at   0.5000   0.2500   0.2500  Frac

  Region 1 radius =  12.0000      Number of ions =    575

  Number of symmetry inequivalent region 1 ions  =    331

  Region 2 radius =  16.0000      Number of ions =    818

  Number of symmetry inequivalent region 2a ions =    447

  Region 2a mode = 4 : screened electrostatics due to region 1 
                       neglect correction to region 1 forces from 2a
                       region 2a displacements based on defects only

  Region 2a ions will only interact with defects in region 1

  Vacancies:

--------------------------------------------------------------------------------
    Specification type     Symbol/Number         x          y          z
--------------------------------------------------------------------------------
    Fractional                               0.500000   0.500000   0.000000
    Fractional                               0.500000   0.000000   0.500000
--------------------------------------------------------------------------------

  Interstitials:

--------------------------------------------------------------------------------
    Specification type     Symbol/Number         x          y          z
--------------------------------------------------------------------------------
    Atom/Fractional         Na               0.500000   0.480000   0.020000
--------------------------------------------------------------------------------


  Symmetry reduced region 1 (Relative to defect centre) :

--------------------------------------------------------------------------------
   No.   Atomic       x            y             z       Radius  Multiplicity   
         Label      (Angs)       (Angs)        (Angs)    (Angs)     
--------------------------------------------------------------------------------
     1  Na    c      0.0000       1.0244      -1.0244    0.0000     1    Defect
     2  O     c      0.0000       1.1135 *     1.1135 *  0.0000     1          
     3  Cl    c      2.2270 *    -1.1135 *    -1.1135 *  0.0000     2          
     4  Na    c      2.2270 *     1.1135 *     1.1135 *  0.0000     2          
     5  O     c      0.0000       1.1135 *    -3.3405 *  0.0000     1          
     6  O     c      0.0000      -3.3405 *     1.1135 *  0.0000     1          
     7  Na    c      0.0000       1.1135 *     3.3405 *  0.0000     1          
     8  Na    c      0.0000      -3.3405 *    -1.1135 *  0.0000     1          
     9  Na    c      0.0000      -1.1135 *    -3.3405 *  0.0000     1          
    10  Na    c      0.0000       3.3405 *     1.1135 *  0.0000     1          
    11  Cl    c      2.2270 *    -1.1135 *     3.3405 *  0.0000     2          
    12  Cl    c      2.2270 *     3.3405 *    -1.1135 *  0.0000     2          
    13  Na    c      2.2270 *     1.1135 *    -3.3405 *  0.0000     2          
    14  Na    c      2.2270 *    -3.3405 *     1.1135 *  0.0000     2          
    15  O     c     -4.4540 *     1.1135 *     1.1135 *  0.0000     2          
    16  Na    c     -4.4540 *    -1.1135 *     1.1135 *  0.0000     2          
    17  O     c      0.0000      -3.3405 *    -3.3405 *  0.0000     1          
    18  Na    c      0.0000      -3.3405 *     3.3405 *  0.0000     1          
    19  Na    c     -4.4540 *     1.1135 *    -1.1135 *  0.0000     2          
    20  Na    c      0.0000       3.3405 *    -3.3405 *  0.0000     1          
    21  Cl    c      2.2270 *     3.3405 *     3.3405 *  0.0000     2          
    22  Na    c      2.2270 *    -3.3405 *    -3.3405 *  0.0000     2          
    23  O     c      0.0000       1.1135 *     5.5675 *  0.0000     1          
    24  O     c      0.0000       5.5675 *     1.1135 *  0.0000     1          
    25  O     c     -4.4540 *     1.1135 *    -3.3405 *  0.0000     2          
    26  O     c     -4.4540 *    -3.3405 *     1.1135 *  0.0000     2          
    27  Na    c      0.0000       1.1135 *    -5.5675 *  0.0000     1          
    28  Na    c      0.0000       5.5675 *    -1.1135 *  0.0000     1          
    29  Na    c     -4.4540 *     1.1135 *     3.3405 *  0.0000     2          
    30  Na    c     -4.4540 *    -3.3405 *    -1.1135 *  0.0000     2          
    31  Na    c      0.0000      -1.1135 *     5.5675 *  0.0000     1          
    32  Na    c      0.0000      -5.5675 *     1.1135 *  0.0000     1          
    33  Na    c     -4.4540 *    -1.1135 *    -3.3405 *  0.0000     2          
    34  Na    c     -4.4540 *     3.3405 *     1.1135 *  0.0000     2          
    35  Cl    c      2.2270 *    -1.1135 *    -5.5675 *  0.0000     2          
    36  Cl    c      2.2270 *    -5.5675 *    -1.1135 *  0.0000     2          
    37  Na    c      2.2270 *     1.1135 *     5.5675 *  0.0000     2          
    38  Na    c      2.2270 *     5.5675 *     1.1135 *  0.0000     2          
    39  O     c      0.0000       5.5675 *    -3.3405 *  0.0000     1          
    40  O     c      0.0000      -3.3405 *     5.5675 *  0.0000     1          
    41  O     c     -4.4540 *    -3.3405 *    -3.3405 *  0.0000     2          
    42  Na    c      0.0000       5.5675 *     3.3405 *  0.0000     1          
    43  Na    c      0.0000      -3.3405 *    -5.5675 *  0.0000     1          
    44  Na    c     -4.4540 *    -3.3405 *     3.3405 *  0.0000     2          
    45  Na    c      0.0000       3.3405 *     5.5675 *  0.0000     1          
    46  Na    c      0.0000      -5.5675 *    -3.3405 *  0.0000     1          
    47  Na    c     -4.4540 *     3.3405 *    -3.3405 *  0.0000     2          
    48  Cl    c      2.2270 *     3.3405 *    -5.5675 *  0.0000     2          
    49  Cl    c      2.2270 *    -5.5675 *     3.3405 *  0.0000     2          
    50  Na    c      2.2270 *     5.5675 *    -3.3405 *  0.0000     2          
    51  Na    c      2.2270 *    -3.3405 *     5.5675 *  0.0000     2          
    52  Cl    c      6.6810 *    -1.1135 *    -1.1135 *  0.0000     2          
    53  Na    c      6.6810 *     1.1135 *     1.1135 *  0.0000     2          
    54  O     c     -4.4540 *     5.5675 *     1.1135 *  0.0000     2          
    55  Na    c     -4.4540 *     5.5675 *    -1.1135 *  0.0000     2          
    56  Na    c     -4.4540 *    -5.5675 *     1.1135 *  0.0000     2          
    57  O     c      4.4540 *     1.1135 *     5.5675 *  0.0000     2          
    58  Na    c      4.4540 *     1.1135 *    -5.5675 *  0.0000     2          
    59  Na    c      4.4540 *    -1.1135 *     5.5675 *  0.0000     2          
    60  Cl    c      6.6810 *    -1.1135 *     3.3405 *  0.0000     2          
    61  Cl    c      6.6810 *     3.3405 *    -1.1135 *  0.0000     2          
    62  Na    c      6.6810 *     1.1135 *    -3.3405 *  0.0000     2          
    63  Na    c      6.6810 *    -3.3405 *     1.1135 *  0.0000     2          
    64  O     c      0.0000       5.5675 *     5.5675 *  0.0000     1          
    65  O     c     -4.4540 *     5.5675 *    -3.3405 *  0.0000     2          
    66  O     c     -4.4540 *    -3.3405 *     5.5675 *  0.0000     2          
    67  Na    c      0.0000       5.5675 *    -5.5675 *  0.0000     1          
    68  Na    c     -4.4540 *     5.5675 *     3.3405 *  0.0000     2          
    69  Na    c     -4.4540 *    -3.3405 *    -5.5675 *  0.0000     2          
    70  Na    c      0.0000      -5.5675 *     5.5675 *  0.0000     1          
    71  Na    c     -4.4540 *     3.3405 *     5.5675 *  0.0000     2          
    72  Na    c     -4.4540 *    -5.5675 *    -3.3405 *  0.0000     2          
    73  O     c      0.0000       1.1135 *    -7.7945 *  0.0000     1          
    74  O     c      0.0000      -7.7945 *     1.1135 *  0.0000     1          
    75  Na    c      0.0000       1.1135 *     7.7945 *  0.0000     1          
    76  Na    c      0.0000      -7.7945 *    -1.1135 *  0.0000     1          
    77  Na    c      0.0000      -1.1135 *    -7.7945 *  0.0000     1          
    78  Na    c      0.0000       7.7945 *     1.1135 *  0.0000     1          
    79  Cl    c      2.2270 *    -5.5675 *    -5.5675 *  0.0000     2          
    80  Na    c      2.2270 *     5.5675 *     5.5675 *  0.0000     2          
    81  Cl    c      2.2270 *    -1.1135 *     7.7945 *  0.0000     2          
    82  Cl    c      2.2270 *     7.7945 *    -1.1135 *  0.0000     2          
    83  Cl    c      6.6810 *     3.3405 *     3.3405 *  0.0000     2          
    84  Na    c      2.2270 *     1.1135 *    -7.7945 *  0.0000     2          
    85  Na    c      2.2270 *    -7.7945 *     1.1135 *  0.0000     2          
    86  Na    c      6.6810 *    -3.3405 *    -3.3405 *  0.0000     2          
    87  O     c      0.0000      -3.3405 *    -7.7945 *  0.0000     1          
    88  O     c      0.0000      -7.7945 *    -3.3405 *  0.0000     1          
    89  Na    c      0.0000      -3.3405 *     7.7945 *  0.0000     1          
    90  Na    c      0.0000      -7.7945 *     3.3405 *  0.0000     1          
    91  Na    c      0.0000       3.3405 *    -7.7945 *  0.0000     1          
    92  Na    c      0.0000       7.7945 *    -3.3405 *  0.0000     1          
    93  Cl    c      2.2270 *     3.3405 *     7.7945 *  0.0000     2          
    94  Cl    c      6.6810 *    -1.1135 *    -5.5675 *  0.0000     2          
    95  Cl    c      6.6810 *    -5.5675 *    -1.1135 *  0.0000     2          
    96  Na    c      2.2270 *    -3.3405 *    -7.7945 *  0.0000     2          
    97  Na    c      6.6810 *     1.1135 *     5.5675 *  0.0000     2          
    98  Na    c      6.6810 *     5.5675 *     1.1135 *  0.0000     2          
    99  Cl    c      2.2270 *     7.7945 *     3.3405 *  0.0000     2          
   100  Na    c      2.2270 *    -7.7945 *    -3.3405 *  0.0000     2          
   101  O     c      8.9079 *     1.1135 *     1.1135 *  0.0000     2          
   102  Na    c      8.9079 *     1.1135 *    -1.1135 *  0.0000     2          
   103  Na    c      8.9079 *    -1.1135 *     1.1135 *  0.0000     2          
   104  O     c      4.4540 *     5.5675 *     5.5675 *  0.0000     2          
   105  O     c      4.4540 *    -7.7945 *     1.1135 *  0.0000     2          
   106  O     c     -4.4540 *     1.1135 *    -7.7945 *  0.0000     2          
   107  Na    c      4.4540 *     5.5675 *    -5.5675 *  0.0000     2          
   108  Na    c      4.4540 *    -7.7945 *    -1.1135 *  0.0000     2          
   109  Na    c     -4.4540 *     1.1135 *     7.7945 *  0.0000     2          
   110  Na    c      4.4540 *     7.7945 *     1.1135 *  0.0000     2          
   111  Na    c      4.4540 *    -5.5675 *     5.5675 *  0.0000     2          
   112  Na    c     -4.4540 *    -1.1135 *    -7.7945 *  0.0000     2          
   113  Cl    c      6.6810 *     3.3405 *    -5.5675 *  0.0000     2          
   114  Cl    c      6.6810 *    -5.5675 *     3.3405 *  0.0000     2          
   115  Na    c      6.6810 *     5.5675 *    -3.3405 *  0.0000     2          
   116  Na    c      6.6810 *    -3.3405 *     5.5675 *  0.0000     2          
   117  O     c      8.9079 *     1.1135 *    -3.3405 *  0.0000     2          
   118  O     c      8.9079 *    -3.3405 *     1.1135 *  0.0000     2          
   119  Na    c      8.9079 *     1.1135 *     3.3405 *  0.0000     2          
   120  Na    c      8.9079 *    -3.3405 *    -1.1135 *  0.0000     2          
   121  Na    c      8.9079 *    -1.1135 *    -3.3405 *  0.0000     2          
   122  Na    c      8.9079 *     3.3405 *     1.1135 *  0.0000     2          
   123  O     c      0.0000       5.5675 *    -7.7945 *  0.0000     1          
   124  O     c      0.0000      -7.7945 *     5.5675 *  0.0000     1          
   125  O     c      4.4540 *    -3.3405 *    -7.7945 *  0.0000     2          
   126  O     c      4.4540 *    -7.7945 *    -3.3405 *  0.0000     2          
   127  Na    c      0.0000       5.5675 *     7.7945 *  0.0000     1          
   128  Na    c      0.0000      -7.7945 *    -5.5675 *  0.0000     1          
   129  Na    c      4.4540 *    -3.3405 *     7.7945 *  0.0000     2          
   130  Na    c      4.4540 *    -7.7945 *     3.3405 *  0.0000     2          
   131  Na    c      0.0000       7.7945 *     5.5675 *  0.0000     1          
   132  Na    c      0.0000      -5.5675 *    -7.7945 *  0.0000     1          
   133  Na    c      4.4540 *     3.3405 *    -7.7945 *  0.0000     2          
   134  Na    c      4.4540 *     7.7945 *    -3.3405 *  0.0000     2          
   135  Cl    c      2.2270 *    -5.5675 *     7.7945 *  0.0000     2          
   136  Na    c      2.2270 *     5.5675 *    -7.7945 *  0.0000     2          
   137  Cl    c      2.2270 *     7.7945 *    -5.5675 *  0.0000     2          
   138  Na    c      2.2270 *    -7.7945 *     5.5675 *  0.0000     2          
   139  O     c      0.0000       1.1135 *    10.0214 *  0.0000     1          
   140  O     c      0.0000      10.0214 *     1.1135 *  0.0000     1          
   141  Na    c      0.0000       1.1135 *   -10.0214 *  0.0000     1          
   142  Na    c      0.0000      10.0214 *    -1.1135 *  0.0000     1          
   143  Na    c      0.0000      -1.1135 *    10.0214 *  0.0000     1          
   144  Na    c      0.0000     -10.0214 *     1.1135 *  0.0000     1          
   145  O     c      8.9079 *    -3.3405 *    -3.3405 *  0.0000     2          
   146  Na    c      8.9079 *    -3.3405 *     3.3405 *  0.0000     2          
   147  Na    c      8.9079 *     3.3405 *    -3.3405 *  0.0000     2          
   148  Cl    c      2.2270 *    -1.1135 *   -10.0214 *  0.0000     2          
   149  Cl    c      2.2270 *   -10.0214 *    -1.1135 *  0.0000     2          
   150  Na    c      2.2270 *     1.1135 *    10.0214 *  0.0000     2          
   151  Na    c      2.2270 *    10.0214 *     1.1135 *  0.0000     2          
   152  Cl    c      6.6810 *    -5.5675 *    -5.5675 *  0.0000     2          
   153  Na    c      6.6810 *     5.5675 *     5.5675 *  0.0000     2          
   154  Cl    c      6.6810 *    -1.1135 *     7.7945 *  0.0000     2          
   155  Cl    c      6.6810 *     7.7945 *    -1.1135 *  0.0000     2          
   156  Na    c      6.6810 *     1.1135 *    -7.7945 *  0.0000     2          
   157  Na    c      6.6810 *    -7.7945 *     1.1135 *  0.0000     2          
   158  O     c      0.0000      10.0214 *    -3.3405 *  0.0000     1          
   159  O     c      0.0000      -3.3405 *    10.0214 *  0.0000     1          
   160  O     c      8.9079 *     5.5675 *     1.1135 *  0.0000     2          
   161  Na    c      0.0000      10.0214 *     3.3405 *  0.0000     1          
   162  Na    c      0.0000      -3.3405 *   -10.0214 *  0.0000     1          
   163  Na    c      8.9079 *     5.5675 *    -1.1135 *  0.0000     2          
   164  Na    c      0.0000       3.3405 *    10.0214 *  0.0000     1          
   165  Na    c      0.0000     -10.0214 *    -3.3405 *  0.0000     1          
   166  Na    c      8.9079 *    -5.5675 *     1.1135 *  0.0000     2          
   167  O     c      4.4540 *    -7.7945 *     5.5675 *  0.0000     2          
   168  O     c      8.9079 *     1.1135 *     5.5675 *  0.0000     2          
   169  O     c     -4.4540 *     5.5675 *    -7.7945 *  0.0000     2          
   170  Na    c      4.4540 *    -7.7945 *    -5.5675 *  0.0000     2          
   171  Na    c      8.9079 *     1.1135 *    -5.5675 *  0.0000     2          
   172  Na    c     -4.4540 *     5.5675 *     7.7945 *  0.0000     2          
   173  Na    c      4.4540 *     7.7945 *     5.5675 *  0.0000     2          
   174  Na    c      8.9079 *    -1.1135 *     5.5675 *  0.0000     2          
   175  Na    c     -4.4540 *    -5.5675 *    -7.7945 *  0.0000     2          
   176  Cl    c      2.2270 *     3.3405 *   -10.0214 *  0.0000     2          
   177  Na    c      2.2270 *    -3.3405 *    10.0214 *  0.0000     2          
   178  Cl    c      2.2270 *   -10.0214 *     3.3405 *  0.0000     2          
   179  Na    c      2.2270 *    10.0214 *    -3.3405 *  0.0000     2          
   180  Cl    c      6.6810 *     3.3405 *     7.7945 *  0.0000     2          
   181  Na    c      6.6810 *    -3.3405 *    -7.7945 *  0.0000     2          
   182  Cl    c      6.6810 *     7.7945 *     3.3405 *  0.0000     2          
   183  Na    c      6.6810 *    -7.7945 *    -3.3405 *  0.0000     2          
   184  O     c      4.4540 *    10.0214 *     1.1135 *  0.0000     2          
   185  O     c     -4.4540 *     1.1135 *    10.0214 *  0.0000     2          
   186  Na    c      4.4540 *    10.0214 *    -1.1135 *  0.0000     2          
   187  Na    c     -4.4540 *     1.1135 *   -10.0214 *  0.0000     2          
   188  Na    c      4.4540 *   -10.0214 *     1.1135 *  0.0000     2          
   189  Na    c     -4.4540 *    -1.1135 *    10.0214 *  0.0000     2          
   190  O     c      8.9079 *     5.5675 *    -3.3405 *  0.0000     2          
   191  Na    c      8.9079 *     5.5675 *     3.3405 *  0.0000     2          
   192  Na    c      8.9079 *    -5.5675 *    -3.3405 *  0.0000     2          
   193  O     c      0.0000      -7.7945 *    -7.7945 *  0.0000     1          
   194  O     c      8.9079 *    -3.3405 *     5.5675 *  0.0000     2          
   195  Na    c      0.0000      -7.7945 *     7.7945 *  0.0000     1          
   196  Na    c      8.9079 *    -3.3405 *    -5.5675 *  0.0000     2          
   197  Na    c      0.0000       7.7945 *    -7.7945 *  0.0000     1          
   198  Na    c      8.9079 *     3.3405 *     5.5675 *  0.0000     2          
   199  Cl    c     11.1349 *    -1.1135 *    -1.1135 *  0.0000     2          
   200  Na    c     11.1349 *     1.1135 *     1.1135 *  0.0000     2          
   201  Cl    c      2.2270 *     7.7945 *     7.7945 *  0.0000     2          
   202  Na    c      2.2270 *    -7.7945 *    -7.7945 *  0.0000     2          
   203  O     c      0.0000       5.5675 *    10.0214 *  0.0000     1          
   204  O     c      0.0000      10.0214 *     5.5675 *  0.0000     1          
   205  O     c      4.4540 *    10.0214 *    -3.3405 *  0.0000     2          
   206  O     c      4.4540 *    -3.3405 *    10.0214 *  0.0000     2          
   207  Na    c      0.0000       5.5675 *   -10.0214 *  0.0000     1          
   208  Na    c      0.0000      10.0214 *    -5.5675 *  0.0000     1          
   209  Na    c      4.4540 *    10.0214 *     3.3405 *  0.0000     2          
   210  Na    c      4.4540 *    -3.3405 *   -10.0214 *  0.0000     2          
   211  Na    c      0.0000      -5.5675 *    10.0214 *  0.0000     1          
   212  Na    c      0.0000     -10.0214 *     5.5675 *  0.0000     1          
   213  Na    c      4.4540 *     3.3405 *    10.0214 *  0.0000     2          
   214  Na    c      4.4540 *   -10.0214 *    -3.3405 *  0.0000     2          
   215  Cl    c      2.2270 *    -5.5675 *   -10.0214 *  0.0000     2          
   216  Cl    c      2.2270 *   -10.0214 *    -5.5675 *  0.0000     2          
   217  Cl    c      6.6810 *    -5.5675 *     7.7945 *  0.0000     2          
   218  Cl    c     11.1349 *    -1.1135 *     3.3405 *  0.0000     2          
   219  Cl    c     11.1349 *     3.3405 *    -1.1135 *  0.0000     2          
   220  Na    c      2.2270 *     5.5675 *    10.0214 *  0.0000     2          
   221  Na    c      2.2270 *    10.0214 *     5.5675 *  0.0000     2          
   222  Na    c      6.6810 *     5.5675 *    -7.7945 *  0.0000     2          
   223  Na    c     11.1349 *     1.1135 *    -3.3405 *  0.0000     2          
   224  Na    c     11.1349 *    -3.3405 *     1.1135 *  0.0000     2          
   225  Cl    c      6.6810 *     7.7945 *    -5.5675 *  0.0000     2          
   226  Na    c      6.6810 *    -7.7945 *     5.5675 *  0.0000     2          
   227  O     c      8.9079 *     1.1135 *    -7.7945 *  0.0000     2          
   228  O     c      8.9079 *     5.5675 *     5.5675 *  0.0000     2          
   229  O     c      8.9079 *    -7.7945 *     1.1135 *  0.0000     2          
   230  Na    c      8.9079 *     1.1135 *     7.7945 *  0.0000     2          
   231  Na    c      8.9079 *     5.5675 *    -5.5675 *  0.0000     2          
   232  Na    c      8.9079 *    -7.7945 *    -1.1135 *  0.0000     2          
   233  Na    c      8.9079 *    -1.1135 *    -7.7945 *  0.0000     2          
   234  Na    c      8.9079 *     7.7945 *     1.1135 *  0.0000     2          
   235  Na    c      8.9079 *    -5.5675 *     5.5675 *  0.0000     2          
   236  O     c      4.4540 *    -7.7945 *    -7.7945 *  0.0000     2          
   237  Na    c      4.4540 *    -7.7945 *     7.7945 *  0.0000     2          
   238  Na    c      4.4540 *     7.7945 *    -7.7945 *  0.0000     2          
   239  O     s      0.0000       1.1135 *     1.1135 *  0.0000     1          
   240  Cl    s      2.2270 *    -1.1135 *    -1.1135 *  0.0000     2          
   241  O     s      0.0000       1.1135 *    -3.3405 *  0.0000     1          
   242  O     s      0.0000      -3.3405 *     1.1135 *  0.0000     1          
   243  Cl    s      2.2270 *    -1.1135 *     3.3405 *  0.0000     2          
   244  Cl    s      2.2270 *     3.3405 *    -1.1135 *  0.0000     2          
   245  O     s     -4.4540 *     1.1135 *     1.1135 *  0.0000     2          
   246  O     s      0.0000      -3.3405 *    -3.3405 *  0.0000     1          
   247  Cl    s      2.2270 *     3.3405 *     3.3405 *  0.0000     2          
   248  O     s      0.0000       1.1135 *     5.5675 *  0.0000     1          
   249  O     s      0.0000       5.5675 *     1.1135 *  0.0000     1          
   250  O     s     -4.4540 *     1.1135 *    -3.3405 *  0.0000     2          
   251  O     s     -4.4540 *    -3.3405 *     1.1135 *  0.0000     2          
   252  Cl    s      2.2270 *    -1.1135 *    -5.5675 *  0.0000     2          
   253  Cl    s      2.2270 *    -5.5675 *    -1.1135 *  0.0000     2          
   254  O     s      0.0000       5.5675 *    -3.3405 *  0.0000     1          
   255  O     s      0.0000      -3.3405 *     5.5675 *  0.0000     1          
   256  O     s     -4.4540 *    -3.3405 *    -3.3405 *  0.0000     2          
   257  Cl    s      2.2270 *     3.3405 *    -5.5675 *  0.0000     2          
   258  Cl    s      2.2270 *    -5.5675 *     3.3405 *  0.0000     2          
   259  Cl    s      6.6810 *    -1.1135 *    -1.1135 *  0.0000     2          
   260  O     s     -4.4540 *     5.5675 *     1.1135 *  0.0000     2          
   261  O     s      4.4540 *     1.1135 *     5.5675 *  0.0000     2          
   262  Cl    s      6.6810 *    -1.1135 *     3.3405 *  0.0000     2          
   263  Cl    s      6.6810 *     3.3405 *    -1.1135 *  0.0000     2          
   264  O     s      0.0000       5.5675 *     5.5675 *  0.0000     1          
   265  O     s     -4.4540 *     5.5675 *    -3.3405 *  0.0000     2          
   266  O     s     -4.4540 *    -3.3405 *     5.5675 *  0.0000     2          
   267  O     s      0.0000       1.1135 *    -7.7945 *  0.0000     1          
   268  O     s      0.0000      -7.7945 *     1.1135 *  0.0000     1          
   269  Cl    s      2.2270 *    -5.5675 *    -5.5675 *  0.0000     2          
   270  Cl    s      2.2270 *    -1.1135 *     7.7945 *  0.0000     2          
   271  Cl    s      2.2270 *     7.7945 *    -1.1135 *  0.0000     2          
   272  Cl    s      6.6810 *     3.3405 *     3.3405 *  0.0000     2          
   273  O     s      0.0000      -3.3405 *    -7.7945 *  0.0000     1          
   274  O     s      0.0000      -7.7945 *    -3.3405 *  0.0000     1          
   275  Cl    s      2.2270 *     3.3405 *     7.7945 *  0.0000     2          
   276  Cl    s      6.6810 *    -1.1135 *    -5.5675 *  0.0000     2          
   277  Cl    s      6.6810 *    -5.5675 *    -1.1135 *  0.0000     2          
   278  Cl    s      2.2270 *     7.7945 *     3.3405 *  0.0000     2          
   279  O     s      8.9079 *     1.1135 *     1.1135 *  0.0000     2          
   280  O     s      4.4540 *     5.5675 *     5.5675 *  0.0000     2          
   281  O     s      4.4540 *    -7.7945 *     1.1135 *  0.0000     2          
   282  O     s     -4.4540 *     1.1135 *    -7.7945 *  0.0000     2          
   283  Cl    s      6.6810 *     3.3405 *    -5.5675 *  0.0000     2          
   284  Cl    s      6.6810 *    -5.5675 *     3.3405 *  0.0000     2          
   285  O     s      8.9079 *     1.1135 *    -3.3405 *  0.0000     2          
   286  O     s      8.9079 *    -3.3405 *     1.1135 *  0.0000     2          
   287  O     s      0.0000       5.5675 *    -7.7945 *  0.0000     1          
   288  O     s      0.0000      -7.7945 *     5.5675 *  0.0000     1          
   289  O     s      4.4540 *    -3.3405 *    -7.7945 *  0.0000     2          
   290  O     s      4.4540 *    -7.7945 *    -3.3405 *  0.0000     2          
   291  Cl    s      2.2270 *    -5.5675 *     7.7945 *  0.0000     2          
   292  Cl    s      2.2270 *     7.7945 *    -5.5675 *  0.0000     2          
   293  O     s      0.0000       1.1135 *    10.0214 *  0.0000     1          
   294  O     s      0.0000      10.0214 *     1.1135 *  0.0000     1          
   295  O     s      8.9079 *    -3.3405 *    -3.3405 *  0.0000     2          
   296  Cl    s      2.2270 *    -1.1135 *   -10.0214 *  0.0000     2          
   297  Cl    s      2.2270 *   -10.0214 *    -1.1135 *  0.0000     2          
   298  Cl    s      6.6810 *    -5.5675 *    -5.5675 *  0.0000     2          
   299  Cl    s      6.6810 *    -1.1135 *     7.7945 *  0.0000     2          
   300  Cl    s      6.6810 *     7.7945 *    -1.1135 *  0.0000     2          
   301  O     s      0.0000      10.0214 *    -3.3405 *  0.0000     1          
   302  O     s      0.0000      -3.3405 *    10.0214 *  0.0000     1          
   303  O     s      8.9079 *     5.5675 *     1.1135 *  0.0000     2          
   304  O     s      4.4540 *    -7.7945 *     5.5675 *  0.0000     2          
   305  O     s      8.9079 *     1.1135 *     5.5675 *  0.0000     2          
   306  O     s     -4.4540 *     5.5675 *    -7.7945 *  0.0000     2          
   307  Cl    s      2.2270 *     3.3405 *   -10.0214 *  0.0000     2          
   308  Cl    s      2.2270 *   -10.0214 *     3.3405 *  0.0000     2          
   309  Cl    s      6.6810 *     3.3405 *     7.7945 *  0.0000     2          
   310  Cl    s      6.6810 *     7.7945 *     3.3405 *  0.0000     2          
   311  O     s      4.4540 *    10.0214 *     1.1135 *  0.0000     2          
   312  O     s     -4.4540 *     1.1135 *    10.0214 *  0.0000     2          
   313  O     s      8.9079 *     5.5675 *    -3.3405 *  0.0000     2          
   314  O     s      0.0000      -7.7945 *    -7.7945 *  0.0000     1          
   315  O     s      8.9079 *    -3.3405 *     5.5675 *  0.0000     2          
   316  Cl    s     11.1349 *    -1.1135 *    -1.1135 *  0.0000     2          
   317  Cl    s      2.2270 *     7.7945 *     7.7945 *  0.0000     2          
   318  O     s      0.0000       5.5675 *    10.0214 *  0.0000     1          
   319  O     s      0.0000      10.0214 *     5.5675 *  0.0000     1          
   320  O     s      4.4540 *    10.0214 *    -3.3405 *  0.0000     2          
   321  O     s      4.4540 *    -3.3405 *    10.0214 *  0.0000     2          
   322  Cl    s      2.2270 *    -5.5675 *   -10.0214 *  0.0000     2          
   323  Cl    s      2.2270 *   -10.0214 *    -5.5675 *  0.0000     2          
   324  Cl    s      6.6810 *    -5.5675 *     7.7945 *  0.0000     2          
   325  Cl    s     11.1349 *    -1.1135 *     3.3405 *  0.0000     2          
   326  Cl    s     11.1349 *     3.3405 *    -1.1135 *  0.0000     2          
   327  Cl    s      6.6810 *     7.7945 *    -5.5675 *  0.0000     2          
   328  O     s      8.9079 *     1.1135 *    -7.7945 *  0.0000     2          
   329  O     s      8.9079 *     5.5675 *     5.5675 *  0.0000     2          
   330  O     s      8.9079 *    -7.7945 *     1.1135 *  0.0000     2          
   331  O     s      4.4540 *    -7.7945 *    -7.7945 *  0.0000     2          
--------------------------------------------------------------------------------

  Components of defect energy : 

--------------------------------------------------------------------------------
  Region 1 - region 1                   =      8.33369093 eV
  Region 1 - region 2a (unrelaxed)      =     -0.01427080 eV
  Region 1 - 2a (relaxed - correction)  =     -0.30816975 eV
  Region 1 (Total)                      =      8.01125038 eV
  Region 2a                             =      0.15399827 eV
  Region 2b                             =     -0.43175824 eV
--------------------------------------------------------------------------------
  Total defect energy                   =      7.73349041 eV
--------------------------------------------------------------------------------

  Largest displacement in region 2 =   0.0217 Angstroms


  Number of variables =      904

  Maximum number of calculations  =        1000
  Maximum Hessian update interval =          10
  Maximum step size               =   1.0000000
  Maximum parameter tolerance     =   0.0000100
  Maximum function  tolerance     =   0.0000100
  Maximum gradient  tolerance     =   0.0010000

  Symmetry adapted optimisation

  Symmetry to be used for second derivatives

  Newton-Raphson optimiser to be used

  BFGS hessian update to be used

  Lower half triangular hessian to be used

  Start of defect optimisation :

  Cycle:      0 Defect Energy:   7.733490  Gnorm:     0.022377  CPU:    3.007
  ** Hessian calculated **
  Cycle:      1 Defect Energy:   6.946806  Gnorm:     0.019406  CPU:   12.203
  ** Hessian calculated **
  Cycle:      2 Defect Energy:   5.994509  Gnorm:     0.015158  CPU:   19.984
  ** Hessian calculated **
  Cycle:      3 Defect Energy:   4.815983  Gnorm:     0.006526  CPU:   27.134
  Cycle:      4 Defect Energy:   4.722814  Gnorm:     0.004559  CPU:   30.584
  ** Hessian calculated **
  Cycle:      5 Defect Energy:   4.563542  Gnorm:     0.001096  CPU:   35.670
  Cycle:      6 Defect Energy:   4.551289  Gnorm:     0.000504  CPU:   36.634
  Cycle:      7 Defect Energy:   4.546988  Gnorm:     0.000388  CPU:   37.650
  ** Hessian calculated **
  Cycle:      8 Defect Energy:   4.545279  Gnorm:     0.000252  CPU:   40.099
  Cycle:      9 Defect Energy:   4.543131  Gnorm:     0.000185  CPU:   41.017
  Cycle:     10 Defect Energy:   4.540773  Gnorm:     0.000162  CPU:   41.961
  Cycle:     11 Defect Energy:   4.537973  Gnorm:     0.000191  CPU:   43.088
  Cycle:     12 Defect Energy:   4.534158  Gnorm:     0.000228  CPU:   46.997
  Cycle:     13 Defect Energy:   4.529328  Gnorm:     0.000297  CPU:   48.133
  Cycle:     14 Defect Energy:   4.522442  Gnorm:     0.000356  CPU:   49.348
  Cycle:     15 Defect Energy:   4.513526  Gnorm:     0.000484  CPU:   50.525
  Cycle:     16 Defect Energy:   4.504603  Gnorm:     0.000603  CPU:   51.829
  Cycle:     17 Defect Energy:   4.501434  Gnorm:     0.000568  CPU:   52.918
  ** Hessian calculated **
  Cycle:     18 Defect Energy:   4.497111  Gnorm:     0.000540  CPU:   55.751
  Cycle:     19 Defect Energy:   4.494043  Gnorm:     0.000498  CPU:   56.889
  ** Hessian calculated **
  Cycle:     20 Defect Energy:   4.489909  Gnorm:     0.000425  CPU:   59.590
  Cycle:     21 Defect Energy:   4.485142  Gnorm:     0.000387  CPU:   60.559
  Cycle:     22 Defect Energy:   4.479014  Gnorm:     0.000311  CPU:   61.555
  Cycle:     23 Defect Energy:   4.472036  Gnorm:     0.000303  CPU:   62.658
  Cycle:     24 Defect Energy:   4.464640  Gnorm:     0.000316  CPU:   63.595
  Cycle:     25 Defect Energy:   4.459546  Gnorm:     0.000283  CPU:   64.571
  Cycle:     26 Defect Energy:   4.454704  Gnorm:     0.000326  CPU:   65.480
  Cycle:     27 Defect Energy:   4.449241  Gnorm:     0.000376  CPU:   66.415
  Cycle:     28 Defect Energy:   4.444207  Gnorm:     0.000387  CPU:   67.430
  Cycle:     29 Defect Energy:   4.438772  Gnorm:     0.000406  CPU:   68.330
  ** Hessian calculated **
  Cycle:     30 Defect Energy:   4.436716  Gnorm:     0.000321  CPU:   70.745
  Cycle:     31 Defect Energy:   4.433843  Gnorm:     0.000280  CPU:   71.705
  Cycle:     32 Defect Energy:   4.430215  Gnorm:     0.000267  CPU:   72.588
  Cycle:     33 Defect Energy:   4.425702  Gnorm:     0.000223  CPU:   73.519
  Cycle:     34 Defect Energy:   4.421265  Gnorm:     0.000203  CPU:   74.400
  Cycle:     35 Defect Energy:   4.417164  Gnorm:     0.000294  CPU:   75.258
  Cycle:     36 Defect Energy:   4.412685  Gnorm:     0.000294  CPU:   76.118
  Cycle:     37 Defect Energy:   4.408571  Gnorm:     0.000326  CPU:   77.119
  Cycle:     38 Defect Energy:   4.402903  Gnorm:     0.000385  CPU:   77.855
  Cycle:     39 Defect Energy:   4.395050  Gnorm:     0.000447  CPU:   81.193
  ** Hessian calculated **
  Cycle:     40 Defect Energy:   4.391444  Gnorm:     0.000408  CPU:   85.653
  Cycle:     41 Defect Energy:   4.386565  Gnorm:     0.000353  CPU:   86.733
  Cycle:     42 Defect Energy:   4.380323  Gnorm:     0.000336  CPU:   87.569
  Cycle:     43 Defect Energy:   4.371837  Gnorm:     0.000325  CPU:   88.794
  Cycle:     44 Defect Energy:   4.361987  Gnorm:     0.000258  CPU:   89.871
  Cycle:     45 Defect Energy:   4.351926  Gnorm:     0.000398  CPU:   90.940
  Cycle:     46 Defect Energy:   4.341787  Gnorm:     0.000409  CPU:   92.059
  Cycle:     47 Defect Energy:   4.331933  Gnorm:     0.000539  CPU:   93.092
  Cycle:     48 Defect Energy:   4.318564  Gnorm:     0.000640  CPU:   94.183
  Cycle:     49 Defect Energy:   4.302312  Gnorm:     0.000762  CPU:   95.188
  ** Hessian calculated **
  Cycle:     50 Defect Energy:   4.291401  Gnorm:     0.000693  CPU:   97.854
  Cycle:     51 Defect Energy:   4.276611  Gnorm:     0.000623  CPU:   98.818
  Cycle:     52 Defect Energy:   4.256568  Gnorm:     0.000535  CPU:   99.968
  Cycle:     53 Defect Energy:   4.232481  Gnorm:     0.000533  CPU:  100.955
  Cycle:     54 Defect Energy:   4.202689  Gnorm:     0.000419  CPU:  101.924
  Cycle:     55 Defect Energy:   4.181554  Gnorm:     0.000562  CPU:  102.858
  Cycle:     56 Defect Energy:   4.160139  Gnorm:     0.000613  CPU:  103.875
  Cycle:     57 Defect Energy:   4.145925  Gnorm:     0.000603  CPU:  104.773
  Cycle:     58 Defect Energy:   4.128801  Gnorm:     0.000667  CPU:  105.671
  Cycle:     59 Defect Energy:   4.111993  Gnorm:     0.000707  CPU:  106.618
  ** Hessian calculated **
  Cycle:     60 Defect Energy:   4.082032  Gnorm:     0.000652  CPU:  109.120
  Cycle:     61 Defect Energy:   4.043864  Gnorm:     0.000599  CPU:  109.990
  Cycle:     62 Defect Energy:   4.004076  Gnorm:     0.000765  CPU:  110.847
  ** Hessian calculated **
  Cycle:     63 Defect Energy:   3.997066  Gnorm:     0.000506  CPU:  113.227
  Cycle:     64 Defect Energy:   3.990310  Gnorm:     0.000414  CPU:  114.207
  Cycle:     65 Defect Energy:   3.982481  Gnorm:     0.000355  CPU:  116.134
  Cycle:     66 Defect Energy:   3.975922  Gnorm:     0.000337  CPU:  119.892
  Cycle:     67 Defect Energy:   3.970851  Gnorm:     0.000330  CPU:  120.973
  Cycle:     68 Defect Energy:   3.966921  Gnorm:     0.000291  CPU:  122.070
  Cycle:     69 Defect Energy:   3.963551  Gnorm:     0.000286  CPU:  123.163
  Cycle:     70 Defect Energy:   3.959434  Gnorm:     0.000294  CPU:  124.249
  Cycle:     71 Defect Energy:   3.954663  Gnorm:     0.000318  CPU:  125.419
  Cycle:     72 Defect Energy:   3.948354  Gnorm:     0.000371  CPU:  126.444
  ** Hessian calculated **
  Cycle:     73 Defect Energy:   3.946678  Gnorm:     0.000307  CPU:  129.249
  Cycle:     74 Defect Energy:   3.943999  Gnorm:     0.000281  CPU:  130.376
  Cycle:     75 Defect Energy:   3.940499  Gnorm:     0.000271  CPU:  131.395
  Cycle:     76 Defect Energy:   3.935786  Gnorm:     0.000238  CPU:  132.352
  Cycle:     77 Defect Energy:   3.930060  Gnorm:     0.000239  CPU:  133.376
  Cycle:     78 Defect Energy:   3.923589  Gnorm:     0.000284  CPU:  134.371
  Cycle:     79 Defect Energy:   3.918710  Gnorm:     0.000284  CPU:  135.448
  Cycle:     80 Defect Energy:   3.913933  Gnorm:     0.000322  CPU:  136.416
  Cycle:     81 Defect Energy:   3.909316  Gnorm:     0.000366  CPU:  137.338
  Cycle:     82 Defect Energy:   3.902554  Gnorm:     0.000448  CPU:  137.884
  ** Hessian calculated **
  Cycle:     83 Defect Energy:   3.884168  Gnorm:     0.000426  CPU:  139.423
  Cycle:     84 Defect Energy:   3.866618  Gnorm:     0.000430  CPU:  140.064
  Cycle:     85 Defect Energy:   3.842699  Gnorm:     0.000509  CPU:  140.585
  Cycle:     86 Defect Energy:   3.851083  Gnorm:     0.000716  CPU:  141.095
  Cycle:     87 Defect Energy:   3.851242  Gnorm:     0.000876  CPU:  141.627
  Cycle:     88 Defect Energy:   3.857107  Gnorm:     0.000670  CPU:  142.134
  Cycle:     89 Defect Energy:   3.838008  Gnorm:     0.000448  CPU:  142.644
  Cycle:     90 Defect Energy:   3.827023  Gnorm:     0.000251  CPU:  143.151
  Cycle:     91 Defect Energy:   3.822180  Gnorm:     0.000155  CPU:  143.679
  Cycle:     92 Defect Energy:   3.819693  Gnorm:     0.000105  CPU:  144.185
  ** Hessian calculated **
  Cycle:     93 Defect Energy:   3.817461  Gnorm:     0.000100  CPU:  146.386
  Cycle:     94 Defect Energy:   3.814903  Gnorm:     0.000110  CPU:  147.274
  Cycle:     95 Defect Energy:   3.813700  Gnorm:     0.000095  CPU:  148.189
  Cycle:     96 Defect Energy:   3.813017  Gnorm:     0.000073  CPU:  149.081
  Cycle:     97 Defect Energy:   3.812576  Gnorm:     0.000062  CPU:  150.070
  Cycle:     98 Defect Energy:   3.812290  Gnorm:     0.000042  CPU:  151.124
  Cycle:     99 Defect Energy:   3.812140  Gnorm:     0.000041  CPU:  155.714
  Cycle:    100 Defect Energy:   3.812058  Gnorm:     0.000022  CPU:  157.132
  Cycle:    101 Defect Energy:   3.812035  Gnorm:     0.000020  CPU:  158.293


  **** Optimisation achieved ****


  Final defect energy  =        3.81202934
  Final defect Gnorm   =        0.00001348

  Components of defect energy : 

--------------------------------------------------------------------------------
  Region 1 - region 1                   =      5.86822006 eV
  Region 1 - region 2a (unrelaxed)      =     -1.50891887 eV
  Region 1 - 2a (relaxed - correction)  =     -0.23409999 eV
  Region 1 (Total)                      =      4.12520120 eV
  Region 2a                             =      0.11679816 eV
  Region 2b                             =     -0.42997002 eV
--------------------------------------------------------------------------------
  Total defect energy                   =      3.81202934 eV
--------------------------------------------------------------------------------

  Largest displacement in region 2 =   0.0217 Angstroms

  Final coordinates of region 1 :

--------------------------------------------------------------------------------
   No.  Atomic        x           y           z          Radius      Charge
        Label       (Angs)      (Angs)      (Angs)       (Angs)       (e) 
--------------------------------------------------------------------------------
     1  Na    c     2.226987    2.137907    0.089079    0.000000    1.000000
     2  O     c     2.226987    2.198660    2.264589    0.000000    1.443000
     3  Cl    c     4.568234    0.045667   -0.058366    0.000000    0.996000
     4  Cl    c    -0.114260    0.045667   -0.058366    0.000000    0.996000
     5  Na    c     4.378943    1.857146    2.244639    0.000000    1.000000
     6  Na    c     0.075031    1.857146    2.244639    0.000000    1.000000
     7  O     c     2.226987    2.201644   -2.201538    0.000000    1.443000
     8  O     c     2.226987   -2.186343    2.215040    0.000000    1.443000
     9  Na    c     2.226987    1.736781    4.395728    0.000000    1.000000
    10  Na    c     2.226987   -1.618620    0.102599    0.000000    1.000000
    11  Na    c     2.226987    0.002989   -2.597127    0.000000    1.000000
    12  Na    c     2.226987    4.377555    2.452752    0.000000    1.000000
    13  Cl    c     4.535846   -0.009372    4.594347    0.000000    0.996000
    14  Cl    c    -0.081872   -0.009372    4.594347    0.000000    0.996000
    15  Cl    c     4.444098    4.503946   -0.093581    0.000000    0.996000
    16  Cl    c     0.009876    4.503946   -0.093581    0.000000    0.996000
    17  Na    c     4.456892    2.196165   -2.244339    0.000000    1.000000
    18  Na    c    -0.002918    2.196165   -2.244339    0.000000    1.000000
    19  Na    c     4.386809   -1.880668    2.216965    0.000000    1.000000
    20  Na    c     0.067165   -1.880668    2.216965    0.000000    1.000000
    21  O     c    -2.183975    2.208454    2.220840    0.000000    1.443000
    22  O     c     6.637948    2.208454    2.220840    0.000000    1.443000
    23  Na    c    -2.454902    0.003302    1.824764    0.000000    1.000000
    24  Na    c     6.908876    0.003302    1.824764    0.000000    1.000000
    25  O     c     2.226987   -2.195757   -2.146308    0.000000    1.443000
    26  Na    c     2.226987   -1.901461    4.376981    0.000000    1.000000
    27  Na    c    -2.114511    2.595497    0.000806    0.000000    1.000000
    28  Na    c     6.568485    2.595497    0.000806    0.000000    1.000000
    29  Na    c     2.226987    4.428984   -2.041277    0.000000    1.000000
    30  Cl    c     4.484968    4.569595    4.542800    0.000000    0.996000
    31  Cl    c    -0.030994    4.569595    4.542800    0.000000    0.996000
    32  Na    c     4.454782   -2.195493   -2.168560    0.000000    1.000000
    33  Na    c    -0.000808   -2.195493   -2.168560    0.000000    1.000000
    34  O     c     2.226987    2.222953    6.636530    0.000000    1.443000
    35  O     c     2.226987    6.662809    2.246052    0.000000    1.443000
    36  O     c    -2.237592    2.234967   -2.232377    0.000000    1.443000
    37  O     c     6.691566    2.234967   -2.232377    0.000000    1.443000
    38  O     c    -2.191796   -2.198200    2.221261    0.000000    1.443000
    39  O     c     6.645770   -2.198200    2.221261    0.000000    1.443000
    40  Na    c     2.226987    2.549591   -4.431827    0.000000    1.000000
    41  Na    c     2.226987    6.591643    0.019432    0.000000    1.000000
    42  Na    c    -2.279338    1.836941    4.439782    0.000000    1.000000
    43  Na    c     6.733311    1.836941    4.439782    0.000000    1.000000
    44  Na    c    -2.194742   -2.602750    0.004517    0.000000    1.000000
    45  Na    c     6.648716   -2.602750    0.004517    0.000000    1.000000
    46  Na    c     2.226987    0.010083    7.048398    0.000000    1.000000
    47  Na    c     2.226987   -4.361274    2.080374    0.000000    1.000000
    48  Na    c    -2.248934    0.009125   -1.864635    0.000000    1.000000
    49  Na    c     6.702908    0.009125   -1.864635    0.000000    1.000000
    50  Na    c    -2.015833    4.417306    2.600565    0.000000    1.000000
    51  Na    c     6.469807    4.417306    2.600565    0.000000    1.000000
    52  Cl    c     4.460535    0.010018   -4.471559    0.000000    0.996000
    53  Cl    c    -0.006561    0.010018   -4.471559    0.000000    0.996000
    54  Cl    c     4.530281   -4.531876   -0.032903    0.000000    0.996000
    55  Cl    c    -0.076307   -4.531876   -0.032903    0.000000    0.996000
    56  Na    c     4.455371    2.290467    6.596056    0.000000    1.000000
    57  Na    c    -0.001398    2.290467    6.596056    0.000000    1.000000
    58  Na    c     4.446969    6.749336    2.226933    0.000000    1.000000
    59  Na    c     0.007004    6.749336    2.226933    0.000000    1.000000
    60  O     c     2.226987    6.667239   -2.223991    0.000000    1.443000
    61  O     c     2.226987   -2.197152    6.644931    0.000000    1.443000
    62  O     c    -2.233384   -2.216433   -2.223927    0.000000    1.443000
    63  O     c     6.687357   -2.216433   -2.223927    0.000000    1.443000
    64  Na    c     2.226987    6.976069    4.460203    0.000000    1.000000
    65  Na    c     2.226987   -2.596256   -4.379232    0.000000    1.000000
    66  Na    c    -2.261844   -1.865281    4.444911    0.000000    1.000000
    67  Na    c     6.715818   -1.865281    4.444911    0.000000    1.000000
    68  Na    c     2.226987    4.438445    6.275923    0.000000    1.000000
    69  Na    c     2.226987   -4.404139   -1.721569    0.000000    1.000000
    70  Na    c    -2.206021    4.445799   -2.615317    0.000000    1.000000
    71  Na    c     6.659995    4.445799   -2.615317    0.000000    1.000000
    72  Cl    c     4.432239    4.479521   -4.489104    0.000000    0.996000
    73  Cl    c     0.021735    4.479521   -4.489104    0.000000    0.996000
    74  Cl    c     4.481101   -4.535945    4.559746    0.000000    0.996000
    75  Cl    c    -0.027127   -4.535945    4.559746    0.000000    0.996000
    76  Na    c     4.457419    6.632223   -2.200992    0.000000    1.000000
    77  Na    c    -0.003445    6.632223   -2.200992    0.000000    1.000000
    78  Na    c     4.454908   -2.277926    6.613368    0.000000    1.000000
    79  Na    c    -0.000934   -2.277926    6.613368    0.000000    1.000000
    80  Cl    c     8.958372    0.008717   -0.081475    0.000000    0.996000
    81  Cl    c    -4.504399    0.008717   -0.081475    0.000000    0.996000
    82  Na    c     8.874891    2.441540    2.193435    0.000000    1.000000
    83  Na    c    -4.420917    2.441540    2.193435    0.000000    1.000000
    84  O     c    -2.221925    6.643862    2.214418    0.000000    1.443000
    85  O     c     6.675899    6.643862    2.214418    0.000000    1.443000
    86  Na    c    -2.205054    6.309539   -0.006431    0.000000    1.000000
    87  Na    c     6.659028    6.309539   -0.006431    0.000000    1.000000
    88  Na    c    -1.981155   -4.412425    2.540769    0.000000    1.000000
    89  Na    c     6.435128   -4.412425    2.540769    0.000000    1.000000
    90  O     c     6.689492    2.233512    6.665167    0.000000    1.443000
    91  O     c    -2.235518    2.233512    6.665167    0.000000    1.443000
    92  Na    c     6.742405    1.869082   -4.441535    0.000000    1.000000
    93  Na    c    -2.288432    1.869082   -4.441535    0.000000    1.000000
    94  Na    c     6.547570    0.010801    7.024228    0.000000    1.000000
    95  Na    c    -2.093597    0.010801    7.024228    0.000000    1.000000
    96  Cl    c     8.950845   -0.009998    4.443466    0.000000    0.996000
    97  Cl    c    -4.496871   -0.009998    4.443466    0.000000    0.996000
    98  Cl    c     8.922625    4.463672   -0.018261    0.000000    0.996000
    99  Cl    c    -4.468651    4.463672   -0.018261    0.000000    0.996000
   100  Na    c     8.908729    2.248864   -2.118271    0.000000    1.000000
   101  Na    c    -4.454756    2.248864   -2.118271    0.000000    1.000000
   102  Na    c     8.878824   -2.447717    2.239412    0.000000    1.000000
   103  Na    c    -4.424850   -2.447717    2.239412    0.000000    1.000000
   104  O     c     2.226987    6.663672    6.681865    0.000000    1.443000
   105  O     c    -2.237099    6.672176   -2.230042    0.000000    1.443000
   106  O     c     6.691073    6.672176   -2.230042    0.000000    1.443000
   107  O     c    -2.235830   -2.209054    6.670840    0.000000    1.443000
   108  O     c     6.689804   -2.209054    6.670840    0.000000    1.443000
   109  Na    c     2.226987    6.504804   -4.447836    0.000000    1.000000
   110  Na    c    -2.191571    6.997908    4.435955    0.000000    1.000000
   111  Na    c     6.645545    6.997908    4.435955    0.000000    1.000000
   112  Na    c    -2.222167   -1.887852   -4.438050    0.000000    1.000000
   113  Na    c     6.676141   -1.887852   -4.438050    0.000000    1.000000
   114  Na    c     2.226987   -4.425698    6.434925    0.000000    1.000000
   115  Na    c    -2.314859    4.455101    6.344859    0.000000    1.000000
   116  Na    c     6.768833    4.455101    6.344859    0.000000    1.000000
   117  Na    c    -2.251306   -4.434719   -2.561684    0.000000    1.000000
   118  Na    c     6.705280   -4.434719   -2.561684    0.000000    1.000000
   119  O     c     2.226987    2.221882   -6.656694    0.000000    1.443000
   120  O     c     2.226987   -6.657199    2.199357    0.000000    1.443000
   121  Na    c     2.226987    2.522104    8.869634    0.000000    1.000000
   122  Na    c     2.226987   -6.965442   -0.004468    0.000000    1.000000
   123  Na    c     2.226987   -0.007626   -6.408000    0.000000    1.000000
   124  Na    c     2.226987    8.902505    2.059098    0.000000    1.000000
   125  Cl    c     4.469734   -4.469807   -4.489611    0.000000    0.996000
   126  Cl    c    -0.015760   -4.469807   -4.489611    0.000000    0.996000
   127  Na    c     4.460198    6.584173    6.665707    0.000000    1.000000
   128  Na    c    -0.006224    6.584173    6.665707    0.000000    1.000000
   129  Cl    c     4.444296    0.011847    8.971909    0.000000    0.996000
   130  Cl    c     0.009678    0.011847    8.971909    0.000000    0.996000
   131  Cl    c     4.453076    8.931429   -0.010632    0.000000    0.996000
   132  Cl    c     0.000897    8.931429   -0.010632    0.000000    0.996000
   133  Cl    c     8.934833    4.453670    4.422227    0.000000    0.996000
   134  Cl    c    -4.480859    4.453670    4.422227    0.000000    0.996000
   135  Na    c     4.453648    2.186261   -6.615433    0.000000    1.000000
   136  Na    c     0.000326    2.186261   -6.615433    0.000000    1.000000
   137  Na    c     4.446981   -6.743938    2.137988    0.000000    1.000000
   138  Na    c     0.006993   -6.743938    2.137988    0.000000    1.000000
   139  Na    c     8.910533   -2.190905   -2.190506    0.000000    1.000000
   140  Na    c    -4.456559   -2.190905   -2.190506    0.000000    1.000000
   141  O     c     2.226987   -2.233489   -6.626239    0.000000    1.443000
   142  O     c     2.226987   -6.633680   -2.213890    0.000000    1.443000
   143  Na    c     2.226987   -2.475368    8.879577    0.000000    1.000000
   144  Na    c     2.226987   -6.679477    4.429860    0.000000    1.000000
   145  Na    c     2.226987    4.442697   -6.897214    0.000000    1.000000
   146  Na    c     2.226987    8.885960   -2.244397    0.000000    1.000000
   147  Cl    c     4.471275    4.488835    8.952488    0.000000    0.996000
   148  Cl    c    -0.017301    4.488835    8.952488    0.000000    0.996000
   149  Cl    c     8.950379   -0.016491   -4.500285    0.000000    0.996000
   150  Cl    c    -4.496406   -0.016491   -4.500285    0.000000    0.996000
   151  Cl    c     8.943542   -4.463133   -0.020773    0.000000    0.996000
   152  Cl    c    -4.489569   -4.463133   -0.020773    0.000000    0.996000
   153  Na    c     4.450492   -2.210336   -6.623208    0.000000    1.000000
   154  Na    c     0.003481   -2.210336   -6.623208    0.000000    1.000000
   155  Na    c     8.905416    2.099627    6.697869    0.000000    1.000000
   156  Na    c    -4.451443    2.099627    6.697869    0.000000    1.000000
   157  Na    c     8.896595    6.496462    2.251699    0.000000    1.000000
   158  Na    c    -4.442621    6.496462    2.251699    0.000000    1.000000
   159  Cl    c     4.455841    8.948503    4.443815    0.000000    0.996000
   160  Cl    c    -0.001867    8.948503    4.443815    0.000000    0.996000
   161  Na    c     4.457939   -6.584042   -2.175661    0.000000    1.000000
   162  Na    c    -0.003965   -6.584042   -2.175661    0.000000    1.000000
   163  O     c    11.115846    2.225674    2.210913    0.000000    1.443000
   164  O     c    -6.661872    2.225674    2.210913    0.000000    1.443000
   165  Na    c    11.182822    2.603632    0.004140    0.000000    1.000000
   166  Na    c    -6.728848    2.603632    0.004140    0.000000    1.000000
   167  Na    c    10.988996    0.008502    1.889242    0.000000    1.000000
   168  Na    c    -6.535022    0.008502    1.889242    0.000000    1.000000
   169  O     c     6.694032    6.681214    6.664371    0.000000    1.443000
   170  O     c    -2.240058    6.681214    6.664371    0.000000    1.443000
   171  O     c     6.674729   -6.636854    2.225611    0.000000    1.443000
   172  O     c    -2.220755   -6.636854    2.225611    0.000000    1.443000
   173  O     c    -2.224803    2.219806   -6.661850    0.000000    1.443000
   174  O     c     6.678776    2.219806   -6.661850    0.000000    1.443000
   175  Na    c     6.684101    6.991766   -4.439281    0.000000    1.000000
   176  Na    c    -2.230127    6.991766   -4.439281    0.000000    1.000000
   177  Na    c     6.721208   -6.416317   -0.002301    0.000000    1.000000
   178  Na    c    -2.267234   -6.416317   -0.002301    0.000000    1.000000
   179  Na    c    -2.227505    2.528017    8.886404    0.000000    1.000000
   180  Na    c     6.681479    2.528017    8.886404    0.000000    1.000000
   181  Na    c     6.746530    8.875086    1.925778    0.000000    1.000000
   182  Na    c    -2.292556    8.875086    1.925778    0.000000    1.000000
   183  Na    c     6.741035   -4.440054    6.416151    0.000000    1.000000
   184  Na    c    -2.287061   -4.440054    6.416151    0.000000    1.000000
   185  Na    c    -2.273056    0.000193   -6.979361    0.000000    1.000000
   186  Na    c     6.727029    0.000193   -6.979361    0.000000    1.000000
   187  Cl    c     8.935961    4.470705   -4.498928    0.000000    0.996000
   188  Cl    c    -4.481987    4.470705   -4.498928    0.000000    0.996000
   189  Cl    c     8.960160   -4.448272    4.448756    0.000000    0.996000
   190  Cl    c    -4.506187   -4.448272    4.448756    0.000000    0.996000
   191  Na    c     8.909037    6.647326   -2.209921    0.000000    1.000000
   192  Na    c    -4.455063    6.647326   -2.209921    0.000000    1.000000
   193  Na    c     8.905976   -2.099701    6.709779    0.000000    1.000000
   194  Na    c    -4.452002   -2.099701    6.709779    0.000000    1.000000
   195  O     c    11.138703    2.235263   -2.212103    0.000000    1.443000
   196  O     c    -6.684730    2.235263   -2.212103    0.000000    1.443000
   197  O     c    11.114495   -2.205361    2.216321    0.000000    1.443000
   198  O     c    -6.660521   -2.205361    2.216321    0.000000    1.443000
   199  Na    c    11.110820    1.917925    4.433787    0.000000    1.000000
   200  Na    c    -6.656846    1.917925    4.433787    0.000000    1.000000
   201  Na    c    11.138213   -2.530929    0.004637    0.000000    1.000000
   202  Na    c    -6.684239   -2.530929    0.004637    0.000000    1.000000
   203  Na    c    11.166875    0.009601   -1.938937    0.000000    1.000000
   204  Na    c    -6.712901    0.009601   -1.938937    0.000000    1.000000
   205  Na    c    11.236815    4.437561    2.565347    0.000000    1.000000
   206  Na    c    -6.782841    4.437561    2.565347    0.000000    1.000000
   207  O     c     2.226987    6.666869   -6.682158    0.000000    1.443000
   208  O     c     2.226987   -6.657927    6.671430    0.000000    1.443000
   209  O     c     6.676503   -2.216949   -6.662694    0.000000    1.443000
   210  O     c    -2.222530   -2.216949   -6.662694    0.000000    1.443000
   211  O     c     6.687115   -6.660244   -2.235257    0.000000    1.443000
   212  O     c    -2.233142   -6.660244   -2.235257    0.000000    1.443000
   213  Na    c     2.226987    6.440970    8.893557    0.000000    1.000000
   214  Na    c     2.226987   -6.417174   -4.434638    0.000000    1.000000
   215  Na    c     6.673698   -2.478088    8.888251    0.000000    1.000000
   216  Na    c    -2.219725   -2.478088    8.888251    0.000000    1.000000
   217  Na    c     6.583406   -6.861225    4.443246    0.000000    1.000000
   218  Na    c    -2.129432   -6.861225    4.443246    0.000000    1.000000
   219  Na    c     2.226987    8.885844    6.892578    0.000000    1.000000
   220  Na    c     2.226987   -4.444080   -6.898515    0.000000    1.000000
   221  Na    c     6.644817    4.453980   -6.459555    0.000000    1.000000
   222  Na    c    -2.190844    4.453980   -6.459555    0.000000    1.000000
   223  Na    c     6.689840    8.894350   -1.965971    0.000000    1.000000
   224  Na    c    -2.235866    8.894350   -1.965971    0.000000    1.000000
   225  Cl    c     4.465294   -4.468361    8.946262    0.000000    0.996000
   226  Cl    c    -0.011321   -4.468361    8.946262    0.000000    0.996000
   227  Na    c     4.452097    6.682184   -6.660515    0.000000    1.000000
   228  Na    c     0.001877    6.682184   -6.660515    0.000000    1.000000
   229  Cl    c     4.448661    8.943014   -4.476393    0.000000    0.996000
   230  Cl    c     0.005313    8.943014   -4.476393    0.000000    0.996000
   231  Na    c     4.455353   -6.610435    6.689859    0.000000    1.000000
   232  Na    c    -0.001380   -6.610435    6.689859    0.000000    1.000000
   233  O     c     2.226987    2.240195   11.113285    0.000000    1.443000
   234  O     c     2.226987   11.131174    2.220812    0.000000    1.443000
   235  Na    c     2.226987    2.074850   -8.890127    0.000000    1.000000
   236  Na    c     2.226987   11.173437   -0.005340    0.000000    1.000000
   237  Na    c     2.226987    0.003683   11.002817    0.000000    1.000000
   238  Na    c     2.226987   -8.907066    2.327433    0.000000    1.000000
   239  O     c    11.141136   -2.215005   -2.212697    0.000000    1.443000
   240  O     c    -6.687162   -2.215005   -2.212697    0.000000    1.443000
[...]
    251 y         -2.226987     -2.203033     0.023954    Cartesian   -1.08
    251 z          2.226987      2.220080    -0.006907    Cartesian   -0.31
    252 x          4.453974      4.461902     0.007929    Cartesian    0.18
    252 y          0.000000      0.012575     0.012575    Cartesian    0.00
    252 z         -4.453974     -4.475660    -0.021686    Cartesian    0.49
    253 x          4.453974      4.551546     0.097572    Cartesian    2.19
    253 y         -4.453974     -4.551358    -0.097384    Cartesian    2.19
    253 z          0.000000     -0.060494    -0.060494    Cartesian    0.00
    254 x          2.226987      2.226987     0.000000    Cartesian    0.00
    254 y          6.680961      6.659113    -0.021847    Cartesian   -0.33
    254 z         -2.226987     -2.216667     0.010320    Cartesian   -0.46
    255 x          2.226987      2.226987     0.000000    Cartesian    0.00
    255 y         -2.226987     -2.212264     0.014723    Cartesian   -0.66
    255 z          6.680961      6.665217    -0.015744    Cartesian   -0.24
    256 x         -2.226987     -2.236645    -0.009658    Cartesian    0.43
    256 y         -2.226987     -2.219480     0.007507    Cartesian   -0.34
    256 z         -2.226987     -2.227374    -0.000387    Cartesian    0.02
    257 x          4.453974      4.432605    -0.021369    Cartesian   -0.48
    257 y          4.453974      4.479135     0.025161    Cartesian    0.56
    257 z         -4.453974     -4.489514    -0.035540    Cartesian    0.80
    258 x          4.453974      4.513979     0.060005    Cartesian    1.35
    258 y         -4.453974     -4.558563    -0.104589    Cartesian    2.35
    258 z          4.453974      4.587960     0.133986    Cartesian    3.01
    259 x          8.907948      8.952627     0.044680    Cartesian    0.50
    259 y          0.000000      0.009516     0.009516    Cartesian    0.00
    259 z          0.000000     -0.082588    -0.082588    Cartesian    0.00
    260 x         -2.226987     -2.213627     0.013360    Cartesian   -0.60
    260 y          6.680961      6.649990    -0.030970    Cartesian   -0.46
    260 z          2.226987      2.220416    -0.006571    Cartesian   -0.30
    261 x          6.680961      6.694588     0.013627    Cartesian    0.20
    261 y          2.226987      2.227884     0.000897    Cartesian    0.04
    261 z          6.680961      6.673333    -0.007627    Cartesian   -0.11
    262 x          8.907948      8.947395     0.039447    Cartesian    0.44
    262 y          0.000000     -0.005557    -0.005557    Cartesian    0.00
    262 z          4.453974      4.455362     0.001388    Cartesian    0.03
    263 x          8.907948      8.923338     0.015390    Cartesian    0.17
    263 y          4.453974      4.459588     0.005614    Cartesian    0.13
    263 z          0.000000     -0.012666    -0.012666    Cartesian    0.00
    264 x          2.226987      2.226987     0.000000    Cartesian    0.00
    264 y          6.680961      6.671554    -0.009406    Cartesian   -0.14
    264 z          6.680961      6.678937    -0.002023    Cartesian   -0.03
    265 x         -2.226987     -2.239809    -0.012822    Cartesian    0.58
    265 y          6.680961      6.676454    -0.004507    Cartesian   -0.07
    265 z         -2.226987     -2.241601    -0.014615    Cartesian    0.66
    266 x         -2.226987     -2.238395    -0.011408    Cartesian    0.51
    266 y         -2.226987     -2.206134     0.020853    Cartesian   -0.94
    266 z          6.680961      6.683507     0.002546    Cartesian    0.04
    267 x          2.226987      2.226987     0.000000    Cartesian    0.00
    267 y          2.226987      2.231982     0.004995    Cartesian    0.22
    267 z         -6.680961     -6.656597     0.024364    Cartesian   -0.36
    268 x          2.226987      2.226987     0.000000    Cartesian    0.00
    268 y         -6.680961     -6.706442    -0.025481    Cartesian    0.38
    268 z          2.226987      2.191743    -0.035244    Cartesian   -1.58
    269 x          4.453974      4.469237     0.015263    Cartesian    0.34
    269 y         -4.453974     -4.472028    -0.018055    Cartesian    0.41
    269 z         -4.453974     -4.497933    -0.043959    Cartesian    0.99
    270 x          4.453974      4.450790    -0.003184    Cartesian   -0.07
    270 y          0.000000      0.012557     0.012557    Cartesian    0.00
    270 z          8.907948      8.969641     0.061693    Cartesian    0.69
    271 x          4.453974      4.461355     0.007381    Cartesian    0.17
    271 y          8.907948      8.939274     0.031326    Cartesian    0.35
    271 z          0.000000     -0.005479    -0.005479    Cartesian    0.00
    272 x          8.907948      8.936395     0.028447    Cartesian    0.32
    272 y          4.453974      4.458268     0.004294    Cartesian    0.10
    272 z          4.453974      4.409613    -0.044361    Cartesian   -1.00
    273 x          2.226987      2.226987     0.000000    Cartesian    0.00
    273 y         -2.226987     -2.245375    -0.018388    Cartesian    0.83
    273 z         -6.680961     -6.637458     0.043502    Cartesian   -0.65
    274 x          2.226987      2.226987     0.000000    Cartesian    0.00
    274 y         -6.680961     -6.648722     0.032239    Cartesian   -0.48
    274 z         -2.226987     -2.193989     0.032997    Cartesian   -1.48
    275 x          4.453974      4.471175     0.017201    Cartesian    0.39
    275 y          4.453974      4.492204     0.038230    Cartesian    0.86
    275 z          8.907948      8.966572     0.058625    Cartesian    0.66
    276 x          8.907948      8.944013     0.036065    Cartesian    0.40
    276 y          0.000000     -0.014974    -0.014974    Cartesian    0.00
    276 z         -4.453974     -4.514297    -0.060323    Cartesian    1.35
    277 x          8.907948      8.945053     0.037105    Cartesian    0.42
    277 y         -4.453974     -4.451311     0.002663    Cartesian   -0.06
    277 z          0.000000     -0.017687    -0.017687    Cartesian    0.00
    278 x          4.453974      4.458583     0.004609    Cartesian    0.10
    278 y          8.907948      8.942368     0.034421    Cartesian    0.39
    278 z          4.453974      4.439663    -0.014310    Cartesian   -0.32
    279 x         11.134934     11.126640    -0.008294    Cartesian   -0.07
    279 y          2.226987      2.238565     0.011578    Cartesian    0.52
    279 z          2.226987      2.212290    -0.014697    Cartesian   -0.66
    280 x          6.680961      6.701316     0.020356    Cartesian    0.30
    280 y          6.680961      6.699222     0.018261    Cartesian    0.27
    280 z          6.680961      6.664048    -0.016912    Cartesian   -0.25
    281 x          6.680961      6.663386    -0.017575    Cartesian   -0.26
    281 y         -6.680961     -6.645272     0.035688    Cartesian   -0.53
    281 z          2.226987      2.239628     0.012641    Cartesian    0.57
    282 x         -2.226987     -2.228040    -0.001053    Cartesian    0.05
    282 y          2.226987      2.210790    -0.016196    Cartesian   -0.73
    282 z         -6.680961     -6.673326     0.007635    Cartesian   -0.11
    283 x          8.907948      8.936937     0.028989    Cartesian    0.33
    283 y          4.453974      4.479216     0.025243    Cartesian    0.57
    283 z         -4.453974     -4.495779    -0.041805    Cartesian    0.94
    284 x          8.907948      8.966768     0.058820    Cartesian    0.66
    284 y         -4.453974     -4.455449    -0.001475    Cartesian    0.03
    284 z          4.453974      4.438679    -0.015294    Cartesian   -0.34
    285 x         11.134934     11.146749     0.011815    Cartesian    0.11
    285 y          2.226987      2.247241     0.020254    Cartesian    0.91
    285 z         -2.226987     -2.214700     0.012287    Cartesian   -0.55
    286 x         11.134934     11.123665    -0.011269    Cartesian   -0.10
    286 y         -2.226987     -2.223792     0.003195    Cartesian   -0.14
    286 z          2.226987      2.210463    -0.016524    Cartesian   -0.74
    287 x          2.226987      2.226987     0.000000    Cartesian    0.00
    287 y          6.680961      6.665752    -0.015209    Cartesian   -0.23
    287 z         -6.680961     -6.694017    -0.013056    Cartesian    0.20
    288 x          2.226987      2.226987     0.000000    Cartesian    0.00
    288 y         -6.680961     -6.656917     0.024044    Cartesian   -0.36
    288 z          6.680961      6.666847    -0.014114    Cartesian   -0.21
    289 x          6.680961      6.678118    -0.002843    Cartesian   -0.04
    289 y         -2.226987     -2.210635     0.016352    Cartesian   -0.73
    289 z         -6.680961     -6.672036     0.008924    Cartesian   -0.13
    290 x          6.680961      6.692399     0.011438    Cartesian    0.17
    290 y         -6.680961     -6.666971     0.013989    Cartesian   -0.21
    290 z         -2.226987     -2.251638    -0.024651    Cartesian    1.11
    291 x          4.453974      4.468386     0.014412    Cartesian    0.32
    291 y         -4.453974     -4.459684    -0.005710    Cartesian    0.13
    291 z          8.907948      8.959722     0.051774    Cartesian    0.58
    292 x          4.453974      4.453958    -0.000015    Cartesian   -0.00
    292 y          8.907948      8.944975     0.037028    Cartesian    0.42
    292 z         -4.453974     -4.487891    -0.033917    Cartesian    0.76
    293 x          2.226987      2.226987     0.000000    Cartesian    0.00
    293 y          2.226987      2.258029     0.031042    Cartesian    1.39
    293 z         11.134934     11.121964    -0.012970    Cartesian   -0.12
    294 x          2.226987      2.226987     0.000000    Cartesian    0.00
    294 y         11.134934     11.123795    -0.011139    Cartesian   -0.10
    294 z          2.226987      2.209626    -0.017360    Cartesian   -0.78
    295 x         11.134934     11.145016     0.010081    Cartesian    0.09
    295 y         -2.226987     -2.228063    -0.001076    Cartesian    0.05
    295 z         -2.226987     -2.208326     0.018660    Cartesian   -0.84
    296 x          4.453974      4.420063    -0.033911    Cartesian   -0.76
    296 y          0.000000     -0.001166    -0.001166    Cartesian    0.00
    296 z         -8.907948     -8.934984    -0.027037    Cartesian    0.30
    297 x          4.453974      4.480137     0.026163    Cartesian    0.59
    297 y         -8.907948     -8.942107    -0.034159    Cartesian    0.38
    297 z          0.000000     -0.001316    -0.001316    Cartesian    0.00
    298 x          8.907948      8.949411     0.041463    Cartesian    0.47
    298 y         -4.453974     -4.474486    -0.020512    Cartesian    0.46
    298 z         -4.453974     -4.481886    -0.027912    Cartesian    0.63
    299 x          8.907948      8.964720     0.056773    Cartesian    0.64
    299 y          0.000000      0.006635     0.006635    Cartesian    0.00
    299 z          8.907948      8.893232    -0.014716    Cartesian   -0.17
    300 x          8.907948      8.918676     0.010729    Cartesian    0.12
    300 y          8.907948      8.981450     0.073502    Cartesian    0.83
    300 z          0.000000     -0.019059    -0.019059    Cartesian    0.00
    301 x          2.226987      2.226987     0.000000    Cartesian    0.00
    301 y         11.134934     11.134463    -0.000472    Cartesian   -0.00
    301 z         -2.226987     -2.232153    -0.005166    Cartesian    0.23
    302 x          2.226987      2.226987     0.000000    Cartesian    0.00
    302 y         -2.226987     -2.247483    -0.020496    Cartesian    0.92
    302 z         11.134934     11.120508    -0.014427    Cartesian   -0.13
    303 x         11.134934     11.139606     0.004672    Cartesian    0.04
    303 y          6.680961      6.651579    -0.029382    Cartesian   -0.44
    303 z          2.226987      2.236017     0.009030    Cartesian    0.41
    304 x          6.680961      6.695230     0.014270    Cartesian    0.21
    304 y         -6.680961     -6.691022    -0.010061    Cartesian    0.15
    304 z          6.680961      6.659210    -0.021750    Cartesian   -0.33
    305 x         11.134934     11.135767     0.000832    Cartesian    0.01
    305 y          2.226987      2.207718    -0.019269    Cartesian   -0.87
    305 z          6.680961      6.669189    -0.011771    Cartesian   -0.18
    306 x         -2.226987     -2.223810     0.003177    Cartesian   -0.14
    306 y          6.680961      6.708138     0.027177    Cartesian    0.41
    306 z         -6.680961     -6.659324     0.021637    Cartesian   -0.32
    307 x          4.453974      4.482599     0.028626    Cartesian    0.64
    307 y          4.453974      4.465895     0.011922    Cartesian    0.27
    307 z         -8.907948     -8.941933    -0.033986    Cartesian    0.38
    308 x          4.453974      4.444093    -0.009880    Cartesian   -0.22
    308 y         -8.907948     -8.941121    -0.033174    Cartesian    0.37
    308 z          4.453974      4.442020    -0.011954    Cartesian   -0.27
    309 x          8.907948      8.931662     0.023715    Cartesian    0.27
    309 y          4.453974      4.462317     0.008343    Cartesian    0.19
    309 z          8.907948      8.961826     0.053878    Cartesian    0.60
    310 x          8.907948      8.957063     0.049116    Cartesian    0.55
    310 y          8.907948      8.912003     0.004055    Cartesian    0.05
    310 z          4.453974      4.467558     0.013584    Cartesian    0.30
    311 x          6.680961      6.693294     0.012334    Cartesian    0.18
    311 y         11.134934     11.125802    -0.009132    Cartesian   -0.08
    311 z          2.226987      2.199386    -0.027601    Cartesian   -1.24
    312 x         -2.226987     -2.230392    -0.003405    Cartesian    0.15
    312 y          2.226987      2.252028     0.025041    Cartesian    1.12
    312 z         11.134934     11.123763    -0.011172    Cartesian   -0.10
    313 x         11.134934     11.137697     0.002762    Cartesian    0.02
    313 y          6.680961      6.663281    -0.017680    Cartesian   -0.26
    313 z         -2.226987     -2.248697    -0.021710    Cartesian    0.97
    314 x          2.226987      2.226987     0.000000    Cartesian    0.00
    314 y         -6.680961     -6.656245     0.024716    Cartesian   -0.37
    314 z         -6.680961     -6.692073    -0.011112    Cartesian    0.17
    315 x         11.134934     11.142305     0.007371    Cartesian    0.07
    315 y         -2.226987     -2.187156     0.039831    Cartesian   -1.79
    315 z          6.680961      6.691718     0.010758    Cartesian    0.16
    316 x         13.361921     13.419224     0.057302    Cartesian    0.43
    316 y          0.000000      0.003215     0.003215    Cartesian    0.00
    316 z          0.000000      0.013325     0.013325    Cartesian    0.00
    317 x          4.453974      4.470396     0.016422    Cartesian    0.37
    317 y          8.907948      8.968227     0.060279    Cartesian    0.68
    317 z          8.907948      8.920285     0.012338    Cartesian    0.14
    318 x          2.226987      2.226987     0.000000    Cartesian    0.00
    318 y          6.680961      6.673491    -0.007470    Cartesian   -0.11
    318 z         11.134934     11.135972     0.001038    Cartesian    0.01
    319 x          2.226987      2.226987     0.000000    Cartesian    0.00
    319 y         11.134934     11.125076    -0.009858    Cartesian   -0.09
    319 z          6.680961      6.691223     0.010263    Cartesian    0.15
    320 x          6.680961      6.684534     0.003574    Cartesian    0.05
    320 y         11.134934     11.146015     0.011080    Cartesian    0.10
    320 z         -2.226987     -2.212779     0.014208    Cartesian   -0.64
    321 x          6.680961      6.687935     0.006975    Cartesian    0.10
    321 y         -2.226987     -2.240979    -0.013993    Cartesian    0.63
    321 z         11.134934     11.116440    -0.018494    Cartesian   -0.17
    322 x          4.453974      4.460787     0.006814    Cartesian    0.15
    322 y         -4.453974     -4.469913    -0.015939    Cartesian    0.36
    322 z         -8.907948     -8.945970    -0.038023    Cartesian    0.43
    323 x          4.453974      4.465393     0.011419    Cartesian    0.26
    323 y         -8.907948     -8.954818    -0.046870    Cartesian    0.53
    323 z         -4.453974     -4.476509    -0.022535    Cartesian    0.51
    324 x          8.907948      8.917368     0.009420    Cartesian    0.11
    324 y         -4.453974     -4.458112    -0.004138    Cartesian    0.09
    324 z          8.907948      8.945655     0.037708    Cartesian    0.42
    325 x         13.361921     13.416730     0.054809    Cartesian    0.41
    325 y          0.000000      0.004292     0.004292    Cartesian    0.00
    325 z          4.453974      4.458856     0.004882    Cartesian    0.11
    326 x         13.361921     13.411912     0.049990    Cartesian    0.37
    326 y          4.453974      4.480283     0.026309    Cartesian    0.59
    326 z          0.000000     -0.008465    -0.008465    Cartesian    0.00
    327 x          8.907948      8.966344     0.058396    Cartesian    0.66
    327 y          8.907948      8.926951     0.019003    Cartesian    0.21
    327 z         -4.453974     -4.485601    -0.031627    Cartesian    0.71
    328 x         11.134934     11.133880    -0.001054    Cartesian   -0.01
    328 y          2.226987      2.213666    -0.013321    Cartesian   -0.60
    328 z         -6.680961     -6.693110    -0.012150    Cartesian    0.18
    329 x         11.134934     11.136742     0.001808    Cartesian    0.02
    329 y          6.680961      6.702326     0.021365    Cartesian    0.32
    329 z          6.680961      6.660989    -0.019972    Cartesian   -0.30
    330 x         11.134934     11.147988     0.013054    Cartesian    0.12
    330 y         -6.680961     -6.656452     0.024508    Cartesian   -0.37
    330 z          2.226987      2.251160     0.024173    Cartesian    1.09
    331 x          6.680961      6.683138     0.002177    Cartesian    0.03
    331 y         -6.680961     -6.699770    -0.018809    Cartesian    0.28
    331 z         -6.680961     -6.664558     0.016403    Cartesian   -0.25
--------------------------------------------------------------------------------


  Time to end of optimisation  =      159.3732 seconds


  Peak dynamic memory used =     101.61 MB 


  Timing analysis for GULP :

--------------------------------------------------------------------------------
  Task / Subroutine                                          Time (Seconds)
--------------------------------------------------------------------------------
  Calculation of reciprocal space energy and derivatives          0.0006
  Calculation of reciprocal space energy using symmetry           0.0009
  Calculation of real space energy and derivatives                0.0037
  Calculation of real space energy using symmetry                 0.0089
  Calculation for region 1 energy and derivatives (2-b)          92.0440
  Calculation for region 2a energy                               59.7953
  Calculation for region 2b energy                                0.0262
  Calculation and manipulation of Hessian matrix                  0.2341
  Calculation of matrix inversion                                 6.6581
  Symmetry generation of equivalent positions                     0.0045
--------------------------------------------------------------------------------
  Total CPU time                                                159.3733
--------------------------------------------------------------------------------


  Dump file written as Na3OCl.grs


  Job Finished at 17:33.10  1st March      2021                               

