********************************************************************************
*                       GENERAL UTILITY LATTICE PROGRAM                        *
*                                 Julian Gale                                  *
*                       Curtin Institute for Computation                       *
*                    School of Molecular and Life Sciences                     *
*                    Curtin University, Western Australia                      *
********************************************************************************
* Version = 5.2.0 * Last modified =  10th September 2020                       *
********************************************************************************
*  optimise     - perform optimisation run                                     *
*  conp         - constant pressure calculation                                *
*  property     - calculate properties for final geometry                      *
*  defect       - perform defect calculation after bulk run                    *
*  compare      - compare initial and final structures                         *
********************************************************************************

  Job Started  at 17:32.13  1st March      2021                               

  Number of CPUs =     1


  Total number of configurations input =      1

********************************************************************************
*  Input for Configuration =   1                                               *
********************************************************************************

  Formula = ClONa3                                                      

  Number of irreducible atoms/shells =       5


  Total number atoms/shells =       7

  Dimensionality = 3               :  Bulk   


  Symmetry :

  Crystal family                   :  Cubic       
  Crystal class  (Groth - 1921)    :  Cubic Hexakisoctahedral              

  Space group (centrosymmetric)    :  P M 3 M         

  Patterson group                  :  P m -3 m 

  Cartesian lattice vectors (Angstroms) :

        4.504000    0.000000    0.000000
        0.000000    4.504000    0.000000
        0.000000    0.000000    4.504000

  Cell parameters (Angstroms/Degrees):

  a =       4.5040    alpha =  90.0000
  b =       4.5040    beta  =  90.0000
  c =       4.5040    gamma =  90.0000

  Initial cell volume =          91.368216 Angs**3

  Temperature of configuration =   0.00     K 

  Pressure of configuration =         0.000 GPa 

  Fractional coordinates of asymmetric unit :

--------------------------------------------------------------------------------
   No.  Atomic       x           y          z         Charge      Occupancy
        Label      (Frac)      (Frac)     (Frac)        (e)         (Frac)  
--------------------------------------------------------------------------------
      1 Cl    c    0.000000    0.000000    0.000000     0.99600    1.000000    
      2 O     c    0.500000    0.500000    0.500000     1.44300    1.000000    
      3 Na    c    0.500000    0.500000    0.000000     1.00000    1.000000    
      4 Cl    s    0.000000    0.000000    0.000000    -1.99600    1.000000    
      5 O     s    0.500000    0.500000    0.500000    -3.44300    1.000000    
--------------------------------------------------------------------------------


  Constraints : 

--------------------------------------------------------------------------------
  Constraint no.      Unconstrained     Constrained    Coefficient    Offset
                         Variable         Variable
--------------------------------------------------------------------------------
           1              Strain 1        Strain 2       1.00000      0.0000
           2              Strain 1        Strain 3       1.00000      0.0000
--------------------------------------------------------------------------------


********************************************************************************
*  General input information                                                   *
********************************************************************************

  Species output for all configurations : 

--------------------------------------------------------------------------------
  Species    Type    Atomic    Atomic    Charge       Radii (Angs)     Library
                     Number     Mass       (e)     Cova   Ionic  VDW   Symbol
--------------------------------------------------------------------------------
    Na       Core       11      22.99   1.000000   0.970  0.000  2.300          
    O        Core        8      16.00   1.443000   0.730  0.000  1.360          
    O        Shell       8       0.00  -3.443000   0.730  0.000  1.360          
    Cl       Core       17      35.45   0.996000   0.990  0.000  1.650          
    Cl       Shell      17       0.00  -1.996000   0.990  0.000  1.650          
--------------------------------------------------------------------------------


  Lattice summation method               =    Ewald          (3-D)
                                         =    Parry          (2-D)
                                         =    Saunders et al (1-D)
  Accuracy factor for lattice sums       =   12.000


  Analytic derivatives to be used

  Time limit = Infinity

  Maximum range for interatomic potentials =    100000.000000 Angstroms

  General interatomic potentials :

--------------------------------------------------------------------------------
Atom  Types   Potential      Parameter       Value         Units   Cutoffs(Ang)
  1     2                                                            Min /  Max 
--------------------------------------------------------------------------------
O    c O    s Spring (c-s)  Spring k 2       20.486200    eV*Ang^-2 0.000  0.800
                            Spring k 4       0.0000000    eV*Ang^-4 
--------------------------------------------------------------------------------
Cl   c Cl   s Spring (c-s)  Spring k 2       10.001500    eV*Ang^-2 0.000  0.800
                            Spring k 4       0.0000000    eV*Ang^-4 
--------------------------------------------------------------------------------
Na   c Na   c Buckingham    Buckingham A     29281.710    eV        0.000 12.000
                            Buckingham rho  0.37200000E-01Ang       
                            Buckingham C     0.0000000    eV*Ang^6  
--------------------------------------------------------------------------------
Na   c O    s Buckingham    Buckingham A     602.40000    eV        0.000 12.000
                            Buckingham rho  0.34280000    Ang       
                            Buckingham C     0.0000000    eV*Ang^6  
--------------------------------------------------------------------------------
Na   c Cl   s Buckingham    Buckingham A     3515.6900    eV        0.000 12.000
                            Buckingham rho  0.27460000    Ang       
                            Buckingham C     0.0000000    eV*Ang^6  
--------------------------------------------------------------------------------
O    s O    s Buckingham    Buckingham A     25201.690    eV        0.000 12.000
                            Buckingham rho  0.16450000    Ang       
                            Buckingham C     13.190000    eV*Ang^6  
--------------------------------------------------------------------------------
O    s Cl   s Buckingham    Buckingham A     1105.8600    eV        0.000 12.000
                            Buckingham rho  0.31330000    Ang       
                            Buckingham C     62.200000    eV*Ang^6  
--------------------------------------------------------------------------------
Cl   s Cl   s Buckingham    Buckingham A     31408.750    eV        0.000 12.000
                            Buckingham rho  0.13660000    Ang       
                            Buckingham C     14.530000    eV*Ang^6  
--------------------------------------------------------------------------------

********************************************************************************
*  Output for configuration   1                                                *
********************************************************************************


  Components of energy : 

--------------------------------------------------------------------------------
  Interatomic potentials     =           5.33200327 eV    
  Monopole - monopole (real) =         -10.03624526 eV    
  Monopole - monopole (recip)=         -29.53581274 eV    
  Monopole - monopole (total)=         -39.57205800 eV    
--------------------------------------------------------------------------------
  Total lattice energy       =         -34.24005473 eV    
--------------------------------------------------------------------------------
  Total lattice energy       =           -3303.6419 kJ/(mole unit cells)
--------------------------------------------------------------------------------


  Number of variables =        1

  Maximum number of calculations  =          1000
  Maximum Hessian update interval =            10
  Maximum step size               =   1.000000000
  Maximum parameter tolerance     =   0.000010000
  Maximum function  tolerance     =   0.000010000
  Maximum gradient  tolerance     =   0.001000000
  Maximum gradient  component     =   0.010000000

  Symmetry constrained optimisation

  Symmetry used for second derivatives

  Cell parameters to be optimised using strains

  Newton-Raphson optimiser to be used

  BFGS hessian update to be used

  Lower half triangular hessian to be used

  Start of bulk optimisation :

  Cycle:      0 Energy:       -34.240055  Gnorm:      2.245244  CPU:    0.015
  ** Hessian calculated **
  Cycle:      1 Energy:       -34.252747  Gnorm:      0.013309  CPU:    0.019


  **** Optimisation achieved ****


  Final energy =     -34.25274716 eV
  Final Gnorm  =       0.00056121

  Components of energy : 

--------------------------------------------------------------------------------
  Interatomic potentials     =           5.76377683 eV    
  Monopole - monopole (real) =         -10.14897050 eV    
  Monopole - monopole (recip)=         -29.86755349 eV    
  Monopole - monopole (total)=         -40.01652399 eV    
--------------------------------------------------------------------------------
  Total lattice energy       =         -34.25274716 eV    
--------------------------------------------------------------------------------
  Total lattice energy       =           -3304.8665 kJ/(mole unit cells)
--------------------------------------------------------------------------------

  Final asymmetric unit coordinates :

--------------------------------------------------------------------------------
   No.  Atomic        x           y           z         Radius
        Label       (Frac)      (Frac)      (Frac)       (Angs) 
--------------------------------------------------------------------------------
     1  Cl    c     0.000000    0.000000    0.000000    0.000000
     2  O     c     0.500000    0.500000    0.500000    0.000000
     3  Na    c     0.500000    0.500000    0.000000    0.000000
     4  Cl    s     0.000000    0.000000    0.000000    0.000000
     5  O     s     0.500000    0.500000    0.500000    0.000000
--------------------------------------------------------------------------------

  Final Cartesian lattice vectors (Angstroms) :

        4.453974    0.000000    0.000000
        0.000000    4.453974    0.000000
        0.000000    0.000000    4.453974


  Final cell parameters and derivatives :

--------------------------------------------------------------------------------
       a            4.453974 Angstrom     dE/de1(xx)     0.000561 eV/strain
       b            4.453974 Angstrom     dE/de2(yy)     0.000000 eV/strain
       c            4.453974 Angstrom     dE/de3(zz)     0.000000 eV/strain
       alpha       90.000000 Degrees      dE/de4(yz)     0.000000 eV/strain
       beta        90.000000 Degrees      dE/de5(xz)     0.000000 eV/strain
       gamma       90.000000 Degrees      dE/de6(xy)     0.000000 eV/strain
--------------------------------------------------------------------------------

  Primitive cell volume =            88.357409 Angs**3

  Density of cell =      2.263141 g/cm**3

  Non-primitive cell volume =            88.357409 Angs**3


  Final internal derivatives :

--------------------------------------------------------------------------------
   No.  Atomic          a             b             c           Radius
        Label          (eV)          (eV)          (eV)        (eV/Angs)
--------------------------------------------------------------------------------
      1 Cl    c       0.000000      0.000000      0.000000      0.000000
      2 O     c       0.000000      0.000000      0.000000      0.000000
      3 Na    c       0.000000      0.000000      0.000000      0.000000
      4 Cl    s       0.000000      0.000000      0.000000      0.000000
      5 O     s       0.000000      0.000000      0.000000      0.000000
--------------------------------------------------------------------------------
  Maximum abs         0.000000      0.000000      0.000000      0.000000
--------------------------------------------------------------------------------

  Comparison of initial and final structures : 

--------------------------------------------------------------------------------
  Parameter   Initial value   Final value   Difference    Units      Percent
--------------------------------------------------------------------------------
    Volume        91.368216     88.357409    -3.010807    Angs**3     -3.30
    a              4.504000      4.453974    -0.050026    Angstroms   -1.11
    b              4.504000      4.453974    -0.050026    Angstroms   -1.11
    c              4.504000      4.453974    -0.050026    Angstroms   -1.11
    alpha         90.000000     90.000000     0.000000    Degrees      0.00
    beta          90.000000     90.000000     0.000000    Degrees      0.00
    gamma         90.000000     90.000000     0.000000    Degrees      0.00
      1 x          0.000000      0.000000     0.000000    Fractional   0.00
      1 y          0.000000      0.000000     0.000000    Fractional   0.00
      1 z          0.000000      0.000000     0.000000    Fractional   0.00
      2 x          0.500000      0.500000     0.000000    Fractional   0.00
      2 y          0.500000      0.500000     0.000000    Fractional   0.00
      2 z          0.500000      0.500000     0.000000    Fractional   0.00
      3 x          0.500000      0.500000     0.000000    Fractional   0.00
      3 y          0.500000      0.500000     0.000000    Fractional   0.00
      3 z          0.000000      0.000000     0.000000    Fractional   0.00
      4 x          0.000000      0.000000     0.000000    Fractional   0.00
      4 y          0.000000      0.000000     0.000000    Fractional   0.00
      4 z          0.000000      0.000000     0.000000    Fractional   0.00
      5 x          0.500000      0.500000     0.000000    Fractional   0.00
      5 y          0.500000      0.500000     0.000000    Fractional   0.00
      5 z          0.500000      0.500000     0.000000    Fractional   0.00
--------------------------------------------------------------------------------


  Born effective charge tensors : 

-------------------------------------------------------------------------------
  Atom             x           y             z
-------------------------------------------------------------------------------
    1 Cl    x      -1.4271      0.0000      0.0000
            y       0.0000     -1.4271      0.0000
            z       0.0000      0.0000     -1.4271
-------------------------------------------------------------------------------
    2 O     x      -1.6137     -0.0000     -0.0000
            y      -0.0000     -1.6137     -0.0000
            z      -0.0000     -0.0000     -1.6137
-------------------------------------------------------------------------------
    3 Na    x       0.8295     -0.0000     -0.0000
            y      -0.0000      0.8295      0.0000
            z      -0.0000      0.0000      1.3817
-------------------------------------------------------------------------------




  Elastic Constant Matrix: (Units=GPa)

-------------------------------------------------------------------------------
  Indices      1         2         3         4         5         6    
-------------------------------------------------------------------------------
       1     82.8226   21.5342   21.5342    0.0000   -0.0000   -0.0000
       2     21.5342   82.8226   21.5342   -0.0000    0.0000   -0.0000
       3     21.5342   21.5342   82.8226    0.0000    0.0000   -0.0000
       4      0.0000   -0.0000    0.0000   21.5346   -0.0000    0.0000
       5     -0.0000    0.0000    0.0000   -0.0000   21.5346    0.0000
       6     -0.0000   -0.0000   -0.0000    0.0000    0.0000   21.5346
-------------------------------------------------------------------------------


  Elastic Compliance Matrix: (Units=1/GPa)

-------------------------------------------------------------------------------
  Indices      1         2         3         4         5         6    
-------------------------------------------------------------------------------
       1    0.013525 -0.002791 -0.002791 -0.000000  0.000000  0.000000
       2   -0.002791  0.013525 -0.002791  0.000000 -0.000000  0.000000
       3   -0.002791 -0.002791  0.013525 -0.000000 -0.000000  0.000000
       4   -0.000000  0.000000 -0.000000  0.046437  0.000000 -0.000000
       5    0.000000 -0.000000 -0.000000  0.000000  0.046437 -0.000000
       6    0.000000  0.000000  0.000000 -0.000000 -0.000000  0.046437
-------------------------------------------------------------------------------

  Mechanical properties :

-------------------------------------------------------------------------------
  Convention :                    Reuss         Voigt         Hill
-------------------------------------------------------------------------------
  Bulk  Modulus (GPa)     =      41.96371      41.96371      41.96371
  Shear Modulus (GPa)     =      24.44079      25.17843      24.80961
-------------------------------------------------------------------------------
  Velocity S-wave (km/s)  =       3.28626       3.33548       3.31096
  Velocity P-wave (km/s)  =       5.73948       5.77721       5.75837
-------------------------------------------------------------------------------
  Compressibility (1/GPa) =    0.02383011
-------------------------------------------------------------------------------
  Stress axis :                     x             y             z
-------------------------------------------------------------------------------
  Youngs Moduli (GPa)     =      73.93539      73.93539      73.93539
-------------------------------------------------------------------------------
  Poissons Ratio (x)      =                     0.20635       0.20635
  Poissons Ratio (y)      =       0.20635                     0.20635
  Poissons Ratio (z)      =       0.20635       0.20635
-------------------------------------------------------------------------------


  Piezoelectric Strain Matrix: (Units=C/m**2)

-------------------------------------------------------------------------------
  Indices      1         2         3         4         5         6    
-------------------------------------------------------------------------------
       x     0.00000  -0.00000   0.00000   0.00000  -0.00000  -0.00000
       y    -0.00000  -0.00000  -0.00000  -0.00000   0.00000   0.00000
       z    -0.00000  -0.00000   0.00000   0.00000   0.00000   0.00000
-------------------------------------------------------------------------------


  Piezoelectric Stress Matrix: (Units=10**-11 C/N)

-------------------------------------------------------------------------------
  Indices      1         2         3         4         5         6    
-------------------------------------------------------------------------------
       x     0.00000  -0.00000  -0.00000   0.00000  -0.00000  -0.00000
       y    -0.00000   0.00000   0.00000  -0.00000   0.00000   0.00000
       z    -0.00000  -0.00000   0.00000   0.00000   0.00000   0.00000
-------------------------------------------------------------------------------


  Static dielectric constant tensor : 

-------------------------------------------------------------------------------
              x         y         z
-------------------------------------------------------------------------------
       x    28.60451  -0.00000  -0.00000
       y    -0.00000  28.60451  -0.00000
       z    -0.00000  -0.00000  28.60451
--------------------------------------------------------------------------------

  High frequency dielectric constant tensor : 

-------------------------------------------------------------------------------
              x         y         z
-------------------------------------------------------------------------------
       x     3.92296  -0.00000  -0.00000
       y    -0.00000   3.92296   0.00000
       z    -0.00000   0.00000   3.92296
-------------------------------------------------------------------------------

  Static refractive indices : 

-------------------------------------------------------------------------------
    1 =    5.34832      2 =    5.34832      3 =    5.34832
-------------------------------------------------------------------------------

  High frequency refractive indices : 

-------------------------------------------------------------------------------
    1 =    1.98065      2 =    1.98065      3 =    1.98065
-------------------------------------------------------------------------------


  Time to end of optimisation =       0.0285 seconds

********************************************************************************
*  Defect calculation for configuration   1 :                                  *
********************************************************************************

  Total number of defects =      3

  Total charge on defect  =  -1.00

  Defect centre is at   0.5000   0.2500   0.2500  Frac

  Region 1 radius =  12.0000      Number of ions =    575

  Number of symmetry inequivalent region 1 ions  =    331

  Region 2 radius =  16.0000      Number of ions =    818

  Number of symmetry inequivalent region 2a ions =    447

  Region 2a mode = 4 : screened electrostatics due to region 1 
                       neglect correction to region 1 forces from 2a
                       region 2a displacements based on defects only

  Region 2a ions will only interact with defects in region 1

  Vacancies:

--------------------------------------------------------------------------------
    Specification type     Symbol/Number         x          y          z
--------------------------------------------------------------------------------
    Fractional                               0.500000   0.500000   0.000000
    Fractional                               0.500000   0.000000   0.500000
--------------------------------------------------------------------------------

  Interstitials:

--------------------------------------------------------------------------------
    Specification type     Symbol/Number         x          y          z
--------------------------------------------------------------------------------
    Atom/Fractional         Na               0.500000   0.080000   0.420000
--------------------------------------------------------------------------------


  Symmetry reduced region 1 (Relative to defect centre) :

--------------------------------------------------------------------------------
   No.   Atomic       x            y             z       Radius  Multiplicity   
         Label      (Angs)       (Angs)        (Angs)    (Angs)     
--------------------------------------------------------------------------------
     1  Na    c      0.0000      -0.7572       0.7572    0.0000     1    Defect
     2  O     c      0.0000       1.1135 *     1.1135 *  0.0000     1          
     3  Cl    c      2.2270 *    -1.1135 *    -1.1135 *  0.0000     2          
     4  Na    c      2.2270 *     1.1135 *     1.1135 *  0.0000     2          
     5  O     c      0.0000       1.1135 *    -3.3405 *  0.0000     1          
     6  O     c      0.0000      -3.3405 *     1.1135 *  0.0000     1          
     7  Na    c      0.0000       1.1135 *     3.3405 *  0.0000     1          
     8  Na    c      0.0000      -3.3405 *    -1.1135 *  0.0000     1          
     9  Na    c      0.0000      -1.1135 *    -3.3405 *  0.0000     1          
    10  Na    c      0.0000       3.3405 *     1.1135 *  0.0000     1          
    11  Cl    c      2.2270 *    -1.1135 *     3.3405 *  0.0000     2          
    12  Cl    c      2.2270 *     3.3405 *    -1.1135 *  0.0000     2          
    13  Na    c      2.2270 *     1.1135 *    -3.3405 *  0.0000     2          
    14  Na    c      2.2270 *    -3.3405 *     1.1135 *  0.0000     2          
    15  O     c     -4.4540 *     1.1135 *     1.1135 *  0.0000     2          
    16  Na    c     -4.4540 *    -1.1135 *     1.1135 *  0.0000     2          
    17  O     c      0.0000      -3.3405 *    -3.3405 *  0.0000     1          
    18  Na    c      0.0000      -3.3405 *     3.3405 *  0.0000     1          
    19  Na    c     -4.4540 *     1.1135 *    -1.1135 *  0.0000     2          
    20  Na    c      0.0000       3.3405 *    -3.3405 *  0.0000     1          
    21  Cl    c      2.2270 *     3.3405 *     3.3405 *  0.0000     2          
    22  Na    c      2.2270 *    -3.3405 *    -3.3405 *  0.0000     2          
    23  O     c      0.0000       1.1135 *     5.5675 *  0.0000     1          
    24  O     c      0.0000       5.5675 *     1.1135 *  0.0000     1          
    25  O     c     -4.4540 *     1.1135 *    -3.3405 *  0.0000     2          
    26  O     c     -4.4540 *    -3.3405 *     1.1135 *  0.0000     2          
    27  Na    c      0.0000       1.1135 *    -5.5675 *  0.0000     1          
    28  Na    c      0.0000       5.5675 *    -1.1135 *  0.0000     1          
    29  Na    c     -4.4540 *     1.1135 *     3.3405 *  0.0000     2          
    30  Na    c     -4.4540 *    -3.3405 *    -1.1135 *  0.0000     2          
    31  Na    c      0.0000      -1.1135 *     5.5675 *  0.0000     1          
    32  Na    c      0.0000      -5.5675 *     1.1135 *  0.0000     1          
    33  Na    c     -4.4540 *    -1.1135 *    -3.3405 *  0.0000     2          
    34  Na    c     -4.4540 *     3.3405 *     1.1135 *  0.0000     2          
    35  Cl    c      2.2270 *    -1.1135 *    -5.5675 *  0.0000     2          
    36  Cl    c      2.2270 *    -5.5675 *    -1.1135 *  0.0000     2          
    37  Na    c      2.2270 *     1.1135 *     5.5675 *  0.0000     2          
    38  Na    c      2.2270 *     5.5675 *     1.1135 *  0.0000     2          
    39  O     c      0.0000       5.5675 *    -3.3405 *  0.0000     1          
    40  O     c      0.0000      -3.3405 *     5.5675 *  0.0000     1          
    41  O     c     -4.4540 *    -3.3405 *    -3.3405 *  0.0000     2          
    42  Na    c      0.0000       5.5675 *     3.3405 *  0.0000     1          
    43  Na    c      0.0000      -3.3405 *    -5.5675 *  0.0000     1          
    44  Na    c     -4.4540 *    -3.3405 *     3.3405 *  0.0000     2          
    45  Na    c      0.0000       3.3405 *     5.5675 *  0.0000     1          
    46  Na    c      0.0000      -5.5675 *    -3.3405 *  0.0000     1          
    47  Na    c     -4.4540 *     3.3405 *    -3.3405 *  0.0000     2          
    48  Cl    c      2.2270 *     3.3405 *    -5.5675 *  0.0000     2          
    49  Cl    c      2.2270 *    -5.5675 *     3.3405 *  0.0000     2          
    50  Na    c      2.2270 *     5.5675 *    -3.3405 *  0.0000     2          
    51  Na    c      2.2270 *    -3.3405 *     5.5675 *  0.0000     2          
    52  Cl    c      6.6810 *    -1.1135 *    -1.1135 *  0.0000     2          
    53  Na    c      6.6810 *     1.1135 *     1.1135 *  0.0000     2          
    54  O     c     -4.4540 *     5.5675 *     1.1135 *  0.0000     2          
    55  Na    c     -4.4540 *     5.5675 *    -1.1135 *  0.0000     2          
    56  Na    c     -4.4540 *    -5.5675 *     1.1135 *  0.0000     2          
    57  O     c      4.4540 *     1.1135 *     5.5675 *  0.0000     2          
    58  Na    c      4.4540 *     1.1135 *    -5.5675 *  0.0000     2          
    59  Na    c      4.4540 *    -1.1135 *     5.5675 *  0.0000     2          
    60  Cl    c      6.6810 *    -1.1135 *     3.3405 *  0.0000     2          
    61  Cl    c      6.6810 *     3.3405 *    -1.1135 *  0.0000     2          
    62  Na    c      6.6810 *     1.1135 *    -3.3405 *  0.0000     2          
    63  Na    c      6.6810 *    -3.3405 *     1.1135 *  0.0000     2          
    64  O     c      0.0000       5.5675 *     5.5675 *  0.0000     1          
    65  O     c     -4.4540 *     5.5675 *    -3.3405 *  0.0000     2          
    66  O     c     -4.4540 *    -3.3405 *     5.5675 *  0.0000     2          
    67  Na    c      0.0000       5.5675 *    -5.5675 *  0.0000     1          
    68  Na    c     -4.4540 *     5.5675 *     3.3405 *  0.0000     2          
    69  Na    c     -4.4540 *    -3.3405 *    -5.5675 *  0.0000     2          
    70  Na    c      0.0000      -5.5675 *     5.5675 *  0.0000     1          
    71  Na    c     -4.4540 *     3.3405 *     5.5675 *  0.0000     2          
    72  Na    c     -4.4540 *    -5.5675 *    -3.3405 *  0.0000     2          
    73  O     c      0.0000       1.1135 *    -7.7945 *  0.0000     1          
    74  O     c      0.0000      -7.7945 *     1.1135 *  0.0000     1          
    75  Na    c      0.0000       1.1135 *     7.7945 *  0.0000     1          
    76  Na    c      0.0000      -7.7945 *    -1.1135 *  0.0000     1          
    77  Na    c      0.0000      -1.1135 *    -7.7945 *  0.0000     1          
    78  Na    c      0.0000       7.7945 *     1.1135 *  0.0000     1          
    79  Cl    c      2.2270 *    -5.5675 *    -5.5675 *  0.0000     2          
    80  Na    c      2.2270 *     5.5675 *     5.5675 *  0.0000     2          
    81  Cl    c      2.2270 *    -1.1135 *     7.7945 *  0.0000     2          
    82  Cl    c      2.2270 *     7.7945 *    -1.1135 *  0.0000     2          
    83  Cl    c      6.6810 *     3.3405 *     3.3405 *  0.0000     2          
    84  Na    c      2.2270 *     1.1135 *    -7.7945 *  0.0000     2          
    85  Na    c      2.2270 *    -7.7945 *     1.1135 *  0.0000     2          
    86  Na    c      6.6810 *    -3.3405 *    -3.3405 *  0.0000     2          
    87  O     c      0.0000      -3.3405 *    -7.7945 *  0.0000     1          
    88  O     c      0.0000      -7.7945 *    -3.3405 *  0.0000     1          
    89  Na    c      0.0000      -3.3405 *     7.7945 *  0.0000     1          
    90  Na    c      0.0000      -7.7945 *     3.3405 *  0.0000     1          
    91  Na    c      0.0000       3.3405 *    -7.7945 *  0.0000     1          
    92  Na    c      0.0000       7.7945 *    -3.3405 *  0.0000     1          
    93  Cl    c      2.2270 *     3.3405 *     7.7945 *  0.0000     2          
    94  Cl    c      6.6810 *    -1.1135 *    -5.5675 *  0.0000     2          
    95  Cl    c      6.6810 *    -5.5675 *    -1.1135 *  0.0000     2          
    96  Na    c      2.2270 *    -3.3405 *    -7.7945 *  0.0000     2          
    97  Na    c      6.6810 *     1.1135 *     5.5675 *  0.0000     2          
    98  Na    c      6.6810 *     5.5675 *     1.1135 *  0.0000     2          
    99  Cl    c      2.2270 *     7.7945 *     3.3405 *  0.0000     2          
   100  Na    c      2.2270 *    -7.7945 *    -3.3405 *  0.0000     2          
   101  O     c      8.9079 *     1.1135 *     1.1135 *  0.0000     2          
   102  Na    c      8.9079 *     1.1135 *    -1.1135 *  0.0000     2          
   103  Na    c      8.9079 *    -1.1135 *     1.1135 *  0.0000     2          
   104  O     c      4.4540 *     5.5675 *     5.5675 *  0.0000     2          
   105  O     c      4.4540 *    -7.7945 *     1.1135 *  0.0000     2          
   106  O     c     -4.4540 *     1.1135 *    -7.7945 *  0.0000     2          
   107  Na    c      4.4540 *     5.5675 *    -5.5675 *  0.0000     2          
   108  Na    c      4.4540 *    -7.7945 *    -1.1135 *  0.0000     2          
   109  Na    c     -4.4540 *     1.1135 *     7.7945 *  0.0000     2          
   110  Na    c      4.4540 *     7.7945 *     1.1135 *  0.0000     2          
   111  Na    c      4.4540 *    -5.5675 *     5.5675 *  0.0000     2          
   112  Na    c     -4.4540 *    -1.1135 *    -7.7945 *  0.0000     2          
   113  Cl    c      6.6810 *     3.3405 *    -5.5675 *  0.0000     2          
   114  Cl    c      6.6810 *    -5.5675 *     3.3405 *  0.0000     2          
   115  Na    c      6.6810 *     5.5675 *    -3.3405 *  0.0000     2          
   116  Na    c      6.6810 *    -3.3405 *     5.5675 *  0.0000     2          
   117  O     c      8.9079 *     1.1135 *    -3.3405 *  0.0000     2          
   118  O     c      8.9079 *    -3.3405 *     1.1135 *  0.0000     2          
   119  Na    c      8.9079 *     1.1135 *     3.3405 *  0.0000     2          
   120  Na    c      8.9079 *    -3.3405 *    -1.1135 *  0.0000     2          
   121  Na    c      8.9079 *    -1.1135 *    -3.3405 *  0.0000     2          
   122  Na    c      8.9079 *     3.3405 *     1.1135 *  0.0000     2          
   123  O     c      0.0000       5.5675 *    -7.7945 *  0.0000     1          
   124  O     c      0.0000      -7.7945 *     5.5675 *  0.0000     1          
   125  O     c      4.4540 *    -3.3405 *    -7.7945 *  0.0000     2          
   126  O     c      4.4540 *    -7.7945 *    -3.3405 *  0.0000     2          
   127  Na    c      0.0000       5.5675 *     7.7945 *  0.0000     1          
   128  Na    c      0.0000      -7.7945 *    -5.5675 *  0.0000     1          
   129  Na    c      4.4540 *    -3.3405 *     7.7945 *  0.0000     2          
   130  Na    c      4.4540 *    -7.7945 *     3.3405 *  0.0000     2          
   131  Na    c      0.0000       7.7945 *     5.5675 *  0.0000     1          
   132  Na    c      0.0000      -5.5675 *    -7.7945 *  0.0000     1          
   133  Na    c      4.4540 *     3.3405 *    -7.7945 *  0.0000     2          
   134  Na    c      4.4540 *     7.7945 *    -3.3405 *  0.0000     2          
   135  Cl    c      2.2270 *    -5.5675 *     7.7945 *  0.0000     2          
   136  Na    c      2.2270 *     5.5675 *    -7.7945 *  0.0000     2          
   137  Cl    c      2.2270 *     7.7945 *    -5.5675 *  0.0000     2          
   138  Na    c      2.2270 *    -7.7945 *     5.5675 *  0.0000     2          
   139  O     c      0.0000       1.1135 *    10.0214 *  0.0000     1          
   140  O     c      0.0000      10.0214 *     1.1135 *  0.0000     1          
   141  Na    c      0.0000       1.1135 *   -10.0214 *  0.0000     1          
   142  Na    c      0.0000      10.0214 *    -1.1135 *  0.0000     1          
   143  Na    c      0.0000      -1.1135 *    10.0214 *  0.0000     1          
   144  Na    c      0.0000     -10.0214 *     1.1135 *  0.0000     1          
   145  O     c      8.9079 *    -3.3405 *    -3.3405 *  0.0000     2          
   146  Na    c      8.9079 *    -3.3405 *     3.3405 *  0.0000     2          
   147  Na    c      8.9079 *     3.3405 *    -3.3405 *  0.0000     2          
   148  Cl    c      2.2270 *    -1.1135 *   -10.0214 *  0.0000     2          
   149  Cl    c      2.2270 *   -10.0214 *    -1.1135 *  0.0000     2          
   150  Na    c      2.2270 *     1.1135 *    10.0214 *  0.0000     2          
   151  Na    c      2.2270 *    10.0214 *     1.1135 *  0.0000     2          
   152  Cl    c      6.6810 *    -5.5675 *    -5.5675 *  0.0000     2          
   153  Na    c      6.6810 *     5.5675 *     5.5675 *  0.0000     2          
   154  Cl    c      6.6810 *    -1.1135 *     7.7945 *  0.0000     2          
   155  Cl    c      6.6810 *     7.7945 *    -1.1135 *  0.0000     2          
   156  Na    c      6.6810 *     1.1135 *    -7.7945 *  0.0000     2          
   157  Na    c      6.6810 *    -7.7945 *     1.1135 *  0.0000     2          
   158  O     c      0.0000      10.0214 *    -3.3405 *  0.0000     1          
   159  O     c      0.0000      -3.3405 *    10.0214 *  0.0000     1          
   160  O     c      8.9079 *     5.5675 *     1.1135 *  0.0000     2          
   161  Na    c      0.0000      10.0214 *     3.3405 *  0.0000     1          
   162  Na    c      0.0000      -3.3405 *   -10.0214 *  0.0000     1          
   163  Na    c      8.9079 *     5.5675 *    -1.1135 *  0.0000     2          
   164  Na    c      0.0000       3.3405 *    10.0214 *  0.0000     1          
   165  Na    c      0.0000     -10.0214 *    -3.3405 *  0.0000     1          
   166  Na    c      8.9079 *    -5.5675 *     1.1135 *  0.0000     2          
   167  O     c      4.4540 *    -7.7945 *     5.5675 *  0.0000     2          
   168  O     c      8.9079 *     1.1135 *     5.5675 *  0.0000     2          
   169  O     c     -4.4540 *     5.5675 *    -7.7945 *  0.0000     2          
   170  Na    c      4.4540 *    -7.7945 *    -5.5675 *  0.0000     2          
   171  Na    c      8.9079 *     1.1135 *    -5.5675 *  0.0000     2          
   172  Na    c     -4.4540 *     5.5675 *     7.7945 *  0.0000     2          
   173  Na    c      4.4540 *     7.7945 *     5.5675 *  0.0000     2          
   174  Na    c      8.9079 *    -1.1135 *     5.5675 *  0.0000     2          
   175  Na    c     -4.4540 *    -5.5675 *    -7.7945 *  0.0000     2          
   176  Cl    c      2.2270 *     3.3405 *   -10.0214 *  0.0000     2          
   177  Na    c      2.2270 *    -3.3405 *    10.0214 *  0.0000     2          
   178  Cl    c      2.2270 *   -10.0214 *     3.3405 *  0.0000     2          
   179  Na    c      2.2270 *    10.0214 *    -3.3405 *  0.0000     2          
   180  Cl    c      6.6810 *     3.3405 *     7.7945 *  0.0000     2          
   181  Na    c      6.6810 *    -3.3405 *    -7.7945 *  0.0000     2          
   182  Cl    c      6.6810 *     7.7945 *     3.3405 *  0.0000     2          
   183  Na    c      6.6810 *    -7.7945 *    -3.3405 *  0.0000     2          
   184  O     c      4.4540 *    10.0214 *     1.1135 *  0.0000     2          
   185  O     c     -4.4540 *     1.1135 *    10.0214 *  0.0000     2          
   186  Na    c      4.4540 *    10.0214 *    -1.1135 *  0.0000     2          
   187  Na    c     -4.4540 *     1.1135 *   -10.0214 *  0.0000     2          
   188  Na    c      4.4540 *   -10.0214 *     1.1135 *  0.0000     2          
   189  Na    c     -4.4540 *    -1.1135 *    10.0214 *  0.0000     2          
   190  O     c      8.9079 *     5.5675 *    -3.3405 *  0.0000     2          
   191  Na    c      8.9079 *     5.5675 *     3.3405 *  0.0000     2          
   192  Na    c      8.9079 *    -5.5675 *    -3.3405 *  0.0000     2          
   193  O     c      0.0000      -7.7945 *    -7.7945 *  0.0000     1          
   194  O     c      8.9079 *    -3.3405 *     5.5675 *  0.0000     2          
   195  Na    c      0.0000      -7.7945 *     7.7945 *  0.0000     1          
   196  Na    c      8.9079 *    -3.3405 *    -5.5675 *  0.0000     2          
   197  Na    c      0.0000       7.7945 *    -7.7945 *  0.0000     1          
   198  Na    c      8.9079 *     3.3405 *     5.5675 *  0.0000     2          
   199  Cl    c     11.1349 *    -1.1135 *    -1.1135 *  0.0000     2          
   200  Na    c     11.1349 *     1.1135 *     1.1135 *  0.0000     2          
   201  Cl    c      2.2270 *     7.7945 *     7.7945 *  0.0000     2          
   202  Na    c      2.2270 *    -7.7945 *    -7.7945 *  0.0000     2          
   203  O     c      0.0000       5.5675 *    10.0214 *  0.0000     1          
   204  O     c      0.0000      10.0214 *     5.5675 *  0.0000     1          
   205  O     c      4.4540 *    10.0214 *    -3.3405 *  0.0000     2          
   206  O     c      4.4540 *    -3.3405 *    10.0214 *  0.0000     2          
   207  Na    c      0.0000       5.5675 *   -10.0214 *  0.0000     1          
   208  Na    c      0.0000      10.0214 *    -5.5675 *  0.0000     1          
   209  Na    c      4.4540 *    10.0214 *     3.3405 *  0.0000     2          
   210  Na    c      4.4540 *    -3.3405 *   -10.0214 *  0.0000     2          
   211  Na    c      0.0000      -5.5675 *    10.0214 *  0.0000     1          
   212  Na    c      0.0000     -10.0214 *     5.5675 *  0.0000     1          
   213  Na    c      4.4540 *     3.3405 *    10.0214 *  0.0000     2          
   214  Na    c      4.4540 *   -10.0214 *    -3.3405 *  0.0000     2          
   215  Cl    c      2.2270 *    -5.5675 *   -10.0214 *  0.0000     2          
   216  Cl    c      2.2270 *   -10.0214 *    -5.5675 *  0.0000     2          
   217  Cl    c      6.6810 *    -5.5675 *     7.7945 *  0.0000     2          
   218  Cl    c     11.1349 *    -1.1135 *     3.3405 *  0.0000     2          
   219  Cl    c     11.1349 *     3.3405 *    -1.1135 *  0.0000     2          
   220  Na    c      2.2270 *     5.5675 *    10.0214 *  0.0000     2          
   221  Na    c      2.2270 *    10.0214 *     5.5675 *  0.0000     2          
   222  Na    c      6.6810 *     5.5675 *    -7.7945 *  0.0000     2          
   223  Na    c     11.1349 *     1.1135 *    -3.3405 *  0.0000     2          
   224  Na    c     11.1349 *    -3.3405 *     1.1135 *  0.0000     2          
   225  Cl    c      6.6810 *     7.7945 *    -5.5675 *  0.0000     2          
   226  Na    c      6.6810 *    -7.7945 *     5.5675 *  0.0000     2          
   227  O     c      8.9079 *     1.1135 *    -7.7945 *  0.0000     2          
   228  O     c      8.9079 *     5.5675 *     5.5675 *  0.0000     2          
   229  O     c      8.9079 *    -7.7945 *     1.1135 *  0.0000     2          
   230  Na    c      8.9079 *     1.1135 *     7.7945 *  0.0000     2          
   231  Na    c      8.9079 *     5.5675 *    -5.5675 *  0.0000     2          
   232  Na    c      8.9079 *    -7.7945 *    -1.1135 *  0.0000     2          
   233  Na    c      8.9079 *    -1.1135 *    -7.7945 *  0.0000     2          
   234  Na    c      8.9079 *     7.7945 *     1.1135 *  0.0000     2          
   235  Na    c      8.9079 *    -5.5675 *     5.5675 *  0.0000     2          
   236  O     c      4.4540 *    -7.7945 *    -7.7945 *  0.0000     2          
   237  Na    c      4.4540 *    -7.7945 *     7.7945 *  0.0000     2          
   238  Na    c      4.4540 *     7.7945 *    -7.7945 *  0.0000     2          
   239  O     s      0.0000       1.1135 *     1.1135 *  0.0000     1          
   240  Cl    s      2.2270 *    -1.1135 *    -1.1135 *  0.0000     2          
   241  O     s      0.0000       1.1135 *    -3.3405 *  0.0000     1          
   242  O     s      0.0000      -3.3405 *     1.1135 *  0.0000     1          
   243  Cl    s      2.2270 *    -1.1135 *     3.3405 *  0.0000     2          
   244  Cl    s      2.2270 *     3.3405 *    -1.1135 *  0.0000     2          
   245  O     s     -4.4540 *     1.1135 *     1.1135 *  0.0000     2          
   246  O     s      0.0000      -3.3405 *    -3.3405 *  0.0000     1          
   247  Cl    s      2.2270 *     3.3405 *     3.3405 *  0.0000     2          
   248  O     s      0.0000       1.1135 *     5.5675 *  0.0000     1          
   249  O     s      0.0000       5.5675 *     1.1135 *  0.0000     1          
   250  O     s     -4.4540 *     1.1135 *    -3.3405 *  0.0000     2          
   251  O     s     -4.4540 *    -3.3405 *     1.1135 *  0.0000     2          
   252  Cl    s      2.2270 *    -1.1135 *    -5.5675 *  0.0000     2          
   253  Cl    s      2.2270 *    -5.5675 *    -1.1135 *  0.0000     2          
   254  O     s      0.0000       5.5675 *    -3.3405 *  0.0000     1          
   255  O     s      0.0000      -3.3405 *     5.5675 *  0.0000     1          
   256  O     s     -4.4540 *    -3.3405 *    -3.3405 *  0.0000     2          
   257  Cl    s      2.2270 *     3.3405 *    -5.5675 *  0.0000     2          
   258  Cl    s      2.2270 *    -5.5675 *     3.3405 *  0.0000     2          
   259  Cl    s      6.6810 *    -1.1135 *    -1.1135 *  0.0000     2          
   260  O     s     -4.4540 *     5.5675 *     1.1135 *  0.0000     2          
   261  O     s      4.4540 *     1.1135 *     5.5675 *  0.0000     2          
   262  Cl    s      6.6810 *    -1.1135 *     3.3405 *  0.0000     2          
   263  Cl    s      6.6810 *     3.3405 *    -1.1135 *  0.0000     2          
   264  O     s      0.0000       5.5675 *     5.5675 *  0.0000     1          
   265  O     s     -4.4540 *     5.5675 *    -3.3405 *  0.0000     2          
   266  O     s     -4.4540 *    -3.3405 *     5.5675 *  0.0000     2          
   267  O     s      0.0000       1.1135 *    -7.7945 *  0.0000     1          
   268  O     s      0.0000      -7.7945 *     1.1135 *  0.0000     1          
   269  Cl    s      2.2270 *    -5.5675 *    -5.5675 *  0.0000     2          
   270  Cl    s      2.2270 *    -1.1135 *     7.7945 *  0.0000     2          
   271  Cl    s      2.2270 *     7.7945 *    -1.1135 *  0.0000     2          
   272  Cl    s      6.6810 *     3.3405 *     3.3405 *  0.0000     2          
   273  O     s      0.0000      -3.3405 *    -7.7945 *  0.0000     1          
   274  O     s      0.0000      -7.7945 *    -3.3405 *  0.0000     1          
   275  Cl    s      2.2270 *     3.3405 *     7.7945 *  0.0000     2          
   276  Cl    s      6.6810 *    -1.1135 *    -5.5675 *  0.0000     2          
   277  Cl    s      6.6810 *    -5.5675 *    -1.1135 *  0.0000     2          
   278  Cl    s      2.2270 *     7.7945 *     3.3405 *  0.0000     2          
   279  O     s      8.9079 *     1.1135 *     1.1135 *  0.0000     2          
   280  O     s      4.4540 *     5.5675 *     5.5675 *  0.0000     2          
   281  O     s      4.4540 *    -7.7945 *     1.1135 *  0.0000     2          
   282  O     s     -4.4540 *     1.1135 *    -7.7945 *  0.0000     2          
   283  Cl    s      6.6810 *     3.3405 *    -5.5675 *  0.0000     2          
   284  Cl    s      6.6810 *    -5.5675 *     3.3405 *  0.0000     2          
   285  O     s      8.9079 *     1.1135 *    -3.3405 *  0.0000     2          
   286  O     s      8.9079 *    -3.3405 *     1.1135 *  0.0000     2          
   287  O     s      0.0000       5.5675 *    -7.7945 *  0.0000     1          
   288  O     s      0.0000      -7.7945 *     5.5675 *  0.0000     1          
   289  O     s      4.4540 *    -3.3405 *    -7.7945 *  0.0000     2          
   290  O     s      4.4540 *    -7.7945 *    -3.3405 *  0.0000     2          
   291  Cl    s      2.2270 *    -5.5675 *     7.7945 *  0.0000     2          
   292  Cl    s      2.2270 *     7.7945 *    -5.5675 *  0.0000     2          
   293  O     s      0.0000       1.1135 *    10.0214 *  0.0000     1          
   294  O     s      0.0000      10.0214 *     1.1135 *  0.0000     1          
   295  O     s      8.9079 *    -3.3405 *    -3.3405 *  0.0000     2          
   296  Cl    s      2.2270 *    -1.1135 *   -10.0214 *  0.0000     2          
   297  Cl    s      2.2270 *   -10.0214 *    -1.1135 *  0.0000     2          
   298  Cl    s      6.6810 *    -5.5675 *    -5.5675 *  0.0000     2          
   299  Cl    s      6.6810 *    -1.1135 *     7.7945 *  0.0000     2          
   300  Cl    s      6.6810 *     7.7945 *    -1.1135 *  0.0000     2          
   301  O     s      0.0000      10.0214 *    -3.3405 *  0.0000     1          
   302  O     s      0.0000      -3.3405 *    10.0214 *  0.0000     1          
   303  O     s      8.9079 *     5.5675 *     1.1135 *  0.0000     2          
   304  O     s      4.4540 *    -7.7945 *     5.5675 *  0.0000     2          
   305  O     s      8.9079 *     1.1135 *     5.5675 *  0.0000     2          
   306  O     s     -4.4540 *     5.5675 *    -7.7945 *  0.0000     2          
   307  Cl    s      2.2270 *     3.3405 *   -10.0214 *  0.0000     2          
   308  Cl    s      2.2270 *   -10.0214 *     3.3405 *  0.0000     2          
   309  Cl    s      6.6810 *     3.3405 *     7.7945 *  0.0000     2          
   310  Cl    s      6.6810 *     7.7945 *     3.3405 *  0.0000     2          
   311  O     s      4.4540 *    10.0214 *     1.1135 *  0.0000     2          
   312  O     s     -4.4540 *     1.1135 *    10.0214 *  0.0000     2          
   313  O     s      8.9079 *     5.5675 *    -3.3405 *  0.0000     2          
   314  O     s      0.0000      -7.7945 *    -7.7945 *  0.0000     1          
   315  O     s      8.9079 *    -3.3405 *     5.5675 *  0.0000     2          
   316  Cl    s     11.1349 *    -1.1135 *    -1.1135 *  0.0000     2          
   317  Cl    s      2.2270 *     7.7945 *     7.7945 *  0.0000     2          
   318  O     s      0.0000       5.5675 *    10.0214 *  0.0000     1          
   319  O     s      0.0000      10.0214 *     5.5675 *  0.0000     1          
   320  O     s      4.4540 *    10.0214 *    -3.3405 *  0.0000     2          
   321  O     s      4.4540 *    -3.3405 *    10.0214 *  0.0000     2          
   322  Cl    s      2.2270 *    -5.5675 *   -10.0214 *  0.0000     2          
   323  Cl    s      2.2270 *   -10.0214 *    -5.5675 *  0.0000     2          
   324  Cl    s      6.6810 *    -5.5675 *     7.7945 *  0.0000     2          
   325  Cl    s     11.1349 *    -1.1135 *     3.3405 *  0.0000     2          
   326  Cl    s     11.1349 *     3.3405 *    -1.1135 *  0.0000     2          
   327  Cl    s      6.6810 *     7.7945 *    -5.5675 *  0.0000     2          
   328  O     s      8.9079 *     1.1135 *    -7.7945 *  0.0000     2          
   329  O     s      8.9079 *     5.5675 *     5.5675 *  0.0000     2          
   330  O     s      8.9079 *    -7.7945 *     1.1135 *  0.0000     2          
   331  O     s      4.4540 *    -7.7945 *    -7.7945 *  0.0000     2          
--------------------------------------------------------------------------------

  Components of defect energy : 

--------------------------------------------------------------------------------
  Region 1 - region 1                   =      8.28561800 eV
  Region 1 - region 2a (unrelaxed)      =     -0.01894466 eV
  Region 1 - 2a (relaxed - correction)  =     -0.30533424 eV
  Region 1 (Total)                      =      7.96133910 eV
  Region 2a                             =      0.15258336 eV
  Region 2b                             =     -0.43067476 eV
--------------------------------------------------------------------------------
  Total defect energy                   =      7.68324770 eV
--------------------------------------------------------------------------------

  Largest displacement in region 2 =   0.0210 Angstroms


  Number of variables =      904

  Maximum number of calculations  =        1000
  Maximum Hessian update interval =          10
  Maximum step size               =   1.0000000
  Maximum parameter tolerance     =   0.0000100
  Maximum function  tolerance     =   0.0000100
  Maximum gradient  tolerance     =   0.0010000

  Symmetry adapted optimisation

  Symmetry to be used for second derivatives

  Newton-Raphson optimiser to be used

  BFGS hessian update to be used

  Lower half triangular hessian to be used

  Start of defect optimisation :

  Cycle:      0 Defect Energy:   7.683248  Gnorm:     0.021278  CPU:    2.736
  ** Hessian calculated **
  Cycle:      1 Defect Energy:   5.394783  Gnorm:     0.006096  CPU:    7.179
  Cycle:      2 Defect Energy:   5.068331  Gnorm:     0.003144  CPU:   10.298
  Cycle:      3 Defect Energy:   4.980289  Gnorm:     0.001970  CPU:   11.071
  Cycle:      4 Defect Energy:   4.916394  Gnorm:     0.001555  CPU:   14.769
  Cycle:      5 Defect Energy:   4.840904  Gnorm:     0.001477  CPU:   17.072
  Cycle:      6 Defect Energy:   4.748539  Gnorm:     0.001612  CPU:   18.125
  Cycle:      7 Defect Energy:   4.662838  Gnorm:     0.001640  CPU:   19.213
  Cycle:      8 Defect Energy:   4.590762  Gnorm:     0.001388  CPU:   20.259
  Cycle:      9 Defect Energy:   4.536934  Gnorm:     0.001234  CPU:   21.334
  Cycle:     10 Defect Energy:   4.489416  Gnorm:     0.001072  CPU:   22.468
  ** Hessian calculated **
  Cycle:     11 Defect Energy:   4.471592  Gnorm:     0.000996  CPU:   25.235
  Cycle:     12 Defect Energy:   4.448637  Gnorm:     0.000849  CPU:   26.219
  Cycle:     13 Defect Energy:   4.419787  Gnorm:     0.000811  CPU:   27.333
  Cycle:     14 Defect Energy:   4.382317  Gnorm:     0.000719  CPU:   28.334
  Cycle:     15 Defect Energy:   4.336610  Gnorm:     0.000814  CPU:   29.312
  Cycle:     16 Defect Energy:   4.285776  Gnorm:     0.000890  CPU:   30.318
  Cycle:     17 Defect Energy:   4.263341  Gnorm:     0.000768  CPU:   31.283
  Cycle:     18 Defect Energy:   4.248001  Gnorm:     0.000814  CPU:   32.331
  Cycle:     19 Defect Energy:   4.234245  Gnorm:     0.000687  CPU:   33.271
  Cycle:     20 Defect Energy:   4.220470  Gnorm:     0.000706  CPU:   34.200
  ** Hessian calculated **
  Cycle:     21 Defect Energy:   4.203258  Gnorm:     0.000594  CPU:   36.772
  Cycle:     22 Defect Energy:   4.183502  Gnorm:     0.000412  CPU:   37.673
  Cycle:     23 Defect Energy:   4.175433  Gnorm:     0.000284  CPU:   38.580
  Cycle:     24 Defect Energy:   4.172552  Gnorm:     0.000205  CPU:   39.466
  Cycle:     25 Defect Energy:   4.171923  Gnorm:     0.000156  CPU:   40.355
  ** Hessian calculated **
  Cycle:     26 Defect Energy:   4.169325  Gnorm:     0.000125  CPU:   42.838
  Cycle:     27 Defect Energy:   4.166870  Gnorm:     0.000218  CPU:   43.686
  Cycle:     28 Defect Energy:   4.165379  Gnorm:     0.000225  CPU:   44.548
  Cycle:     29 Defect Energy:   4.164328  Gnorm:     0.000158  CPU:   45.420
  Cycle:     30 Defect Energy:   4.163365  Gnorm:     0.000155  CPU:   46.298
  Cycle:     31 Defect Energy:   4.162483  Gnorm:     0.000129  CPU:   47.230
  Cycle:     32 Defect Energy:   4.161665  Gnorm:     0.000108  CPU:   48.823
  Cycle:     33 Defect Energy:   4.161077  Gnorm:     0.000098  CPU:   53.135
  ** Hessian calculated **
  Cycle:     34 Defect Energy:   4.160748  Gnorm:     0.000069  CPU:   56.006
  Cycle:     35 Defect Energy:   4.160556  Gnorm:     0.000048  CPU:   57.056
  Cycle:     36 Defect Energy:   4.160438  Gnorm:     0.000034  CPU:   58.101
  Cycle:     37 Defect Energy:   4.160369  Gnorm:     0.000024  CPU:   59.240
  Cycle:     38 Defect Energy:   4.160327  Gnorm:     0.000017  CPU:   60.229
  Cycle:     39 Defect Energy:   4.160301  Gnorm:     0.000012  CPU:   61.215
  Cycle:     40 Defect Energy:   4.160284  Gnorm:     0.000008  CPU:   62.260
  Cycle:     41 Defect Energy:   4.160274  Gnorm:     0.000006  CPU:   63.363


  **** Optimisation achieved ****


  Final defect energy  =        4.16026669
  Final defect Gnorm   =        0.00000401

  Components of defect energy : 

--------------------------------------------------------------------------------
  Region 1 - region 1                   =      5.81774722 eV
  Region 1 - region 2a (unrelaxed)      =     -1.11241282 eV
  Region 1 - 2a (relaxed - correction)  =     -0.23129463 eV
  Region 1 (Total)                      =      4.47403977 eV
  Region 2a                             =      0.11560502 eV
  Region 2b                             =     -0.42937810 eV
--------------------------------------------------------------------------------
  Total defect energy                   =      4.16026669 eV
--------------------------------------------------------------------------------

  Largest displacement in region 2 =   0.0210 Angstroms

  Final coordinates of region 1 :

--------------------------------------------------------------------------------
   No.  Atomic        x           y           z          Radius      Charge
        Label       (Angs)      (Angs)      (Angs)       (Angs)       (e) 
--------------------------------------------------------------------------------
     1  Na    c     2.226987    0.356318    1.870669    0.000000    1.000000
     2  O     c     2.226987    2.441680    2.259864    0.000000    1.443000
     3  Cl    c     4.566546   -0.055344    0.030470    0.000000    0.996000
     4  Cl    c    -0.112572   -0.055344    0.030470    0.000000    0.996000
     5  Na    c     4.392066    2.361838    1.817579    0.000000    1.000000
     6  Na    c     0.061908    2.361838    1.817579    0.000000    1.000000
     7  O     c     2.226987    2.241724   -2.171543    0.000000    1.443000
     8  O     c     2.226987   -2.066043    2.207167    0.000000    1.443000
     9  Na    c     2.226987    2.437438    4.424466    0.000000    1.000000
    10  Na    c     2.226987   -2.530698    0.018375    0.000000    1.000000
    11  Na    c     2.226987    0.090674   -1.768439    0.000000    1.000000
    12  Na    c     2.226987    4.504413    1.652246    0.000000    1.000000
    13  Cl    c     4.554265   -0.052753    4.508407    0.000000    0.996000
    14  Cl    c    -0.100291   -0.052753    4.508407    0.000000    0.996000
    15  Cl    c     4.604387    4.600473   -0.023787    0.000000    0.996000
    16  Cl    c    -0.150413    4.600473   -0.023787    0.000000    0.996000
    17  Na    c     4.383678    2.228296   -1.790065    0.000000    1.000000
    18  Na    c     0.070296    2.228296   -1.790065    0.000000    1.000000
    19  Na    c     4.435023   -2.117992    2.225708    0.000000    1.000000
    20  Na    c     0.018951   -2.117992    2.225708    0.000000    1.000000
    21  O     c    -2.192050    2.252270    2.215219    0.000000    1.443000
    22  O     c     6.646024    2.252270    2.215219    0.000000    1.443000
    23  Na    c    -2.183231    0.021900    2.268733    0.000000    1.000000
    24  Na    c     6.637205    0.021900    2.268733    0.000000    1.000000
    25  O     c     2.226987   -2.163979   -2.203947    0.000000    1.443000
    26  Na    c     2.226987   -1.751424    4.415650    0.000000    1.000000
    27  Na    c    -2.621008    2.245289    0.004727    0.000000    1.000000
    28  Na    c     7.074982    2.245289    0.004727    0.000000    1.000000
    29  Na    c     2.226987    4.404351   -1.850289    0.000000    1.000000
    30  Cl    c     4.514010    4.546436    4.570629    0.000000    0.996000
    31  Cl    c    -0.060036    4.546436    4.570629    0.000000    0.996000
    32  Na    c     4.450768   -2.151151   -2.251655    0.000000    1.000000
    33  Na    c     0.003206   -2.151151   -2.251655    0.000000    1.000000
    34  O     c     2.226987    2.236932    6.684575    0.000000    1.443000
    35  O     c     2.226987    6.700206    2.193532    0.000000    1.443000
    36  O     c    -2.188743    2.238875   -2.206649    0.000000    1.443000
    37  O     c     6.642717    2.238875   -2.206649    0.000000    1.443000
    38  O     c    -2.222648   -2.219114    2.232609    0.000000    1.443000
    39  O     c     6.676622   -2.219114    2.232609    0.000000    1.443000
    40  Na    c     2.226987    2.196543   -4.355429    0.000000    1.000000
    41  Na    c     2.226987    7.202752   -0.002582    0.000000    1.000000
    42  Na    c    -1.798186    2.304019    4.423507    0.000000    1.000000
    43  Na    c     6.252160    2.304019    4.423507    0.000000    1.000000
    44  Na    c    -2.191423   -2.214496    0.004349    0.000000    1.000000
    45  Na    c     6.645397   -2.214496    0.004349    0.000000    1.000000
    46  Na    c     2.226987    0.019310    6.886209    0.000000    1.000000
    47  Na    c     2.226987   -4.333379    2.591602    0.000000    1.000000
    48  Na    c    -2.254249    0.016657   -2.154197    0.000000    1.000000
    49  Na    c     6.708223    0.016657   -2.154197    0.000000    1.000000
    50  Na    c    -2.291982    4.474018    2.202188    0.000000    1.000000
    51  Na    c     6.745955    4.474018    2.202188    0.000000    1.000000
    52  Cl    c     4.533147   -0.081908   -4.518517    0.000000    0.996000
    53  Cl    c    -0.079173   -0.081908   -4.518517    0.000000    0.996000
    54  Cl    c     4.487754   -4.453171   -0.000402    0.000000    0.996000
    55  Cl    c    -0.033781   -4.453171   -0.000402    0.000000    0.996000
    56  Na    c     4.454465    2.205242    6.881685    0.000000    1.000000
    57  Na    c    -0.000491    2.205242    6.881685    0.000000    1.000000
    58  Na    c     4.461561    6.686685    2.084176    0.000000    1.000000
    59  Na    c    -0.007588    6.686685    2.084176    0.000000    1.000000
    60  O     c     2.226987    6.667012   -2.184730    0.000000    1.443000
    61  O     c     2.226987   -2.209162    6.634284    0.000000    1.443000
    62  O     c    -2.230577   -2.220480   -2.227122    0.000000    1.443000
    63  O     c     6.684551   -2.220480   -2.227122    0.000000    1.443000
    64  Na    c     2.226987    6.267988    4.408406    0.000000    1.000000
    65  Na    c     2.226987   -1.781930   -4.419871    0.000000    1.000000
    66  Na    c    -2.178166   -2.332304    4.454422    0.000000    1.000000
    67  Na    c     6.632140   -2.332304    4.454422    0.000000    1.000000
    68  Na    c     2.226987    4.460619    6.928427    0.000000    1.000000
    69  Na    c     2.226987   -4.392396   -2.586059    0.000000    1.000000
    70  Na    c    -2.174138    4.461900   -2.258595    0.000000    1.000000
    71  Na    c     6.628112    4.461900   -2.258595    0.000000    1.000000
    72  Cl    c     4.512983    4.530750   -4.524092    0.000000    0.996000
    73  Cl    c    -0.059010    4.530750   -4.524092    0.000000    0.996000
    74  Cl    c     4.495986   -4.469821    4.462063    0.000000    0.996000
    75  Cl    c    -0.042012   -4.469821    4.462063    0.000000    0.996000
    76  Na    c     4.457993    6.706140   -2.089143    0.000000    1.000000
    77  Na    c    -0.004019    6.706140   -2.089143    0.000000    1.000000
    78  Na    c     4.454271   -2.141259    6.647331    0.000000    1.000000
    79  Na    c    -0.000297   -2.141259    6.647331    0.000000    1.000000
    80  Cl    c     8.920934   -0.042049    0.002375    0.000000    0.996000
    81  Cl    c    -4.466960   -0.042049    0.002375    0.000000    0.996000
    82  Na    c     8.866560    2.217034    2.622652    0.000000    1.000000
    83  Na    c    -4.412586    2.217034    2.622652    0.000000    1.000000
    84  O     c    -2.238482    6.702362    2.232063    0.000000    1.443000
    85  O     c     6.692455    6.702362    2.232063    0.000000    1.443000
    86  Na    c    -2.431484    6.663787   -0.003039    0.000000    1.000000
    87  Na    c     6.885457    6.663787   -0.003039    0.000000    1.000000
    88  Na    c    -2.172492   -4.440441    2.165789    0.000000    1.000000
    89  Na    c     6.626466   -4.440441    2.165789    0.000000    1.000000
    90  O     c     6.684551    2.225323    6.641569    0.000000    1.443000
    91  O     c    -2.230577    2.225323    6.641569    0.000000    1.443000
    92  Na    c     6.268820    2.178295   -4.420589    0.000000    1.000000
    93  Na    c    -1.814847    2.178295   -4.420589    0.000000    1.000000
    94  Na    c     6.734463    0.000313    6.488539    0.000000    1.000000
    95  Na    c    -2.280489    0.000313    6.488539    0.000000    1.000000
    96  Cl    c     8.951598   -0.031217    4.465630    0.000000    0.996000
    97  Cl    c    -4.497624   -0.031217    4.465630    0.000000    0.996000
    98  Cl    c     8.936246    4.501044    0.011055    0.000000    0.996000
    99  Cl    c    -4.482272    4.501044    0.011055    0.000000    0.996000
   100  Na    c     8.861886    2.261385   -2.619276    0.000000    1.000000
   101  Na    c    -4.407912    2.261385   -2.619276    0.000000    1.000000
   102  Na    c     8.896613   -2.243561    2.229691    0.000000    1.000000
   103  Na    c    -4.442639   -2.243561    2.229691    0.000000    1.000000
   104  O     c     2.226987    6.683522    6.645115    0.000000    1.443000
   105  O     c    -2.238610    6.696397   -2.232414    0.000000    1.443000
   106  O     c     6.692583    6.696397   -2.232414    0.000000    1.443000
   107  O     c    -2.235062   -2.229796    6.691061    0.000000    1.443000
   108  O     c     6.689035   -2.229796    6.691061    0.000000    1.443000
   109  Na    c     2.226987    6.371459   -4.410422    0.000000    1.000000
   110  Na    c    -2.066296    6.662747    4.458292    0.000000    1.000000
   111  Na    c     6.520269    6.662747    4.458292    0.000000    1.000000
   112  Na    c    -2.273072   -2.105151   -4.452477    0.000000    1.000000
   113  Na    c     6.727046   -2.105151   -4.452477    0.000000    1.000000
   114  Na    c     2.226987   -4.427919    6.356717    0.000000    1.000000
   115  Na    c    -2.181580    4.453721    6.702152    0.000000    1.000000
   116  Na    c     6.635554    4.453721    6.702152    0.000000    1.000000
   117  Na    c    -2.186659   -4.442759   -2.284061    0.000000    1.000000
   118  Na    c     6.640633   -4.442759   -2.284061    0.000000    1.000000
   119  O     c     2.226987    2.214666   -6.651808    0.000000    1.443000
   120  O     c     2.226987   -6.607520    2.227884    0.000000    1.443000
   121  Na    c     2.226987    2.234403    8.933316    0.000000    1.000000
   122  Na    c     2.226987   -6.323571    0.007106    0.000000    1.000000
   123  Na    c     2.226987    0.001170   -6.904182    0.000000    1.000000
   124  Na    c     2.226987    8.899460    2.603920    0.000000    1.000000
   125  Cl    c     4.485971   -4.494610   -4.462601    0.000000    0.996000
   126  Cl    c    -0.031997   -4.494610   -4.462601    0.000000    0.996000
   127  Na    c     4.448254    6.654166    6.710899    0.000000    1.000000
   128  Na    c     0.005720    6.654166    6.710899    0.000000    1.000000
   129  Cl    c     4.443795    0.005253    8.932047    0.000000    0.996000
   130  Cl    c     0.010179    0.005253    8.932047    0.000000    0.996000
   131  Cl    c     4.507298    8.968727   -0.002961    0.000000    0.996000
   132  Cl    c    -0.053324    8.968727   -0.002961    0.000000    0.996000
   133  Cl    c     8.942843    4.509564    4.460383    0.000000    0.996000
   134  Cl    c    -4.488869    4.509564    4.460383    0.000000    0.996000
   135  Na    c     4.442910    2.253329   -6.854985    0.000000    1.000000
   136  Na    c     0.011064    2.253329   -6.854985    0.000000    1.000000
   137  Na    c     4.445745   -6.629642    2.181763    0.000000    1.000000
   138  Na    c     0.008229   -6.629642    2.181763    0.000000    1.000000
   139  Na    c     8.905548   -2.278868   -2.173941    0.000000    1.000000
   140  Na    c    -4.451574   -2.278868   -2.173941    0.000000    1.000000
   141  O     c     2.226987   -2.225547   -6.641786    0.000000    1.443000
   142  O     c     2.226987   -6.633935   -2.214086    0.000000    1.443000
   143  Na    c     2.226987   -2.413621    8.871264    0.000000    1.000000
   144  Na    c     2.226987   -6.946958    4.433346    0.000000    1.000000
   145  Na    c     2.226987    4.436609   -6.763514    0.000000    1.000000
   146  Na    c     2.226987    8.886142   -2.576728    0.000000    1.000000
   147  Cl    c     4.447271    4.454497    8.931615    0.000000    0.996000
   148  Cl    c     0.006703    4.454497    8.931615    0.000000    0.996000
   149  Cl    c     8.949092   -0.028911   -4.464763    0.000000    0.996000
   150  Cl    c    -4.495118   -0.028911   -4.464763    0.000000    0.996000
   151  Cl    c     8.920784   -4.463889    0.000065    0.000000    0.996000
   152  Cl    c    -4.466810   -4.463889    0.000065    0.000000    0.996000
   153  Na    c     4.453929   -2.229200   -6.590914    0.000000    1.000000
   154  Na    c     0.000045   -2.229200   -6.590914    0.000000    1.000000
   155  Na    c     8.900076    2.275550    6.394153    0.000000    1.000000
   156  Na    c    -4.446102    2.275550    6.394153    0.000000    1.000000
   157  Na    c     8.910346    6.738955    2.434528    0.000000    1.000000
   158  Na    c    -4.456372    6.738955    2.434528    0.000000    1.000000
   159  Cl    c     4.482682    8.962286    4.472788    0.000000    0.996000
   160  Cl    c    -0.028709    8.962286    4.472788    0.000000    0.996000
   161  Na    c     4.447977   -6.641872   -2.170274    0.000000    1.000000
   162  Na    c     0.005997   -6.641872   -2.170274    0.000000    1.000000
   163  O     c    11.092881    2.227808    2.217084    0.000000    1.443000
   164  O     c    -6.638907    2.227808    2.217084    0.000000    1.443000
   165  Na    c    10.795897    2.225105   -0.002313    0.000000    1.000000
   166  Na    c    -6.341924    2.225105   -0.002313    0.000000    1.000000
   167  Na    c    11.083679    0.005266    2.195499    0.000000    1.000000
   168  Na    c    -6.629705    0.005266    2.195499    0.000000    1.000000
   169  O     c     6.686920    6.688862    6.687944    0.000000    1.443000
   170  O     c    -2.232946    6.688862    6.687944    0.000000    1.443000
   171  O     c     6.676436   -6.672620    2.226039    0.000000    1.443000
   172  O     c    -2.222463   -6.672620    2.226039    0.000000    1.443000
   173  O     c    -2.217333    2.229306   -6.642201    0.000000    1.443000
   174  O     c     6.671306    2.229306   -6.642201    0.000000    1.443000
   175  Na    c     6.517073    6.718437   -4.456201    0.000000    1.000000
   176  Na    c    -2.063099    6.718437   -4.456201    0.000000    1.000000
   177  Na    c     6.788307   -6.658122   -0.000004    0.000000    1.000000
   178  Na    c    -2.334333   -6.658122   -0.000004    0.000000    1.000000
   179  Na    c    -2.399580    2.128040    8.872864    0.000000    1.000000
   180  Na    c     6.853554    2.128040    8.872864    0.000000    1.000000
   181  Na    c     6.682112    8.917903    2.205539    0.000000    1.000000
   182  Na    c    -2.228138    8.917903    2.205539    0.000000    1.000000
   183  Na    c     6.602707   -4.448482    6.797090    0.000000    1.000000
   184  Na    c    -2.148733   -4.448482    6.797090    0.000000    1.000000
   185  Na    c    -2.160275    0.003345   -6.726286    0.000000    1.000000
   186  Na    c     6.614248    0.003345   -6.726286    0.000000    1.000000
   187  Cl    c     8.951452    4.492679   -4.478062    0.000000    0.996000
   188  Cl    c    -4.497478    4.492679   -4.478062    0.000000    0.996000
   189  Cl    c     8.940259   -4.469256    4.458588    0.000000    0.996000
   190  Cl    c    -4.486285   -4.469256    4.458588    0.000000    0.996000
   191  Na    c     8.906290    6.675972   -2.428992    0.000000    1.000000
   192  Na    c    -4.452316    6.675972   -2.428992    0.000000    1.000000
   193  Na    c     8.907642   -2.305634    6.661442    0.000000    1.000000
   194  Na    c    -4.453668   -2.305634    6.661442    0.000000    1.000000
   195  O     c    11.089762    2.227769   -2.219687    0.000000    1.443000
   196  O     c    -6.635788    2.227769   -2.219687    0.000000    1.443000
   197  O     c    11.132883   -2.222307    2.226976    0.000000    1.443000
   198  O     c    -6.678909   -2.222307    2.226976    0.000000    1.443000
   199  Na    c    11.384389    2.201277    4.430401    0.000000    1.000000
   200  Na    c    -6.930415    2.201277    4.430401    0.000000    1.000000
   201  Na    c    11.136115   -2.260410    0.003174    0.000000    1.000000
   202  Na    c    -6.682142   -2.260410    0.003174    0.000000    1.000000
   203  Na    c    11.061807    0.002080   -2.241967    0.000000    1.000000
   204  Na    c    -6.607833    0.002080   -2.241967    0.000000    1.000000
   205  Na    c    11.064889    4.453642    2.228254    0.000000    1.000000
   206  Na    c    -6.610915    4.453642    2.228254    0.000000    1.000000
   207  O     c     2.226987    6.669345   -6.648347    0.000000    1.443000
   208  O     c     2.226987   -6.658927    6.655970    0.000000    1.443000
   209  O     c     6.686935   -2.233861   -6.682818    0.000000    1.443000
   210  O     c    -2.232961   -2.233861   -6.682818    0.000000    1.443000
   211  O     c     6.675741   -6.678599   -2.223538    0.000000    1.443000
   212  O     c    -2.221767   -6.678599   -2.223538    0.000000    1.443000
   213  Na    c     2.226987    6.851107    8.885256    0.000000    1.000000
   214  Na    c     2.226987   -6.897885   -4.433583    0.000000    1.000000
   215  Na    c     6.706271   -2.106923    8.907322    0.000000    1.000000
   216  Na    c    -2.252298   -2.106923    8.907322    0.000000    1.000000
   217  Na    c     6.618978   -6.612703    4.458777    0.000000    1.000000
   218  Na    c    -2.165004   -6.612703    4.458777    0.000000    1.000000
   219  Na    c     2.226987    8.896481    6.454323    0.000000    1.000000
   220  Na    c     2.226987   -4.444760   -6.422740    0.000000    1.000000
   221  Na    c     6.690222    4.455671   -6.592458    0.000000    1.000000
   222  Na    c    -2.236248    4.455671   -6.592458    0.000000    1.000000
   223  Na    c     6.707846    8.915295   -2.207966    0.000000    1.000000
   224  Na    c    -2.253872    8.915295   -2.207966    0.000000    1.000000
   225  Cl    c     4.452951   -4.464192    8.939024    0.000000    0.996000
   226  Cl    c     0.001023   -4.464192    8.939024    0.000000    0.996000
   227  Na    c     4.447392    6.632739   -6.702539    0.000000    1.000000
   228  Na    c     0.006582    6.632739   -6.702539    0.000000    1.000000
   229  Cl    c     4.471758    8.957043   -4.463641    0.000000    0.996000
   230  Cl    c    -0.017784    8.957043   -4.463641    0.000000    0.996000
   231  Na    c     4.445663   -6.696611    6.682360    0.000000    1.000000
   232  Na    c     0.008311   -6.696611    6.682360    0.000000    1.000000
   233  O     c     2.226987    2.226380   11.147109    0.000000    1.443000
   234  O     c     2.226987   11.119683    2.235590    0.000000    1.443000
   235  Na    c     2.226987    2.268913   -8.914322    0.000000    1.000000
   236  Na    c     2.226987   10.985185    0.000481    0.000000    1.000000
   237  Na    c     2.226987   -0.008717   11.075175    0.000000    1.000000
   238  Na    c     2.226987   -8.870850    2.043684    0.000000    1.000000
   239  O     c    11.137381   -2.227406   -2.221076    0.000000    1.443000
   240  O     c    -6.683407   -2.227406   -2.221076    0.000000    1.443000
   241  Na    c    11.139384   -2.195272    4.454036    0.000000    1.000000
   242  Na    c    -6.685410   -2.195272    4.454036    0.000000    1.000000
   243  Na    c    11.115208    4.451873   -2.201504    0.000000    1.000000
   244  Na    c    -6.661234    4.451873   -2.201504    0.000000    1.000000
   245  Cl    c     4.457657    0.014096   -8.920826    0.000000    0.996000
   246  Cl    c    -0.003683    0.014096   -8.920826    0.000000    0.996000
   247  Cl    c     4.440434   -8.955190   -0.002992    0.000000    0.996000
   248  Cl    c     0.013540   -8.955190   -0.002992    0.000000    0.996000
   249  Na    c     4.460334    2.221035   11.084598    0.000000    1.000000
   250  Na    c    -0.006360    2.221035   11.084598    0.000000    1.000000
   251  Na    c     4.451276   11.121788    2.216668    0.000000    1.000000
   252  Na    c     0.002698   11.121788    2.216668    0.000000    1.000000
   253  Cl    c     8.930200   -4.481462   -4.445358    0.000000    0.996000
   254  Cl    c    -4.476227   -4.481462   -4.445358    0.000000    0.996000
   255  Na    c     8.906227    6.684251    6.597399    0.000000    1.000000
   256  Na    c    -4.452253    6.684251    6.597399    0.000000    1.000000
   257  Cl    c     8.925119   -0.010663    8.942994    0.000000    0.996000
   258  Cl    c    -4.471145   -0.010663    8.942994    0.000000    0.996000
   259  Cl    c     8.925030    8.938075    0.008870    0.000000    0.996000
   260  Cl    c    -4.471056    8.938075    0.008870    0.000000    0.996000
   261  Na    c     8.896275    2.203301   -6.484300    0.000000    1.000000
   262  Na    c    -4.442301    2.203301   -6.484300    0.000000    1.000000
   263  Na    c     8.903664   -6.651052    2.309914    0.000000    1.000000
   264  Na    c    -4.449690   -6.651052    2.309914    0.000000    1.000000
   265  O     c     2.226987   11.115030   -2.232104    0.000000    1.443000
   266  O     c     2.226987   -2.235707   11.119553    0.000000    1.443000
   267  O     c    11.137029    6.682569    2.228236    0.000000    1.443000
   268  O     c    -6.683055    6.682569    2.228236    0.000000    1.443000
   269  Na    c     2.226987   11.306089    4.457584    0.000000    1.000000
   270  Na    c     2.226987   -2.369811   -8.882844    0.000000    1.000000
   271  Na    c    10.990687    6.716267    0.003092    0.000000    1.000000
   272  Na    c    -6.536713    6.716267    0.003092    0.000000    1.000000
   273  Na    c     2.226987    4.460244   11.090221    0.000000    1.000000
   274  Na    c     2.226987   -8.881493   -2.048108    0.000000    1.000000
   275  Na    c    11.150882   -4.450977    2.258876    0.000000    1.000000
   276  Na    c    -6.696908   -4.450977    2.258876    0.000000    1.000000
   277  O     c     6.675893   -6.676734    6.687291    0.000000    1.443000
   278  O     c    -2.221919   -6.676734    6.687291    0.000000    1.443000
   279  O     c    11.125831    2.229577    6.653682    0.000000    1.443000
   280  O     c    -6.671857    2.229577    6.653682    0.000000    1.443000
   281  O     c    -2.226837    6.688930   -6.685638    0.000000    1.443000
   282  O     c     6.680811    6.688930   -6.685638    0.000000    1.443000
   283  Na    c     6.627719   -6.725676   -4.452526    0.000000    1.000000
   284  Na    c    -2.173745   -6.725676   -4.452526    0.000000    1.000000
   285  Na    c    11.351052    2.248202   -4.438451    0.000000    1.000000
   286  Na    c    -6.897078    2.248202   -4.438451    0.000000    1.000000
   287  Na    c    -2.273252    6.714538    8.904775    0.000000    1.000000
   288  Na    c     6.727226    6.714538    8.904775    0.000000    1.000000
   289  Na    c     6.683040    8.906854    6.677757    0.000000    1.000000
   290  Na    c    -2.229066    8.906854    6.677757    0.000000    1.000000
   291  Na    c    11.092325    0.002653    6.681845    0.000000    1.000000
   292  Na    c    -6.638351    0.002653    6.681845    0.000000    1.000000
   293  Na    c    -2.265240   -4.451946   -6.615017    0.000000    1.000000
   294  Na    c     6.719214   -4.451946   -6.615017    0.000000    1.000000
   295  Cl    c     4.437782    4.458353   -8.939557    0.000000    0.996000
   296  Cl    c     0.016192    4.458353   -8.939557    0.000000    0.996000
   297  Na    c     4.451590   -2.230967   11.111005    0.000000    1.000000
   298  Na    c     0.002383   -2.230967   11.111005    0.000000    1.000000
   299  Cl    c     4.473812   -8.917418    4.467497    0.000000    0.996000
   300  Cl    c    -0.019838   -8.917418    4.467497    0.000000    0.996000
   301  Na    c     4.452676   11.104755   -2.224546    0.000000    1.000000
   302  Na    c     0.001298   11.104755   -2.224546    0.000000    1.000000
   303  Cl    c     8.920747    4.454474    8.929289    0.000000    0.996000
   304  Cl    c    -4.466773    4.454474    8.929289    0.000000    0.996000
[...]
    251 y         -2.226987     -2.229628    -0.002641    Cartesian    0.12
    251 z          2.226987      2.231012     0.004025    Cartesian    0.18
    252 x          4.453974      4.555999     0.102025    Cartesian    2.29
    252 y          0.000000     -0.109651    -0.109651    Cartesian    0.00
    252 z         -4.453974     -4.536204    -0.082230    Cartesian    1.85
    253 x          4.453974      4.479574     0.025600    Cartesian    0.57
    253 y         -4.453974     -4.462966    -0.008992    Cartesian    0.20
    253 z          0.000000      0.004238     0.004238    Cartesian    0.00
    254 x          2.226987      2.226987     0.000000    Cartesian    0.00
    254 y          6.680961      6.697615     0.016654    Cartesian    0.25
    254 z         -2.226987     -2.181436     0.045551    Cartesian   -2.05
    255 x          2.226987      2.226987     0.000000    Cartesian    0.00
    255 y         -2.226987     -2.188957     0.038030    Cartesian   -1.71
    255 z          6.680961      6.643571    -0.037390    Cartesian   -0.56
    256 x         -2.226987     -2.234776    -0.007789    Cartesian    0.35
    256 y         -2.226987     -2.218294     0.008693    Cartesian   -0.39
    256 z         -2.226987     -2.225410     0.001577    Cartesian   -0.07
    257 x          4.453974      4.541564     0.087590    Cartesian    1.97
    257 y          4.453974      4.554731     0.100757    Cartesian    2.26
    257 z         -4.453974     -4.548065    -0.094091    Cartesian    2.11
    258 x          4.453974      4.495371     0.041398    Cartesian    0.93
    258 y         -4.453974     -4.475493    -0.021520    Cartesian    0.48
    258 z          4.453974      4.461733     0.007759    Cartesian    0.17
    259 x          8.907948      8.925631     0.017683    Cartesian    0.20
    259 y          0.000000     -0.029010    -0.029010    Cartesian    0.00
    259 z          0.000000     -0.001721    -0.001721    Cartesian    0.00
    260 x         -2.226987     -2.245518    -0.018531    Cartesian    0.83
    260 y          6.680961      6.704733     0.023772    Cartesian    0.36
    260 z          2.226987      2.236696     0.009709    Cartesian    0.44
    261 x          6.680961      6.675264    -0.005697    Cartesian   -0.09
    261 y          2.226987      2.226547    -0.000440    Cartesian   -0.02
    261 z          6.680961      6.644834    -0.036127    Cartesian   -0.54
    262 x          8.907948      8.957735     0.049787    Cartesian    0.56
    262 y          0.000000     -0.015540    -0.015540    Cartesian    0.00
    262 z          4.453974      4.467876     0.013903    Cartesian    0.31
    263 x          8.907948      8.937554     0.029607    Cartesian    0.33
    263 y          4.453974      4.491871     0.037898    Cartesian    0.85
    263 z          0.000000      0.016898     0.016898    Cartesian    0.00
    264 x          2.226987      2.226987     0.000000    Cartesian    0.00
    264 y          6.680961      6.675380    -0.005580    Cartesian   -0.08
    264 z          6.680961      6.671233    -0.009727    Cartesian   -0.15
    265 x         -2.226987     -2.243220    -0.016234    Cartesian    0.73
    265 y          6.680961      6.702220     0.021260    Cartesian    0.32
    265 z         -2.226987     -2.239750    -0.012763    Cartesian    0.57
    266 x         -2.226987     -2.236969    -0.009982    Cartesian    0.45
    266 y         -2.226987     -2.234965    -0.007979    Cartesian    0.36
    266 z          6.680961      6.689013     0.008052    Cartesian    0.12
    267 x          2.226987      2.226987     0.000000    Cartesian    0.00
    267 y          2.226987      2.224193    -0.002793    Cartesian   -0.13
    267 z         -6.680961     -6.713193    -0.032233    Cartesian    0.48
    268 x          2.226987      2.226987     0.000000    Cartesian    0.00
    268 y         -6.680961     -6.626279     0.054682    Cartesian   -0.82
    268 z          2.226987      2.232304     0.005317    Cartesian    0.24
    269 x          4.453974      4.477731     0.023757    Cartesian    0.53
    269 y         -4.453974     -4.505170    -0.051196    Cartesian    1.15
    269 z         -4.453974     -4.462484    -0.008510    Cartesian    0.19
    270 x          4.453974      4.431054    -0.022919    Cartesian   -0.51
    270 y          0.000000      0.014321     0.014321    Cartesian    0.00
    270 z          8.907948      8.927852     0.019904    Cartesian    0.22
    271 x          4.453974      4.494780     0.040806    Cartesian    0.92
    271 y          8.907948      8.964042     0.056094    Cartesian    0.63
    271 z          0.000000     -0.003800    -0.003800    Cartesian    0.00
    272 x          8.907948      8.953556     0.045608    Cartesian    0.51
    272 y          4.453974      4.503818     0.049844    Cartesian    1.12
    272 z          4.453974      4.453712    -0.000262    Cartesian   -0.01
    273 x          2.226987      2.226987     0.000000    Cartesian    0.00
    273 y         -2.226987     -2.214622     0.012365    Cartesian   -0.56
    273 z         -6.680961     -6.647258     0.033703    Cartesian   -0.50
    274 x          2.226987      2.226987     0.000000    Cartesian    0.00
    274 y         -6.680961     -6.640785     0.040176    Cartesian   -0.60
    274 z         -2.226987     -2.222732     0.004255    Cartesian   -0.19
    275 x          4.453974      4.433744    -0.020230    Cartesian   -0.45
    275 y          4.453974      4.448233    -0.005740    Cartesian   -0.13
    275 z          8.907948      8.923446     0.015498    Cartesian    0.17
    276 x          8.907948      8.959823     0.051875    Cartesian    0.58
    276 y          0.000000     -0.024828    -0.024828    Cartesian    0.00
    276 z         -4.453974     -4.461549    -0.007575    Cartesian    0.17
    277 x          8.907948      8.923971     0.016023    Cartesian    0.18
    277 y         -4.453974     -4.466708    -0.012734    Cartesian    0.29
    277 z          0.000000     -0.001868    -0.001868    Cartesian    0.00
    278 x          4.453974      4.476826     0.022852    Cartesian    0.51
    278 y          8.907948      8.976198     0.068250    Cartesian    0.77
    278 z          4.453974      4.474014     0.020040    Cartesian    0.45
    279 x         11.134934     11.096341    -0.038593    Cartesian   -0.35
    279 y          2.226987      2.224632    -0.002355    Cartesian   -0.11
    279 z          2.226987      2.232488     0.005501    Cartesian    0.25
    280 x          6.680961      6.682906     0.001945    Cartesian    0.03
    280 y          6.680961      6.694173     0.013213    Cartesian    0.20
    280 z          6.680961      6.691974     0.011013    Cartesian    0.16
    281 x          6.680961      6.677661    -0.003299    Cartesian   -0.05
    281 y         -6.680961     -6.667302     0.013658    Cartesian   -0.20
    281 z          2.226987      2.224103    -0.002884    Cartesian   -0.13
    282 x         -2.226987     -2.200975     0.026012    Cartesian   -1.17
    282 y          2.226987      2.228223     0.001236    Cartesian    0.06
    282 z         -6.680961     -6.655047     0.025914    Cartesian   -0.39
    283 x          8.907948      8.961437     0.053489    Cartesian    0.60
    283 y          4.453974      4.489736     0.035762    Cartesian    0.80
    283 z         -4.453974     -4.469511    -0.015537    Cartesian    0.35
    284 x          8.907948      8.950662     0.042714    Cartesian    0.48
    284 y         -4.453974     -4.474220    -0.020246    Cartesian    0.45
    284 z          4.453974      4.458693     0.004719    Cartesian    0.11
    285 x         11.134934     11.093674    -0.041260    Cartesian   -0.37
    285 y          2.226987      2.231041     0.004054    Cartesian    0.18
    285 z         -2.226987     -2.235214    -0.008227    Cartesian    0.37
    286 x         11.134934     11.136077     0.001142    Cartesian    0.01
    286 y         -2.226987     -2.222610     0.004377    Cartesian   -0.20
    286 z          2.226987      2.225413    -0.001574    Cartesian   -0.07
    287 x          2.226987      2.226987     0.000000    Cartesian    0.00
    287 y          6.680961      6.653162    -0.027799    Cartesian   -0.42
    287 z         -6.680961     -6.665106     0.015855    Cartesian   -0.24
    288 x          2.226987      2.226987     0.000000    Cartesian    0.00
    288 y         -6.680961     -6.679305     0.001655    Cartesian   -0.02
    288 z          6.680961      6.649791    -0.031169    Cartesian   -0.47
    289 x          6.680961      6.690737     0.009777    Cartesian    0.15
    289 y         -2.226987     -2.232724    -0.005737    Cartesian    0.26
    289 z         -6.680961     -6.684249    -0.003288    Cartesian    0.05
    290 x          6.680961      6.677544    -0.003417    Cartesian   -0.05
    290 y         -6.680961     -6.681357    -0.000396    Cartesian    0.01
    290 z         -2.226987     -2.226069     0.000917    Cartesian   -0.04
    291 x          4.453974      4.450726    -0.003248    Cartesian   -0.07
    291 y         -4.453974     -4.469110    -0.015136    Cartesian    0.34
    291 z          8.907948      8.946123     0.038176    Cartesian    0.43
    292 x          4.453974      4.469050     0.015076    Cartesian    0.34
    292 y          8.907948      8.966333     0.058386    Cartesian    0.66
    292 z         -4.453974     -4.457380    -0.003406    Cartesian    0.08
    293 x          2.226987      2.226987     0.000000    Cartesian    0.00
    293 y          2.226987      2.227020     0.000033    Cartesian    0.00
    293 z         11.134934     11.129727    -0.005207    Cartesian   -0.05
    294 x          2.226987      2.226987     0.000000    Cartesian    0.00
    294 y         11.134934     11.128657    -0.006278    Cartesian   -0.06
    294 z          2.226987      2.258772     0.031785    Cartesian    1.43
    295 x         11.134934     11.133749    -0.001185    Cartesian   -0.01
    295 y         -2.226987     -2.235326    -0.008339    Cartesian    0.37
    295 z         -2.226987     -2.217823     0.009164    Cartesian   -0.41
    296 x          4.453974      4.454261     0.000287    Cartesian    0.01
    296 y          0.000000      0.023675     0.023675    Cartesian    0.00
    296 z         -8.907948     -8.909996    -0.002048    Cartesian    0.02
    297 x          4.453974      4.427250    -0.026723    Cartesian   -0.60
    297 y         -8.907948     -8.971859    -0.063912    Cartesian    0.72
    297 z          0.000000     -0.005147    -0.005147    Cartesian    0.00
    298 x          8.907948      8.936281     0.028334    Cartesian    0.32
    298 y         -4.453974     -4.490348    -0.036374    Cartesian    0.82
    298 z         -4.453974     -4.441001     0.012972    Cartesian   -0.29
    299 x          8.907948      8.920834     0.012886    Cartesian    0.14
    299 y          0.000000     -0.008125    -0.008125    Cartesian    0.00
    299 z          8.907948      8.957331     0.049383    Cartesian    0.55
    300 x          8.907948      8.927438     0.019490    Cartesian    0.22
    300 y          8.907948      8.938535     0.030587    Cartesian    0.34
    300 z          0.000000      0.010595     0.010595    Cartesian    0.00
    301 x          2.226987      2.226987     0.000000    Cartesian    0.00
    301 y         11.134934     11.118000    -0.016935    Cartesian   -0.15
    301 z         -2.226987     -2.255817    -0.028830    Cartesian    1.29
    302 x          2.226987      2.226987     0.000000    Cartesian    0.00
    302 y         -2.226987     -2.249223    -0.022236    Cartesian    1.00
    302 z         11.134934     11.126062    -0.008872    Cartesian   -0.08
    303 x         11.134934     11.133203    -0.001732    Cartesian   -0.02
    303 y          6.680961      6.689882     0.008921    Cartesian    0.13
    303 z          2.226987      2.242268     0.015281    Cartesian    0.69
    304 x          6.680961      6.669627    -0.011334    Cartesian   -0.17
    304 y         -6.680961     -6.673360     0.007601    Cartesian   -0.11
    304 z          6.680961      6.695654     0.014693    Cartesian    0.22
    305 x         11.134934     11.140011     0.005076    Cartesian    0.05
    305 y          2.226987      2.232602     0.005615    Cartesian    0.25
    305 z          6.680961      6.643313    -0.037648    Cartesian   -0.56
    306 x         -2.226987     -2.220640     0.006347    Cartesian   -0.28
    306 y          6.680961      6.694182     0.013221    Cartesian    0.20
    306 z         -6.680961     -6.683681    -0.002720    Cartesian    0.04
    307 x          4.453974      4.427432    -0.026542    Cartesian   -0.60
    307 y          4.453974      4.453666    -0.000307    Cartesian   -0.01
    307 z         -8.907948     -8.936904    -0.028956    Cartesian    0.33
    308 x          4.453974      4.473750     0.019776    Cartesian    0.44
    308 y         -8.907948     -8.912510    -0.004562    Cartesian    0.05
    308 z          4.453974      4.473212     0.019239    Cartesian    0.43
    309 x          8.907948      8.922570     0.014623    Cartesian    0.16
    309 y          4.453974      4.452831    -0.001143    Cartesian   -0.03
    309 z          8.907948      8.942197     0.034250    Cartesian    0.38
    310 x          8.907948      8.946148     0.038200    Cartesian    0.43
    310 y          8.907948      8.928303     0.020355    Cartesian    0.23
    310 z          4.453974      4.464010     0.010036    Cartesian    0.23
    311 x          6.680961      6.684449     0.003488    Cartesian    0.05
    311 y         11.134934     11.144448     0.009513    Cartesian    0.09
    311 z          2.226987      2.225459    -0.001528    Cartesian   -0.07
    312 x         -2.226987     -2.242675    -0.015689    Cartesian    0.70
    312 y          2.226987      2.216005    -0.010982    Cartesian   -0.49
    312 z         11.134934     11.125277    -0.009657    Cartesian   -0.09
    313 x         11.134934     11.131705    -0.003229    Cartesian   -0.03
    313 y          6.680961      6.682541     0.001581    Cartesian    0.02
    313 z         -2.226987     -2.236199    -0.009212    Cartesian    0.41
    314 x          2.226987      2.226987     0.000000    Cartesian    0.00
    314 y         -6.680961     -6.690160    -0.009199    Cartesian    0.14
    314 z         -6.680961     -6.658104     0.022857    Cartesian   -0.34
    315 x         11.134934     11.135250     0.000316    Cartesian    0.00
    315 y         -2.226987     -2.232672    -0.005685    Cartesian    0.26
    315 z          6.680961      6.683414     0.002454    Cartesian    0.04
    316 x         13.361921     13.428099     0.066177    Cartesian    0.50
    316 y          0.000000      0.008656     0.008656    Cartesian    0.00
    316 z          0.000000      0.012776     0.012776    Cartesian    0.00
    317 x          4.453974      4.467014     0.013040    Cartesian    0.29
    317 y          8.907948      8.924692     0.016744    Cartesian    0.19
    317 z          8.907948      8.939067     0.031119    Cartesian    0.35
    318 x          2.226987      2.226987     0.000000    Cartesian    0.00
    318 y          6.680961      6.697944     0.016984    Cartesian    0.25
    318 z         11.134934     11.123628    -0.011307    Cartesian   -0.10
    319 x          2.226987      2.226987     0.000000    Cartesian    0.00
    319 y         11.134934     11.147088     0.012153    Cartesian    0.11
    319 z          6.680961      6.664744    -0.016217    Cartesian   -0.24
    320 x          6.680961      6.689437     0.008476    Cartesian    0.13
    320 y         11.134934     11.144975     0.010041    Cartesian    0.09
    320 z         -2.226987     -2.226934     0.000053    Cartesian   -0.00
    321 x          6.680961      6.683330     0.002369    Cartesian    0.04
    321 y         -2.226987     -2.218904     0.008083    Cartesian   -0.36
    321 z         11.134934     11.143991     0.009056    Cartesian    0.08
    322 x          4.453974      4.462244     0.008270    Cartesian    0.19
    322 y         -4.453974     -4.457333    -0.003359    Cartesian    0.08
    322 z         -8.907948     -8.969402    -0.061455    Cartesian    0.69
    323 x          4.453974      4.465181     0.011207    Cartesian    0.25
    323 y         -8.907948     -8.921518    -0.013570    Cartesian    0.15
    323 z         -4.453974     -4.482983    -0.029009    Cartesian    0.65
    324 x          8.907948      8.926008     0.018061    Cartesian    0.20
    324 y         -4.453974     -4.469257    -0.015283    Cartesian    0.34
    324 z          8.907948      8.925981     0.018033    Cartesian    0.20
    325 x         13.361921     13.379085     0.017163    Cartesian    0.13
    325 y          0.000000     -0.007598    -0.007598    Cartesian    0.00
    325 z          4.453974      4.479411     0.025438    Cartesian    0.57
    326 x         13.361921     13.435226     0.073305    Cartesian    0.55
    326 y          4.453974      4.414055    -0.039918    Cartesian   -0.90
    326 z          0.000000     -0.006265    -0.006265    Cartesian    0.00
    327 x          8.907948      8.941387     0.033439    Cartesian    0.38
    327 y          8.907948      8.935166     0.027218    Cartesian    0.31
    327 z         -4.453974     -4.454041    -0.000067    Cartesian    0.00
    328 x         11.134934     11.156179     0.021245    Cartesian    0.19
    328 y          2.226987      2.228693     0.001706    Cartesian    0.08
    328 z         -6.680961     -6.658750     0.022210    Cartesian   -0.33
    329 x         11.134934     11.149530     0.014596    Cartesian    0.13
    329 y          6.680961      6.684483     0.003522    Cartesian    0.05
    329 z          6.680961      6.678512    -0.002449    Cartesian   -0.04
    330 x         11.134934     11.136305     0.001371    Cartesian    0.01
    330 y         -6.680961     -6.682786    -0.001826    Cartesian    0.03
    330 z          2.226987      2.238088     0.011101    Cartesian    0.50
    331 x          6.680961      6.684153     0.003192    Cartesian    0.05
    331 y         -6.680961     -6.686475    -0.005514    Cartesian    0.08
    331 z         -6.680961     -6.682365    -0.001405    Cartesian    0.02
--------------------------------------------------------------------------------


  Time to end of optimisation  =       64.3819 seconds


  Peak dynamic memory used =     101.61 MB 


  Timing analysis for GULP :

--------------------------------------------------------------------------------
  Task / Subroutine                                          Time (Seconds)
--------------------------------------------------------------------------------
  Calculation of reciprocal space energy and derivatives          0.0007
  Calculation of reciprocal space energy using symmetry           0.0010
  Calculation of real space energy and derivatives                0.0040
  Calculation of real space energy using symmetry                 0.0093
  Calculation for region 1 energy and derivatives (2-b)          37.8112
  Calculation for region 2a energy                               23.7705
  Calculation for region 2b energy                                0.0104
  Calculation and manipulation of Hessian matrix                  0.1195
  Calculation of matrix inversion                                 2.3438
  Symmetry generation of equivalent positions                     0.0047
--------------------------------------------------------------------------------
  Total CPU time                                                 64.3820
--------------------------------------------------------------------------------


  Dump file written as Na3OCl.grs


  Job Finished at 17:33.18  1st March      2021                               

