********************************************************************************
*                       GENERAL UTILITY LATTICE PROGRAM                        *
*                                 Julian Gale                                  *
*                       Curtin Institute for Computation                       *
*                    School of Molecular and Life Sciences                     *
*                    Curtin University, Western Australia                      *
********************************************************************************
* Version = 5.2.0 * Last modified =  10th September 2020                       *
********************************************************************************
*  optimise     - perform optimisation run                                     *
*  conp         - constant pressure calculation                                *
*  property     - calculate properties for final geometry                      *
*  defect       - perform defect calculation after bulk run                    *
*  compare      - compare initial and final structures                         *
********************************************************************************

  Job Started  at 14:16.29  3rd December   2020                               

  Number of CPUs =     1


  Total number of configurations input =      1

********************************************************************************
*  Input for Configuration =   1                                               *
********************************************************************************

  Formula = ClONa3                                                      

  Number of irreducible atoms/shells =       5


  Total number atoms/shells =       7

  Dimensionality = 3               :  Bulk   


  Symmetry :

  Crystal family                   :  Cubic       
  Crystal class  (Groth - 1921)    :  Cubic Hexakisoctahedral              

  Space group (centrosymmetric)    :  P M 3 M         

  Patterson group                  :  P m -3 m 

  Cartesian lattice vectors (Angstroms) :

        4.504000    0.000000    0.000000
        0.000000    4.504000    0.000000
        0.000000    0.000000    4.504000

  Cell parameters (Angstroms/Degrees):

  a =       4.5040    alpha =  90.0000
  b =       4.5040    beta  =  90.0000
  c =       4.5040    gamma =  90.0000

  Initial cell volume =          91.368216 Angs**3

  Temperature of configuration =   0.00     K 

  Pressure of configuration =         0.000 GPa 

  Fractional coordinates of asymmetric unit :

--------------------------------------------------------------------------------
   No.  Atomic       x           y          z         Charge      Occupancy
        Label      (Frac)      (Frac)     (Frac)        (e)         (Frac)  
--------------------------------------------------------------------------------
      1 Cl    c    0.000000    0.000000    0.000000     1.48500    1.000000    
      2 O     c    0.500000    0.500000    0.500000     0.18300    1.000000    
      3 Na    c    0.500000    0.500000    0.000000     1.00000    1.000000    
      4 Cl    s    0.000000    0.000000    0.000000    -2.48500    1.000000    
      5 O     s    0.500000    0.500000    0.500000    -2.18300    1.000000    
--------------------------------------------------------------------------------


  Constraints : 

--------------------------------------------------------------------------------
  Constraint no.      Unconstrained     Constrained    Coefficient    Offset
                         Variable         Variable
--------------------------------------------------------------------------------
           1              Strain 1        Strain 2       1.00000      0.0000
           2              Strain 1        Strain 3       1.00000      0.0000
--------------------------------------------------------------------------------


********************************************************************************
*  General input information                                                   *
********************************************************************************

  Species output for all configurations : 

--------------------------------------------------------------------------------
  Species    Type    Atomic    Atomic    Charge       Radii (Angs)     Library
                     Number     Mass       (e)     Cova   Ionic  VDW   Symbol
--------------------------------------------------------------------------------
    Na       Core       11      22.99   1.000000   0.970  0.000  2.300          
    O        Core        8      16.00   0.183000   0.730  0.000  1.360          
    O        Shell       8       0.00  -2.183000   0.730  0.000  0.000          
    Cl       Core       17      35.45   1.485000   0.990  0.000  1.650          
    Cl       Shell      17       0.00  -2.485000   0.990  0.000  0.000          
    Mg       Core       12      24.31   0.415000   1.100  0.000  0.000          
    Mg       Shell      12       0.00   1.585000   1.100  0.000  0.000          
    Ca       Core       20      40.08  -1.135000   0.990  0.000  0.000          
    Ca       Shell      20       0.00   3.135000   0.990  0.000  0.000          
    Sr       Core       38      87.62  -1.251000   1.120  0.000  0.000          
    Sr       Shell      38       0.00   3.251000   1.120  0.000  0.000          
    Ba       Core       56     137.33  -7.203000   1.340  0.000  0.000          
    Ba       Shell      56       0.00   9.203000   1.340  0.000  0.000          
--------------------------------------------------------------------------------


  Lattice summation method               =    Ewald          (3-D)
                                         =    Parry          (2-D)
                                         =    Saunders et al (1-D)
  Accuracy factor for lattice sums       =   12.000


  Analytic derivatives to be used

  Time limit = Infinity

  Maximum range for interatomic potentials =    100000.000000 Angstroms

  General interatomic potentials :

--------------------------------------------------------------------------------
Atom  Types   Potential      Parameter       Value         Units   Cutoffs(Ang)
  1     2                                                            Min /  Max 
--------------------------------------------------------------------------------
O    c O    s Spring (c-s)  Spring k 2       593.71600    eV*Ang^-2 0.000  0.800
                            Spring k 4       0.0000000    eV*Ang^-4 
--------------------------------------------------------------------------------
Cl   c Cl   s Spring (c-s)  Spring k 2       29.380000    eV*Ang^-2 0.000  0.800
                            Spring k 4       0.0000000    eV*Ang^-4 
--------------------------------------------------------------------------------
Mg   c Mg   s Spring (c-s)  Spring k 2       361.60000    eV*Ang^-2 0.000  0.800
                            Spring k 4       0.0000000    eV*Ang^-4 
--------------------------------------------------------------------------------
Ca   c Ca   s Spring (c-s)  Spring k 2       110.20000    eV*Ang^-2 0.000  0.800
                            Spring k 4       0.0000000    eV*Ang^-4 
--------------------------------------------------------------------------------
Sr   c Sr   s Spring (c-s)  Spring k 2       71.700000    eV*Ang^-2 0.000  0.800
                            Spring k 4       0.0000000    eV*Ang^-4 
--------------------------------------------------------------------------------
Ba   c Ba   s Spring (c-s)  Spring k 2       495.20000    eV*Ang^-2 0.000  0.800
                            Spring k 4       0.0000000    eV*Ang^-4 
--------------------------------------------------------------------------------
Na   c Na   c Buckingham    Buckingham A     1788.1900    eV        0.000 12.000
                            Buckingham rho  0.15900000    Ang       
                            Buckingham C     0.0000000    eV*Ang^6  
--------------------------------------------------------------------------------
Na   c O    s Buckingham    Buckingham A     1226.8400    eV        0.000 12.000
                            Buckingham rho  0.30700000    Ang       
                            Buckingham C     0.0000000    eV*Ang^6  
--------------------------------------------------------------------------------
Na   c Cl   s Buckingham    Buckingham A     2314.7000    eV        0.000 12.000
                            Buckingham rho  0.29000000    Ang       
                            Buckingham C     0.0000000    eV*Ang^6  
--------------------------------------------------------------------------------
O    s O    s Buckingham    Buckingham A     22764.300    eV        0.000 12.000
                            Buckingham rho  0.14900000    Ang       
                            Buckingham C     13.190000    eV*Ang^6  
--------------------------------------------------------------------------------
O    s Cl   s Buckingham    Buckingham A     8286.9100    eV        0.000 12.000
                            Buckingham rho  0.25900000    Ang       
                            Buckingham C     62.200000    eV*Ang^6  
--------------------------------------------------------------------------------
Cl   s Cl   s Buckingham    Buckingham A     1227.2000    eV        0.000 12.000
                            Buckingham rho  0.32100000    Ang       
                            Buckingham C     14.530000    eV*Ang^6  
--------------------------------------------------------------------------------
O    s Mg   s Buckingham    Buckingham A     1428.5000    eV        0.000 12.000
                            Buckingham rho  0.29450000    Ang       
                            Buckingham C     0.0000000    eV*Ang^6  
--------------------------------------------------------------------------------
Mg   s Cl   s Buckingham    Buckingham A     4914.5400    eV        0.000 12.000
                            Buckingham rho  0.25700000    Ang       
                            Buckingham C     0.0000000    eV*Ang^6  
--------------------------------------------------------------------------------
O    s Ca   s Buckingham    Buckingham A     1090.4000    eV        0.000 12.000
                            Buckingham rho  0.34370000    Ang       
                            Buckingham C     0.0000000    eV*Ang^6  
--------------------------------------------------------------------------------
Cl   s Ca   s Buckingham    Buckingham A     2302.0000    eV        0.000 12.000
                            Buckingham rho  0.34020000    Ang       
                            Buckingham C     0.0000000    eV*Ang^6  
--------------------------------------------------------------------------------
O    s Sr   s Buckingham    Buckingham A     959.10000    eV        0.000 12.000
                            Buckingham rho  0.37210000    Ang       
                            Buckingham C     0.0000000    eV*Ang^6  
--------------------------------------------------------------------------------
Cl   s Sr   s Buckingham    Buckingham A     2191.0900    eV        0.000 12.000
                            Buckingham rho  0.34570000    Ang       
                            Buckingham C     0.0000000    eV*Ang^6  
--------------------------------------------------------------------------------
O    s Ba   s Buckingham    Buckingham A     905.70000    eV        0.000 12.000
                            Buckingham rho  0.39760000    Ang       
                            Buckingham C     0.0000000    eV*Ang^6  
--------------------------------------------------------------------------------
Cl   s Ba   s Buckingham    Buckingham A     2704.5500    eV        0.000 12.000
                            Buckingham rho  0.35280000    Ang       
                            Buckingham C     0.0000000    eV*Ang^6  
--------------------------------------------------------------------------------

********************************************************************************
*  Output for configuration   1                                                *
********************************************************************************


  Components of energy : 

--------------------------------------------------------------------------------
  Interatomic potentials     =           5.13022605 eV    
  Monopole - monopole (real) =         -10.03624526 eV    
  Monopole - monopole (recip)=         -29.53581274 eV    
  Monopole - monopole (total)=         -39.57205800 eV    
--------------------------------------------------------------------------------
  Total lattice energy       =         -34.44183194 eV    
--------------------------------------------------------------------------------
  Total lattice energy       =           -3323.1103 kJ/(mole unit cells)
--------------------------------------------------------------------------------


  Number of variables =        1

  Maximum number of calculations  =          1000
  Maximum Hessian update interval =            10
  Maximum step size               =   1.000000000
  Maximum parameter tolerance     =   0.000010000
  Maximum function  tolerance     =   0.000010000
  Maximum gradient  tolerance     =   0.001000000
  Maximum gradient  component     =   0.010000000

  Symmetry constrained optimisation

  Symmetry used for second derivatives

  Cell parameters to be optimised using strains

  Newton-Raphson optimiser to be used

  BFGS hessian update to be used

  Lower half triangular hessian to be used

  Start of bulk optimisation :

  Cycle:      0 Energy:       -34.441832  Gnorm:      0.196570  CPU:    0.009
  ** Hessian calculated **
  Cycle:      1 Energy:       -34.441914  Gnorm:      0.000103  CPU:    0.011


  **** Optimisation achieved ****


  Final energy =     -34.44191447 eV
  Final Gnorm  =       0.00000000

  Components of energy : 

--------------------------------------------------------------------------------
  Interatomic potentials     =           5.09689708 eV    
  Monopole - monopole (real) =         -10.02781331 eV    
  Monopole - monopole (recip)=         -29.51099824 eV    
  Monopole - monopole (total)=         -39.53881155 eV    
--------------------------------------------------------------------------------
  Total lattice energy       =         -34.44191447 eV    
--------------------------------------------------------------------------------
  Total lattice energy       =           -3323.1183 kJ/(mole unit cells)
--------------------------------------------------------------------------------

  Final asymmetric unit coordinates :

--------------------------------------------------------------------------------
   No.  Atomic        x           y           z         Radius
        Label       (Frac)      (Frac)      (Frac)       (Angs) 
--------------------------------------------------------------------------------
     1  Cl    c     0.000000    0.000000    0.000000    0.000000
     2  O     c     0.500000    0.500000    0.500000    0.000000
     3  Na    c     0.500000    0.500000    0.000000    0.000000
     4  Cl    s     0.000000    0.000000    0.000000    0.000000
     5  O     s     0.500000    0.500000    0.500000    0.000000
--------------------------------------------------------------------------------

  Final Cartesian lattice vectors (Angstroms) :

        4.507787    0.000000    0.000000
        0.000000    4.507787    0.000000
        0.000000    0.000000    4.507787


  Final cell parameters and derivatives :

--------------------------------------------------------------------------------
       a            4.507787 Angstrom     dE/de1(xx)     0.000000 eV/strain
       b            4.507787 Angstrom     dE/de2(yy)     0.000000 eV/strain
       c            4.507787 Angstrom     dE/de3(zz)     0.000000 eV/strain
       alpha       90.000000 Degrees      dE/de4(yz)     0.000000 eV/strain
       beta        90.000000 Degrees      dE/de5(xz)     0.000000 eV/strain
       gamma       90.000000 Degrees      dE/de6(xy)     0.000000 eV/strain
--------------------------------------------------------------------------------

  Primitive cell volume =            91.598892 Angs**3

  Density of cell =      2.183054 g/cm**3

  Non-primitive cell volume =            91.598892 Angs**3


  Final internal derivatives :

--------------------------------------------------------------------------------
   No.  Atomic          a             b             c           Radius
        Label          (eV)          (eV)          (eV)        (eV/Angs)
--------------------------------------------------------------------------------
      1 Cl    c       0.000000      0.000000      0.000000      0.000000
      2 O     c       0.000000      0.000000      0.000000      0.000000
      3 Na    c       0.000000      0.000000      0.000000      0.000000
      4 Cl    s       0.000000      0.000000      0.000000      0.000000
      5 O     s       0.000000      0.000000      0.000000      0.000000
--------------------------------------------------------------------------------
  Maximum abs         0.000000      0.000000      0.000000      0.000000
--------------------------------------------------------------------------------

  Comparison of initial and final structures : 

--------------------------------------------------------------------------------
  Parameter   Initial value   Final value   Difference    Units      Percent
--------------------------------------------------------------------------------
    Volume        91.368216     91.598892     0.230676    Angs**3      0.25
    a              4.504000      4.507787     0.003787    Angstroms    0.08
    b              4.504000      4.507787     0.003787    Angstroms    0.08
    c              4.504000      4.507787     0.003787    Angstroms    0.08
    alpha         90.000000     90.000000     0.000000    Degrees      0.00
    beta          90.000000     90.000000     0.000000    Degrees      0.00
    gamma         90.000000     90.000000     0.000000    Degrees      0.00
      1 x          0.000000      0.000000     0.000000    Fractional   0.00
      1 y          0.000000      0.000000     0.000000    Fractional   0.00
      1 z          0.000000      0.000000     0.000000    Fractional   0.00
      2 x          0.500000      0.500000     0.000000    Fractional   0.00
      2 y          0.500000      0.500000     0.000000    Fractional   0.00
      2 z          0.500000      0.500000     0.000000    Fractional   0.00
      3 x          0.500000      0.500000     0.000000    Fractional   0.00
      3 y          0.500000      0.500000     0.000000    Fractional   0.00
      3 z          0.000000      0.000000     0.000000    Fractional   0.00
      4 x          0.000000      0.000000     0.000000    Fractional   0.00
      4 y          0.000000      0.000000     0.000000    Fractional   0.00
      4 z          0.000000      0.000000     0.000000    Fractional   0.00
      5 x          0.500000      0.500000     0.000000    Fractional   0.00
      5 y          0.500000      0.500000     0.000000    Fractional   0.00
      5 z          0.500000      0.500000     0.000000    Fractional   0.00
--------------------------------------------------------------------------------


  Born effective charge tensors : 

-------------------------------------------------------------------------------
  Atom             x           y             z
-------------------------------------------------------------------------------
    1 Cl    x      -1.0181     -0.0000      0.0000
            y      -0.0000     -1.0181      0.0000
            z       0.0000      0.0000     -1.0181
-------------------------------------------------------------------------------
    2 O     x      -2.2647      0.0000     -0.0000
            y       0.0000     -2.2647     -0.0000
            z      -0.0000     -0.0000     -2.2647
-------------------------------------------------------------------------------
    3 Na    x       1.2258     -0.0000      0.0000
            y      -0.0000      1.2258     -0.0000
            z       0.0000     -0.0000      0.8313
-------------------------------------------------------------------------------




  Elastic Constant Matrix: (Units=GPa)

-------------------------------------------------------------------------------
  Indices      1         2         3         4         5         6    
-------------------------------------------------------------------------------
       1     95.8177   20.0737   20.0737   -0.0000   -0.0000    0.0000
       2     20.0737   95.8177   20.0737   -0.0000   -0.0000    0.0000
       3     20.0737   20.0737   95.8177   -0.0000   -0.0000    0.0000
       4     -0.0000   -0.0000   -0.0000   20.0737   -0.0000    0.0000
       5     -0.0000   -0.0000   -0.0000   -0.0000   20.0737    0.0000
       6      0.0000    0.0000    0.0000    0.0000    0.0000   20.0737
-------------------------------------------------------------------------------


  Elastic Compliance Matrix: (Units=1/GPa)

-------------------------------------------------------------------------------
  Indices      1         2         3         4         5         6    
-------------------------------------------------------------------------------
       1    0.011253 -0.001949 -0.001949  0.000000  0.000000 -0.000000
       2   -0.001949  0.011253 -0.001949  0.000000  0.000000  0.000000
       3   -0.001949 -0.001949  0.011253  0.000000  0.000000 -0.000000
       4    0.000000  0.000000  0.000000  0.049816  0.000000 -0.000000
       5    0.000000  0.000000  0.000000  0.000000  0.049816 -0.000000
       6   -0.000000  0.000000 -0.000000 -0.000000 -0.000000  0.049816
-------------------------------------------------------------------------------

  Mechanical properties :

-------------------------------------------------------------------------------
  Convention :                    Reuss         Voigt         Hill
-------------------------------------------------------------------------------
  Bulk  Modulus (GPa)     =      45.32174      45.32174      45.32174
  Shear Modulus (GPa)     =      24.72085      27.19304      25.95695
-------------------------------------------------------------------------------
  Velocity S-wave (km/s)  =       3.36511       3.52937       3.44822
  Velocity P-wave (km/s)  =       5.98827       6.11304       6.05098
-------------------------------------------------------------------------------
  Compressibility (1/GPa) =    0.02206447
-------------------------------------------------------------------------------
  Stress axis :                     x             y             z
-------------------------------------------------------------------------------
  Youngs Moduli (GPa)     =      88.86373      88.86373      88.86373
-------------------------------------------------------------------------------
  Poissons Ratio (x)      =                     0.17321       0.17321
  Poissons Ratio (y)      =       0.17321                     0.17321
  Poissons Ratio (z)      =       0.17321       0.17321
-------------------------------------------------------------------------------


  Piezoelectric Strain Matrix: (Units=C/m**2)

-------------------------------------------------------------------------------
  Indices      1         2         3         4         5         6    
-------------------------------------------------------------------------------
       x    -0.00000  -0.00000  -0.00000   0.00000  -0.00000  -0.00000
       y    -0.00000  -0.00000   0.00000  -0.00000   0.00000   0.00000
       z    -0.00000  -0.00000  -0.00000  -0.00000   0.00000   0.00000
-------------------------------------------------------------------------------


  Piezoelectric Stress Matrix: (Units=10**-11 C/N)

-------------------------------------------------------------------------------
  Indices      1         2         3         4         5         6    
-------------------------------------------------------------------------------
       x    -0.00000   0.00000   0.00000   0.00000  -0.00000  -0.00000
       y    -0.00000  -0.00000   0.00000  -0.00000   0.00000   0.00000
       z     0.00000   0.00000  -0.00000  -0.00000   0.00000   0.00000
-------------------------------------------------------------------------------


  Static dielectric constant tensor : 

-------------------------------------------------------------------------------
              x         y         z
-------------------------------------------------------------------------------
       x    22.84729   0.00000   0.00000
       y     0.00000  22.84729  -0.00000
       z     0.00000  -0.00000  22.84729
--------------------------------------------------------------------------------

  High frequency dielectric constant tensor : 

-------------------------------------------------------------------------------
              x         y         z
-------------------------------------------------------------------------------
       x     1.47557   0.00000  -0.00000
       y     0.00000   1.47557  -0.00000
       z    -0.00000  -0.00000   1.47557
-------------------------------------------------------------------------------

  Static refractive indices : 

-------------------------------------------------------------------------------
    1 =    4.77988      2 =    4.77988      3 =    4.77988
-------------------------------------------------------------------------------

  High frequency refractive indices : 

-------------------------------------------------------------------------------
    1 =    1.21473      2 =    1.21473      3 =    1.21473
-------------------------------------------------------------------------------


  Time to end of optimisation =       0.0164 seconds

********************************************************************************
*  Defect calculation for configuration   1 :                                  *
********************************************************************************

  Total number of defects =      3

  Total charge on defect  =  -1.00

  Defect centre is at   0.5000   0.1100   0.3900  Frac

  Region 1 radius =  13.0000      Number of ions =    701

  Number of symmetry inequivalent region 1 ions  =    402

  Region 2 radius =  21.0000      Number of ions =   2263

  Number of symmetry inequivalent region 2a ions =   1217

  Region 2a mode = 4 : screened electrostatics due to region 1 
                       neglect correction to region 1 forces from 2a
                       region 2a displacements based on defects only

  Region 2a ions will only interact with defects in region 1

  Vacancies:

--------------------------------------------------------------------------------
    Specification type     Symbol/Number         x          y          z
--------------------------------------------------------------------------------
    Fractional                               0.500000   0.500000   0.000000
    Fractional                               0.500000   0.000000   0.500000
--------------------------------------------------------------------------------

  Interstitials:

--------------------------------------------------------------------------------
    Specification type     Symbol/Number         x          y          z
--------------------------------------------------------------------------------
    Atom/Fractional         Na               0.500000   0.110000   0.390000
--------------------------------------------------------------------------------


  Symmetry reduced region 1 (Relative to defect centre) :

--------------------------------------------------------------------------------
   No.   Atomic       x            y             z       Radius  Multiplicity   
         Label      (Angs)       (Angs)        (Angs)    (Angs)     
--------------------------------------------------------------------------------
     1  Na    c      0.0000       0.0000       0.0000    0.0000     1    Defect
     2  O     c      0.0000       1.7580 *     0.4959 *  0.0000     1          
     3  O     c      0.0000      -2.7498 *     0.4959 *  0.0000     1          
     4  Cl    c      2.2539 *    -0.4959 *    -1.7580 *  0.0000     2          
     5  Na    c      2.2539 *     1.7580 *     0.4959 *  0.0000     2          
     6  Na    c      0.0000       1.7580 *     2.7498 *  0.0000     1          
     7  Na    c      0.0000      -2.7498 *    -1.7580 *  0.0000     1          
     8  Cl    c      2.2539 *    -0.4959 *     2.7498 *  0.0000     2          
     9  Na    c      2.2539 *    -2.7498 *     0.4959 *  0.0000     2          
    10  Na    c      0.0000      -2.7498 *     2.7498 *  0.0000     1          
    11  Na    c      0.0000      -0.4959 *    -4.0119 *  0.0000     1          
    12  Na    c      0.0000       4.0119 *     0.4959 *  0.0000     1          
    13  O     c      0.0000       1.7580 *    -4.0119 *  0.0000     1          
    14  Na    c     -4.5078 *    -0.4959 *     0.4959 *  0.0000     2          
    15  O     c      0.0000      -2.7498 *    -4.0119 *  0.0000     1          
    16  O     c     -4.5078 *     1.7580 *     0.4959 *  0.0000     2          
    17  Cl    c      2.2539 *     4.0119 *    -1.7580 *  0.0000     2          
    18  Na    c      2.2539 *     1.7580 *    -4.0119 *  0.0000     2          
    19  Na    c      0.0000      -0.4959 *     5.0036 *  0.0000     1          
    20  Na    c      0.0000      -5.0036 *     0.4959 *  0.0000     1          
    21  Na    c     -4.5078 *     1.7580 *    -1.7580 *  0.0000     2          
    22  O     c     -4.5078 *    -2.7498 *     0.4959 *  0.0000     2          
    23  O     c      0.0000       1.7580 *     5.0036 *  0.0000     1          
    24  Cl    c      2.2539 *     4.0119 *     2.7498 *  0.0000     2          
    25  Na    c      2.2539 *    -2.7498 *    -4.0119 *  0.0000     2          
    26  Na    c     -4.5078 *    -2.7498 *    -1.7580 *  0.0000     2          
    27  Na    c     -4.5078 *     1.7580 *     2.7498 *  0.0000     2          
    28  Na    c      0.0000       4.0119 *    -4.0119 *  0.0000     1          
    29  O     c      0.0000      -2.7498 *     5.0036 *  0.0000     1          
    30  Cl    c      2.2539 *    -5.0036 *    -1.7580 *  0.0000     2          
    31  Na    c      2.2539 *     1.7580 *     5.0036 *  0.0000     2          
    32  Na    c      4.5078 *    -2.7498 *     2.7498 *  0.0000     2          
    33  Na    c     -4.5078 *    -0.4959 *    -4.0119 *  0.0000     2          
    34  Na    c     -4.5078 *     4.0119 *     0.4959 *  0.0000     2          
    35  Cl    c      2.2539 *    -5.0036 *     2.7498 *  0.0000     2          
    36  Na    c      2.2539 *    -2.7498 *     5.0036 *  0.0000     2          
    37  O     c      0.0000       6.2658 *     0.4959 *  0.0000     1          
    38  O     c     -4.5078 *     1.7580 *    -4.0119 *  0.0000     2          
    39  Na    c      0.0000       4.0119 *     5.0036 *  0.0000     1          
    40  Na    c      0.0000      -5.0036 *    -4.0119 *  0.0000     1          
    41  Na    c      0.0000       6.2658 *    -1.7580 *  0.0000     1          
    42  Na    c      0.0000       1.7580 *    -6.2658 *  0.0000     1          
    43  O     c     -4.5078 *    -2.7498 *    -4.0119 *  0.0000     2          
    44  Na    c      2.2539 *     6.2658 *     0.4959 *  0.0000     2          
    45  Cl    c      2.2539 *    -0.4959 *    -6.2658 *  0.0000     2          
    46  Na    c     -4.5078 *    -0.4959 *     5.0036 *  0.0000     2          
    47  Na    c     -4.5078 *    -5.0036 *     0.4959 *  0.0000     2          
    48  Na    c      0.0000       6.2658 *     2.7498 *  0.0000     1          
    49  Na    c      0.0000      -2.7498 *    -6.2658 *  0.0000     1          
    50  O     c     -4.5078 *     1.7580 *     5.0036 *  0.0000     2          
    51  Cl    c      6.7617 *    -0.4959 *    -1.7580 *  0.0000     2          
    52  Na    c      6.7617 *     1.7580 *     0.4959 *  0.0000     2          
    53  Na    c      0.0000      -5.0036 *     5.0036 *  0.0000     1          
    54  Na    c     -4.5078 *     4.0119 *    -4.0119 *  0.0000     2          
    55  O     c      0.0000      -7.2575 *     0.4959 *  0.0000     1          
    56  O     c     -4.5078 *    -2.7498 *     5.0036 *  0.0000     2          
    57  Cl    c      6.7617 *    -0.4959 *     2.7498 *  0.0000     2          
    58  Na    c      6.7617 *    -2.7498 *     0.4959 *  0.0000     2          
    59  O     c      0.0000       6.2658 *    -4.0119 *  0.0000     1          
    60  Na    c      0.0000       1.7580 *     7.2575 *  0.0000     1          
    61  Na    c      0.0000      -7.2575 *    -1.7580 *  0.0000     1          
    62  Cl    c      2.2539 *    -0.4959 *     7.2575 *  0.0000     2          
    63  Na    c      2.2539 *    -7.2575 *     0.4959 *  0.0000     2          
    64  O     c     -4.5078 *     6.2658 *     0.4959 *  0.0000     2          
    65  Na    c      0.0000      -2.7498 *     7.2575 *  0.0000     1          
    66  Na    c      0.0000      -7.2575 *     2.7498 *  0.0000     1          
    67  Na    c      2.2539 *     6.2658 *    -4.0119 *  0.0000     2          
    68  Cl    c      2.2539 *     4.0119 *    -6.2658 *  0.0000     2          
    69  Na    c     -4.5078 *     4.0119 *     5.0036 *  0.0000     2          
    70  Na    c     -4.5078 *    -5.0036 *    -4.0119 *  0.0000     2          
    71  Na    c     -4.5078 *     6.2658 *    -1.7580 *  0.0000     2          
    72  Na    c      4.5078 *     1.7580 *    -6.2658 *  0.0000     2          
    73  O     c      0.0000       6.2658 *     5.0036 *  0.0000     1          
    74  Cl    c      6.7617 *     4.0119 *    -1.7580 *  0.0000     2          
    75  Na    c      6.7617 *     1.7580 *    -4.0119 *  0.0000     2          
    76  Na    c     -4.5078 *    -2.7498 *    -6.2658 *  0.0000     2          
    77  Na    c     -4.5078 *     6.2658 *     2.7498 *  0.0000     2          
    78  O     c      0.0000      -7.2575 *    -4.0119 *  0.0000     1          
    79  Cl    c      2.2539 *    -5.0036 *    -6.2658 *  0.0000     2          
    80  Na    c      2.2539 *     6.2658 *     5.0036 *  0.0000     2          
    81  Cl    c      6.7617 *     4.0119 *     2.7498 *  0.0000     2          
    82  Na    c      6.7617 *    -2.7498 *    -4.0119 *  0.0000     2          
    83  Na    c     -4.5078 *    -5.0036 *     5.0036 *  0.0000     2          
    84  Na    c      0.0000      -0.4959 *    -8.5197 *  0.0000     1          
    85  Na    c      0.0000       8.5197 *     0.4959 *  0.0000     1          
    86  O     c     -4.5078 *    -7.2575 *     0.4959 *  0.0000     2          
    87  Cl    c      2.2539 *     4.0119 *     7.2575 *  0.0000     2          
    88  Na    c      2.2539 *    -7.2575 *    -4.0119 *  0.0000     2          
    89  Cl    c      6.7617 *    -5.0036 *    -1.7580 *  0.0000     2          
    90  Na    c      6.7617 *     1.7580 *     5.0036 *  0.0000     2          
    91  O     c     -4.5078 *     6.2658 *    -4.0119 *  0.0000     2          
    92  O     c      0.0000       1.7580 *    -8.5197 *  0.0000     1          
    93  Na    c     -4.5078 *     1.7580 *     7.2575 *  0.0000     2          
    94  Na    c     -4.5078 *    -7.2575 *    -1.7580 *  0.0000     2          
    95  O     c      0.0000      -7.2575 *     5.0036 *  0.0000     1          
    96  Cl    c      6.7617 *    -5.0036 *     2.7498 *  0.0000     2          
    97  Na    c      6.7617 *    -2.7498 *     5.0036 *  0.0000     2          
    98  Na    c      0.0000       6.2658 *    -6.2658 *  0.0000     1          
    99  O     c      0.0000      -2.7498 *    -8.5197 *  0.0000     1          
   100  Na    c      4.5078 *    -2.7498 *     7.2575 *  0.0000     2          
   101  Na    c     -4.5078 *    -7.2575 *     2.7498 *  0.0000     2          
   102  Cl    c      2.2539 *     8.5197 *    -1.7580 *  0.0000     2          
   103  Na    c      2.2539 *     1.7580 *    -8.5197 *  0.0000     2          
   104  Na    c      9.0156 *    -0.4959 *     0.4959 *  0.0000     2          
   105  Cl    c      2.2539 *    -5.0036 *     7.2575 *  0.0000     2          
   106  Na    c      2.2539 *    -7.2575 *     5.0036 *  0.0000     2          
   107  O     c     -4.5078 *     6.2658 *     5.0036 *  0.0000     2          
   108  O     c      9.0156 *     1.7580 *     0.4959 *  0.0000     2          
   109  Na    c      6.7617 *     6.2658 *     0.4959 *  0.0000     2          
   110  Cl    c      2.2539 *     8.5197 *     2.7498 *  0.0000     2          
   111  Cl    c      6.7617 *    -0.4959 *    -6.2658 *  0.0000     2          
   112  Na    c      2.2539 *    -2.7498 *    -8.5197 *  0.0000     2          
   113  Na    c      9.0156 *     1.7580 *    -1.7580 *  0.0000     2          
   114  Na    c      0.0000       4.0119 *    -8.5197 *  0.0000     1          
   115  Na    c      0.0000       8.5197 *    -4.0119 *  0.0000     1          
   116  O     c     -4.5078 *    -7.2575 *    -4.0119 *  0.0000     2          
   117  O     c      9.0156 *    -2.7498 *     0.4959 *  0.0000     2          
   118  Na    c      0.0000      -0.4959 *     9.5114 *  0.0000     1          
   119  Na    c      0.0000      -9.5114 *     0.4959 *  0.0000     1          
   120  Na    c      0.0000       6.2658 *     7.2575 *  0.0000     1          
   121  Na    c      0.0000      -7.2575 *    -6.2658 *  0.0000     1          
   122  Na    c      9.0156 *    -2.7498 *    -1.7580 *  0.0000     2          
   123  Na    c      9.0156 *     1.7580 *     2.7498 *  0.0000     2          
   124  Na    c      4.5078 *    -0.4959 *    -8.5197 *  0.0000     2          
   125  Na    c     -4.5078 *     8.5197 *     0.4959 *  0.0000     2          
   126  O     c      0.0000       1.7580 *     9.5114 *  0.0000     1          
   127  O     c     -4.5078 *     1.7580 *    -8.5197 *  0.0000     2          
   128  Na    c      9.0156 *    -2.7498 *     2.7498 *  0.0000     2          
   129  Na    c      9.0156 *    -0.4959 *    -4.0119 *  0.0000     2          
   130  Na    c      9.0156 *     4.0119 *     0.4959 *  0.0000     2          
   131  Na    c      0.0000       8.5197 *     5.0036 *  0.0000     1          
   132  Na    c      0.0000      -5.0036 *    -8.5197 *  0.0000     1          
   133  O     c      0.0000      -2.7498 *     9.5114 *  0.0000     1          
   134  O     c     -4.5078 *    -7.2575 *     5.0036 *  0.0000     2          
   135  Cl    c      2.2539 *    -9.5114 *    -1.7580 *  0.0000     2          
   136  Na    c      2.2539 *     1.7580 *     9.5114 *  0.0000     2          
   137  Cl    c      6.7617 *    -0.4959 *     7.2575 *  0.0000     2          
   138  Na    c      6.7617 *    -7.2575 *     0.4959 *  0.0000     2          
   139  Na    c     -4.5078 *     6.2658 *    -6.2658 *  0.0000     2          
   140  O     c      9.0156 *     1.7580 *    -4.0119 *  0.0000     2          
   141  O     c      4.5078 *    -2.7498 *    -8.5197 *  0.0000     2          
   142  Na    c      6.7617 *     6.2658 *    -4.0119 *  0.0000     2          
   143  Cl    c      6.7617 *     4.0119 *    -6.2658 *  0.0000     2          
   144  Cl    c      2.2539 *    -9.5114 *     2.7498 *  0.0000     2          
   145  Na    c      2.2539 *    -2.7498 *     9.5114 *  0.0000     2          
   146  O     c      9.0156 *    -2.7498 *    -4.0119 *  0.0000     2          
   147  Na    c      0.0000      -7.2575 *     7.2575 *  0.0000     1          
   148  Na    c      0.0000       4.0119 *     9.5114 *  0.0000     1          
   149  Na    c      0.0000      -9.5114 *    -4.0119 *  0.0000     1          
   150  Na    c      9.0156 *    -0.4959 *     5.0036 *  0.0000     2          
   151  Na    c      9.0156 *    -5.0036 *     0.4959 *  0.0000     2          
   152  Na    c     -4.5078 *     4.0119 *    -8.5197 *  0.0000     2          
   153  Na    c     -4.5078 *     8.5197 *    -4.0119 *  0.0000     2          
   154  O     c      9.0156 *     1.7580 *     5.0036 *  0.0000     2          
   155  Na    c      6.7617 *     6.2658 *     5.0036 *  0.0000     2          
   156  Cl    c      6.7617 *    -5.0036 *    -6.2658 *  0.0000     2          
   157  Na    c     -4.5078 *    -0.4959 *     9.5114 *  0.0000     2          
   158  Na    c     -4.5078 *    -9.5114 *     0.4959 *  0.0000     2          
   159  O     c      0.0000       6.2658 *    -8.5197 *  0.0000     1          
   160  Na    c     -4.5078 *     6.2658 *     7.2575 *  0.0000     2          
   161  Na    c     -4.5078 *    -7.2575 *    -6.2658 *  0.0000     2          
   162  Na    c      9.0156 *     4.0119 *    -4.0119 *  0.0000     2          
   163  O     c     -4.5078 *     1.7580 *     9.5114 *  0.0000     2          
   164  O     c      9.0156 *    -2.7498 *     5.0036 *  0.0000     2          
   165  Cl    c      6.7617 *     4.0119 *     7.2575 *  0.0000     2          
   166  Na    c      6.7617 *    -7.2575 *    -4.0119 *  0.0000     2          
   167  Na    c      0.0000      -5.0036 *     9.5114 *  0.0000     1          
   168  Na    c      0.0000      -9.5114 *     5.0036 *  0.0000     1          
   169  O     c      0.0000      10.7736 *     0.4959 *  0.0000     1          
   170  Cl    c      2.2539 *     8.5197 *    -6.2658 *  0.0000     2          
   171  Na    c      2.2539 *     6.2658 *    -8.5197 *  0.0000     2          
   172  Na    c     -4.5078 *     8.5197 *     5.0036 *  0.0000     2          
   173  Na    c     -4.5078 *    -5.0036 *    -8.5197 *  0.0000     2          
   174  O     c     -4.5078 *    -2.7498 *     9.5114 *  0.0000     2          
   175  Na    c      0.0000      10.7736 *    -1.7580 *  0.0000     1          
   176  Na    c      0.0000       1.7580 *   -10.7736 *  0.0000     1          
   177  O     c      9.0156 *     6.2658 *     0.4959 *  0.0000     2          
   178  Na    c      2.2539 *    10.7736 *     0.4959 *  0.0000     2          
   179  Cl    c      2.2539 *    -0.4959 *   -10.7736 *  0.0000     2          
   180  Cl    c      6.7617 *     8.5197 *    -1.7580 *  0.0000     2          
   181  Na    c      6.7617 *     1.7580 *    -8.5197 *  0.0000     2          
   182  Na    c      9.0156 *     4.0119 *     5.0036 *  0.0000     2          
   183  Na    c      9.0156 *    -5.0036 *    -4.0119 *  0.0000     2          
   184  Cl    c      6.7617 *    -5.0036 *     7.2575 *  0.0000     2          
   185  Na    c      6.7617 *    -7.2575 *     5.0036 *  0.0000     2          
   186  Na    c      0.0000      10.7736 *     2.7498 *  0.0000     1          
   187  Na    c      9.0156 *     6.2658 *    -1.7580 *  0.0000     2          
   188  Na    c      0.0000      -2.7498 *   -10.7736 *  0.0000     1          
   189  Na    c      9.0156 *     1.7580 *    -6.2658 *  0.0000     2          
   190  O     c      0.0000      -7.2575 *    -8.5197 *  0.0000     1          
   191  Na    c     -4.5078 *    -7.2575 *     7.2575 *  0.0000     2          
   192  Cl    c      6.7617 *     8.5197 *     2.7498 *  0.0000     2          
   193  Na    c      6.7617 *    -2.7498 *    -8.5197 *  0.0000     2          
   194  Na    c     -4.5078 *     4.0119 *     9.5114 *  0.0000     2          
   195  Na    c     -4.5078 *    -9.5114 *    -4.0119 *  0.0000     2          
   196  Na    c      9.0156 *     6.2658 *     2.7498 *  0.0000     2          
   197  Na    c      9.0156 *    -2.7498 *    -6.2658 *  0.0000     2          
   198  O     c      0.0000       6.2658 *     9.5114 *  0.0000     1          
   199  Cl    c     11.2695 *    -0.4959 *    -1.7580 *  0.0000     2          
   200  Na    c     11.2695 *     1.7580 *     0.4959 *  0.0000     2          
   201  Cl    c      2.2539 *     8.5197 *     7.2575 *  0.0000     2          
   202  Na    c      2.2539 *    -7.2575 *    -8.5197 *  0.0000     2          
   203  Na    c      9.0156 *    -5.0036 *     5.0036 *  0.0000     2          
   204  O     c      0.0000      10.7736 *    -4.0119 *  0.0000     1          
   205  O     c      4.5078 *     6.2658 *    -8.5197 *  0.0000     2          
   206  O     c      9.0156 *    -7.2575 *     0.4959 *  0.0000     2          
   207  Cl    c      2.2539 *    -9.5114 *    -6.2658 *  0.0000     2          
   208  Cl    c     11.2695 *    -0.4959 *     2.7498 *  0.0000     2          
   209  Na    c      2.2539 *     6.2658 *     9.5114 *  0.0000     2          
   210  Na    c     11.2695 *    -2.7498 *     0.4959 *  0.0000     2          
   211  Na    c      4.5078 *    -5.0036 *     9.5114 *  0.0000     2          
   212  Na    c      4.5078 *    -9.5114 *     5.0036 *  0.0000     2          
   213  O     c      4.5078 *    10.7736 *     0.4959 *  0.0000     2          
   214  O     c      9.0156 *     6.2658 *    -4.0119 *  0.0000     2          
   215  Na    c      9.0156 *     1.7580 *     7.2575 *  0.0000     2          
   216  Na    c      9.0156 *    -7.2575 *    -1.7580 *  0.0000     2          
   217  Na    c      2.2539 *    10.7736 *    -4.0119 *  0.0000     2          
   218  Cl    c      2.2539 *     4.0119 *   -10.7736 *  0.0000     2          
   219  O     c      0.0000     -11.7653 *     0.4959 *  0.0000     1          
   220  Cl    c      6.7617 *    -9.5114 *    -1.7580 *  0.0000     2          
   221  Na    c      6.7617 *     1.7580 *     9.5114 *  0.0000     2          
   222  Na    c      4.5078 *    10.7736 *    -1.7580 *  0.0000     2          
   223  Na    c      4.5078 *     1.7580 *   -10.7736 *  0.0000     2          
   224  O     c      0.0000      10.7736 *     5.0036 *  0.0000     1          
   225  Na    c      9.0156 *    -2.7498 *     7.2575 *  0.0000     2          
   226  Na    c      9.0156 *    -7.2575 *     2.7498 *  0.0000     2          
   227  Na    c      0.0000       1.7580 *    11.7653 *  0.0000     1          
   228  Na    c      0.0000     -11.7653 *    -1.7580 *  0.0000     1          
   229  O     c      0.0000      -7.2575 *     9.5114 *  0.0000     1          
   230  Cl    c      6.7617 *    -9.5114 *     2.7498 *  0.0000     2          
   231  Na    c      6.7617 *    -2.7498 *     9.5114 *  0.0000     2          
   232  Cl    c      2.2539 *    -0.4959 *    11.7653 *  0.0000     2          
   233  Na    c      2.2539 *   -11.7653 *     0.4959 *  0.0000     2          
   234  Na    c      4.5078 *    10.7736 *     2.7498 *  0.0000     2          
   235  Na    c      4.5078 *    -2.7498 *   -10.7736 *  0.0000     2          
   236  Na    c      0.0000       8.5197 *    -8.5197 *  0.0000     1          
   237  O     c      4.5078 *    -7.2575 *    -8.5197 *  0.0000     2          
   238  O     c      9.0156 *     6.2658 *     5.0036 *  0.0000     2          
   239  Na    c      0.0000      -2.7498 *    11.7653 *  0.0000     1          
   240  Na    c      0.0000     -11.7653 *     2.7498 *  0.0000     1          
   241  Cl    c     11.2695 *     4.0119 *    -1.7580 *  0.0000     2          
   242  Na    c      2.2539 *    10.7736 *     5.0036 *  0.0000     2          
   243  Na    c     11.2695 *     1.7580 *    -4.0119 *  0.0000     2          
   244  Cl    c      2.2539 *    -5.0036 *   -10.7736 *  0.0000     2          
   245  Cl    c      2.2539 *    -9.5114 *     7.2575 *  0.0000     2          
   246  Na    c      2.2539 *    -7.2575 *     9.5114 *  0.0000     2          
   247  O     c     -4.5078 *     6.2658 *     9.5114 *  0.0000     2          
   248  O     c      9.0156 *    -7.2575 *    -4.0119 *  0.0000     2          
   249  Cl    c     11.2695 *     4.0119 *     2.7498 *  0.0000     2          
   250  Na    c     11.2695 *    -2.7498 *    -4.0119 *  0.0000     2          
   251  O     c      4.5078 *    10.7736 *    -4.0119 *  0.0000     2          
   252  Na    c      9.0156 *     8.5197 *     0.4959 *  0.0000     2          
   253  Na    c      9.0156 *    -0.4959 *    -8.5197 *  0.0000     2          
   254  O     c      0.0000     -11.7653 *    -4.0119 *  0.0000     1          
   255  Cl    c     11.2695 *    -5.0036 *    -1.7580 *  0.0000     2          
   256  Na    c     11.2695 *     1.7580 *     5.0036 *  0.0000     2          
   257  Na    c      0.0000      10.7736 *    -6.2658 *  0.0000     1          
   258  Na    c      0.0000       6.2658 *   -10.7736 *  0.0000     1          
   259  O     c      9.0156 *     1.7580 *    -8.5197 *  0.0000     2          
   260  Cl    c      6.7617 *     8.5197 *    -6.2658 *  0.0000     2          
   261  Na    c      6.7617 *     6.2658 *    -8.5197 *  0.0000     2          
   262  O     c      9.0156 *    -7.2575 *     5.0036 *  0.0000     2          
   263  O     c      4.5078 *   -11.7653 *     0.4959 *  0.0000     2          
   264  Cl    c     11.2695 *    -5.0036 *     2.7498 *  0.0000     2          
   265  Na    c     11.2695 *    -2.7498 *     5.0036 *  0.0000     2          
   266  Cl    c      2.2539 *     4.0119 *    11.7653 *  0.0000     2          
   267  Na    c      2.2539 *   -11.7653 *    -4.0119 *  0.0000     2          
   268  Na    c      9.0156 *     6.2658 *    -6.2658 *  0.0000     2          
   269  O     c      4.5078 *    10.7736 *     5.0036 *  0.0000     2          
   270  O     c      9.0156 *    -2.7498 *    -8.5197 *  0.0000     2          
   271  Na    c      4.5078 *     1.7580 *    11.7653 *  0.0000     2          
   272  Na    c      4.5078 *   -11.7653 *    -1.7580 *  0.0000     2          
   273  Na    c      6.7617 *    10.7736 *     0.4959 *  0.0000     2          
   274  Cl    c      6.7617 *    -0.4959 *   -10.7736 *  0.0000     2          
   275  Na    c      0.0000       8.5197 *     9.5114 *  0.0000     1          
   276  Na    c      0.0000      -9.5114 *    -8.5197 *  0.0000     1          
   277  O     c     -4.5078 *    -7.2575 *     9.5114 *  0.0000     2          
   278  O     c      0.0000     -11.7653 *     5.0036 *  0.0000     1          
   279  Na    c      4.5078 *     8.5197 *    -8.5197 *  0.0000     2          
   280  Na    c      4.5078 *    -2.7498 *    11.7653 *  0.0000     2          
   281  Na    c      4.5078 *   -11.7653 *     2.7498 *  0.0000     2          
   282  Cl    c     11.2695 *    -0.4959 *    -6.2658 *  0.0000     2          
   283  Na    c     11.2695 *     6.2658 *     0.4959 *  0.0000     2          
   284  Cl    c      2.2539 *    -5.0036 *    11.7653 *  0.0000     2          
   285  Na    c      2.2539 *   -11.7653 *     5.0036 *  0.0000     2          
   286  Na    c      0.0000      10.7736 *     7.2575 *  0.0000     1          
   287  Na    c      0.0000      -7.2575 *   -10.7736 *  0.0000     1          
   288  O     s      0.0000       1.7580 *     0.4959 *  0.0000     1          
   289  O     s      0.0000      -2.7498 *     0.4959 *  0.0000     1          
   290  Cl    s      2.2539 *    -0.4959 *    -1.7580 *  0.0000     2          
   291  Cl    s      2.2539 *    -0.4959 *     2.7498 *  0.0000     2          
   292  O     s      0.0000       1.7580 *    -4.0119 *  0.0000     1          
   293  O     s      0.0000      -2.7498 *    -4.0119 *  0.0000     1          
   294  O     s     -4.5078 *     1.7580 *     0.4959 *  0.0000     2          
   295  Cl    s      2.2539 *     4.0119 *    -1.7580 *  0.0000     2          
   296  O     s     -4.5078 *    -2.7498 *     0.4959 *  0.0000     2          
   297  O     s      0.0000       1.7580 *     5.0036 *  0.0000     1          
   298  Cl    s      2.2539 *     4.0119 *     2.7498 *  0.0000     2          
   299  O     s      0.0000      -2.7498 *     5.0036 *  0.0000     1          
   300  Cl    s      2.2539 *    -5.0036 *    -1.7580 *  0.0000     2          
   301  Cl    s      2.2539 *    -5.0036 *     2.7498 *  0.0000     2          
   302  O     s      0.0000       6.2658 *     0.4959 *  0.0000     1          
   303  O     s     -4.5078 *     1.7580 *    -4.0119 *  0.0000     2          
   304  O     s     -4.5078 *    -2.7498 *    -4.0119 *  0.0000     2          
   305  Cl    s      2.2539 *    -0.4959 *    -6.2658 *  0.0000     2          
   306  O     s     -4.5078 *     1.7580 *     5.0036 *  0.0000     2          
   307  Cl    s      6.7617 *    -0.4959 *    -1.7580 *  0.0000     2          
   308  O     s      0.0000      -7.2575 *     0.4959 *  0.0000     1          
   309  O     s     -4.5078 *    -2.7498 *     5.0036 *  0.0000     2          
   310  Cl    s      6.7617 *    -0.4959 *     2.7498 *  0.0000     2          
   311  O     s      0.0000       6.2658 *    -4.0119 *  0.0000     1          
   312  Cl    s      2.2539 *    -0.4959 *     7.2575 *  0.0000     2          
   313  O     s     -4.5078 *     6.2658 *     0.4959 *  0.0000     2          
   314  Cl    s      2.2539 *     4.0119 *    -6.2658 *  0.0000     2          
   315  O     s      0.0000       6.2658 *     5.0036 *  0.0000     1          
   316  Cl    s      6.7617 *     4.0119 *    -1.7580 *  0.0000     2          
   317  O     s      0.0000      -7.2575 *    -4.0119 *  0.0000     1          
   318  Cl    s      2.2539 *    -5.0036 *    -6.2658 *  0.0000     2          
   319  Cl    s      6.7617 *     4.0119 *     2.7498 *  0.0000     2          
   320  O     s     -4.5078 *    -7.2575 *     0.4959 *  0.0000     2          
   321  Cl    s      2.2539 *     4.0119 *     7.2575 *  0.0000     2          
   322  Cl    s      6.7617 *    -5.0036 *    -1.7580 *  0.0000     2          
   323  O     s     -4.5078 *     6.2658 *    -4.0119 *  0.0000     2          
   324  O     s      0.0000       1.7580 *    -8.5197 *  0.0000     1          
   325  O     s      0.0000      -7.2575 *     5.0036 *  0.0000     1          
   326  Cl    s      6.7617 *    -5.0036 *     2.7498 *  0.0000     2          
   327  O     s      0.0000      -2.7498 *    -8.5197 *  0.0000     1          
   328  Cl    s      2.2539 *     8.5197 *    -1.7580 *  0.0000     2          
   329  Cl    s      2.2539 *    -5.0036 *     7.2575 *  0.0000     2          
   330  O     s     -4.5078 *     6.2658 *     5.0036 *  0.0000     2          
   331  O     s      9.0156 *     1.7580 *     0.4959 *  0.0000     2          
   332  Cl    s      2.2539 *     8.5197 *     2.7498 *  0.0000     2          
   333  Cl    s      6.7617 *    -0.4959 *    -6.2658 *  0.0000     2          
   334  O     s     -4.5078 *    -7.2575 *    -4.0119 *  0.0000     2          
   335  O     s      9.0156 *    -2.7498 *     0.4959 *  0.0000     2          
   336  O     s      0.0000       1.7580 *     9.5114 *  0.0000     1          
   337  O     s     -4.5078 *     1.7580 *    -8.5197 *  0.0000     2          
   338  O     s      0.0000      -2.7498 *     9.5114 *  0.0000     1          
   339  O     s     -4.5078 *    -7.2575 *     5.0036 *  0.0000     2          
   340  Cl    s      2.2539 *    -9.5114 *    -1.7580 *  0.0000     2          
   341  Cl    s      6.7617 *    -0.4959 *     7.2575 *  0.0000     2          
   342  O     s      9.0156 *     1.7580 *    -4.0119 *  0.0000     2          
   343  O     s      4.5078 *    -2.7498 *    -8.5197 *  0.0000     2          
   344  Cl    s      6.7617 *     4.0119 *    -6.2658 *  0.0000     2          
   345  Cl    s      2.2539 *    -9.5114 *     2.7498 *  0.0000     2          
   346  O     s      9.0156 *    -2.7498 *    -4.0119 *  0.0000     2          
   347  O     s      9.0156 *     1.7580 *     5.0036 *  0.0000     2          
   348  Cl    s      6.7617 *    -5.0036 *    -6.2658 *  0.0000     2          
   349  O     s      0.0000       6.2658 *    -8.5197 *  0.0000     1          
   350  O     s     -4.5078 *     1.7580 *     9.5114 *  0.0000     2          
   351  O     s      9.0156 *    -2.7498 *     5.0036 *  0.0000     2          
   352  Cl    s      6.7617 *     4.0119 *     7.2575 *  0.0000     2          
   353  O     s      0.0000      10.7736 *     0.4959 *  0.0000     1          
   354  Cl    s      2.2539 *     8.5197 *    -6.2658 *  0.0000     2          
   355  O     s     -4.5078 *    -2.7498 *     9.5114 *  0.0000     2          
   356  O     s      9.0156 *     6.2658 *     0.4959 *  0.0000     2          
   357  Cl    s      2.2539 *    -0.4959 *   -10.7736 *  0.0000     2          
   358  Cl    s      6.7617 *     8.5197 *    -1.7580 *  0.0000     2          
   359  Cl    s      6.7617 *    -5.0036 *     7.2575 *  0.0000     2          
   360  O     s      0.0000      -7.2575 *    -8.5197 *  0.0000     1          
   361  Cl    s      6.7617 *     8.5197 *     2.7498 *  0.0000     2          
   362  O     s      0.0000       6.2658 *     9.5114 *  0.0000     1          
   363  Cl    s     11.2695 *    -0.4959 *    -1.7580 *  0.0000     2          
   364  Cl    s      2.2539 *     8.5197 *     7.2575 *  0.0000     2          
   365  O     s      0.0000      10.7736 *    -4.0119 *  0.0000     1          
   366  O     s      4.5078 *     6.2658 *    -8.5197 *  0.0000     2          
   367  O     s      9.0156 *    -7.2575 *     0.4959 *  0.0000     2          
   368  Cl    s      2.2539 *    -9.5114 *    -6.2658 *  0.0000     2          
   369  Cl    s     11.2695 *    -0.4959 *     2.7498 *  0.0000     2          
   370  O     s      4.5078 *    10.7736 *     0.4959 *  0.0000     2          
   371  O     s      9.0156 *     6.2658 *    -4.0119 *  0.0000     2          
   372  Cl    s      2.2539 *     4.0119 *   -10.7736 *  0.0000     2          
   373  O     s      0.0000     -11.7653 *     0.4959 *  0.0000     1          
   374  Cl    s      6.7617 *    -9.5114 *    -1.7580 *  0.0000     2          
   375  O     s      0.0000      10.7736 *     5.0036 *  0.0000     1          
   376  O     s      0.0000      -7.2575 *     9.5114 *  0.0000     1          
   377  Cl    s      6.7617 *    -9.5114 *     2.7498 *  0.0000     2          
   378  Cl    s      2.2539 *    -0.4959 *    11.7653 *  0.0000     2          
   379  O     s      4.5078 *    -7.2575 *    -8.5197 *  0.0000     2          
   380  O     s      9.0156 *     6.2658 *     5.0036 *  0.0000     2          
   381  Cl    s     11.2695 *     4.0119 *    -1.7580 *  0.0000     2          
   382  Cl    s      2.2539 *    -5.0036 *   -10.7736 *  0.0000     2          
   383  Cl    s      2.2539 *    -9.5114 *     7.2575 *  0.0000     2          
   384  O     s     -4.5078 *     6.2658 *     9.5114 *  0.0000     2          
   385  O     s      9.0156 *    -7.2575 *    -4.0119 *  0.0000     2          
   386  Cl    s     11.2695 *     4.0119 *     2.7498 *  0.0000     2          
   387  O     s      4.5078 *    10.7736 *    -4.0119 *  0.0000     2          
   388  O     s      0.0000     -11.7653 *    -4.0119 *  0.0000     1          
   389  Cl    s     11.2695 *    -5.0036 *    -1.7580 *  0.0000     2          
   390  O     s      9.0156 *     1.7580 *    -8.5197 *  0.0000     2          
   391  Cl    s      6.7617 *     8.5197 *    -6.2658 *  0.0000     2          
   392  O     s      9.0156 *    -7.2575 *     5.0036 *  0.0000     2          
   393  O     s      4.5078 *   -11.7653 *     0.4959 *  0.0000     2          
   394  Cl    s     11.2695 *    -5.0036 *     2.7498 *  0.0000     2          
   395  Cl    s      2.2539 *     4.0119 *    11.7653 *  0.0000     2          
   396  O     s      4.5078 *    10.7736 *     5.0036 *  0.0000     2          
   397  O     s      9.0156 *    -2.7498 *    -8.5197 *  0.0000     2          
   398  Cl    s      6.7617 *    -0.4959 *   -10.7736 *  0.0000     2          
   399  O     s     -4.5078 *    -7.2575 *     9.5114 *  0.0000     2          
   400  O     s      0.0000     -11.7653 *     5.0036 *  0.0000     1          
   401  Cl    s     11.2695 *    -0.4959 *    -6.2658 *  0.0000     2          
   402  Cl    s      2.2539 *    -5.0036 *    11.7653 *  0.0000     2          
--------------------------------------------------------------------------------

  Components of defect energy : 

--------------------------------------------------------------------------------
  Region 1 - region 1                   =     22.20456968 eV
  Region 1 - region 2a (unrelaxed)      =    -13.38414753 eV
  Region 1 - 2a (relaxed - correction)  =     -0.41949543 eV
  Region 1 (Total)                      =      8.40092671 eV
  Region 2a                             =      0.20967475 eV
  Region 2b                             =     -0.32934328 eV
--------------------------------------------------------------------------------
  Total defect energy                   =      8.28125818 eV
--------------------------------------------------------------------------------

  Largest displacement in region 2 =   0.0216 Angstroms


  Number of variables =     1101

  Maximum number of calculations  =        1000
  Maximum Hessian update interval =          10
  Maximum step size               =   1.0000000
  Maximum parameter tolerance     =   0.0000100
  Maximum function  tolerance     =   0.0000100
  Maximum gradient  tolerance     =   0.0010000

  Symmetry adapted optimisation

  Symmetry to be used for second derivatives

  Newton-Raphson optimiser to be used

  BFGS hessian update to be used

  Lower half triangular hessian to be used

  Start of defect optimisation :

  Cycle:      0 Defect Energy:   8.281258  Gnorm:     0.015142  CPU:   11.472
  ** Hessian calculated **
  Cycle:      1 Defect Energy:   7.608236  Gnorm:     0.013345  CPU:   28.743
  ** Hessian calculated **
  Cycle:      2 Defect Energy:   6.758377  Gnorm:     0.010742  CPU:   50.583
  ** Hessian calculated **
  Cycle:      3 Defect Energy:   5.834160  Gnorm:     0.003858  CPU:   63.479
  Cycle:      4 Defect Energy:   5.687683  Gnorm:     0.003434  CPU:   76.150
  Cycle:      5 Defect Energy:   5.636475  Gnorm:     0.002781  CPU:   78.950
  Cycle:      6 Defect Energy:   5.577987  Gnorm:     0.002461  CPU:   81.787
  Cycle:      7 Defect Energy:   5.505705  Gnorm:     0.002367  CPU:   84.432
  Cycle:      8 Defect Energy:   5.437001  Gnorm:     0.002238  CPU:   87.132
  Cycle:      9 Defect Energy:   5.375946  Gnorm:     0.002280  CPU:   89.686
  Cycle:     10 Defect Energy:   5.314131  Gnorm:     0.002308  CPU:   92.318
  Cycle:     11 Defect Energy:   5.244882  Gnorm:     0.002513  CPU:   94.778
  Cycle:     12 Defect Energy:   5.171984  Gnorm:     0.002498  CPU:   97.232
  ** Hessian calculated **
  Cycle:     13 Defect Energy:   5.095788  Gnorm:     0.002362  CPU:  103.069
  ** Hessian calculated **
  Cycle:     14 Defect Energy:   4.921276  Gnorm:     0.001916  CPU:  112.613
  Cycle:     15 Defect Energy:   4.781130  Gnorm:     0.001368  CPU:  115.418
  ** Hessian calculated **
  Cycle:     16 Defect Energy:   4.700415  Gnorm:     0.000972  CPU:  122.246
  Cycle:     17 Defect Energy:   4.658433  Gnorm:     0.000694  CPU:  124.887
  Cycle:     18 Defect Energy:   4.634921  Gnorm:     0.000483  CPU:  127.516
  Cycle:     19 Defect Energy:   4.623041  Gnorm:     0.000362  CPU:  129.998
  Cycle:     20 Defect Energy:   4.625176  Gnorm:     0.000359  CPU:  132.441
  ** Hessian calculated **
  Cycle:     21 Defect Energy:   4.624142  Gnorm:     0.000243  CPU:  138.250
  Cycle:     22 Defect Energy:   4.623204  Gnorm:     0.000210  CPU:  140.550
  Cycle:     23 Defect Energy:   4.622138  Gnorm:     0.000203  CPU:  142.533
  Cycle:     24 Defect Energy:   4.620989  Gnorm:     0.000205  CPU:  149.112
  Cycle:     25 Defect Energy:   4.620022  Gnorm:     0.000205  CPU:  151.962
  Cycle:     26 Defect Energy:   4.619176  Gnorm:     0.000210  CPU:  154.839
  Cycle:     27 Defect Energy:   4.618348  Gnorm:     0.000216  CPU:  157.691
  Cycle:     28 Defect Energy:   4.617550  Gnorm:     0.000212  CPU:  160.333
  Cycle:     29 Defect Energy:   4.616759  Gnorm:     0.000218  CPU:  162.882
  Cycle:     30 Defect Energy:   4.615964  Gnorm:     0.000219  CPU:  165.356
  ** Hessian calculated **
  Cycle:     31 Defect Energy:   4.614772  Gnorm:     0.000206  CPU:  171.299
  Cycle:     32 Defect Energy:   4.613151  Gnorm:     0.000189  CPU:  173.726
  Cycle:     33 Defect Energy:   4.610994  Gnorm:     0.000170  CPU:  176.026
  Cycle:     34 Defect Energy:   4.608001  Gnorm:     0.000144  CPU:  178.514
  Cycle:     35 Defect Energy:   4.604963  Gnorm:     0.000094  CPU:  184.932
  Cycle:     36 Defect Energy:   4.602793  Gnorm:     0.000119  CPU:  187.815
  Cycle:     37 Defect Energy:   4.600016  Gnorm:     0.000241  CPU:  190.778
  Cycle:     38 Defect Energy:   4.598408  Gnorm:     0.000345  CPU:  193.581
  Cycle:     39 Defect Energy:   4.597281  Gnorm:     0.000349  CPU:  196.150
  Cycle:     40 Defect Energy:   4.595099  Gnorm:     0.000315  CPU:  198.842
  ** Hessian calculated **
  Cycle:     41 Defect Energy:   4.594351  Gnorm:     0.000221  CPU:  204.936
  Cycle:     42 Defect Energy:   4.593639  Gnorm:     0.000197  CPU:  207.311
  Cycle:     43 Defect Energy:   4.592802  Gnorm:     0.000189  CPU:  209.714
  Cycle:     44 Defect Energy:   4.591798  Gnorm:     0.000195  CPU:  211.987
  Cycle:     45 Defect Energy:   4.590712  Gnorm:     0.000203  CPU:  216.466
  Cycle:     46 Defect Energy:   4.589737  Gnorm:     0.000215  CPU:  220.991
  Cycle:     47 Defect Energy:   4.588723  Gnorm:     0.000230  CPU:  223.877
  Cycle:     48 Defect Energy:   4.587502  Gnorm:     0.000238  CPU:  226.736
  Cycle:     49 Defect Energy:   4.586194  Gnorm:     0.000256  CPU:  229.411
  Cycle:     50 Defect Energy:   4.584532  Gnorm:     0.000269  CPU:  232.008
  ** Hessian calculated **
  Cycle:     51 Defect Energy:   4.583896  Gnorm:     0.000249  CPU:  238.089
  Cycle:     52 Defect Energy:   4.583027  Gnorm:     0.000240  CPU:  240.541
  Cycle:     53 Defect Energy:   4.581883  Gnorm:     0.000230  CPU:  242.871
  Cycle:     54 Defect Energy:   4.580243  Gnorm:     0.000220  CPU:  245.234
  Cycle:     55 Defect Energy:   4.578079  Gnorm:     0.000215  CPU:  247.536
  Cycle:     56 Defect Energy:   4.575024  Gnorm:     0.000219  CPU:  250.723
  Cycle:     57 Defect Energy:   4.570913  Gnorm:     0.000257  CPU:  256.185
  Cycle:     58 Defect Energy:   4.565113  Gnorm:     0.000318  CPU:  258.999
  Cycle:     59 Defect Energy:   4.557466  Gnorm:     0.000461  CPU:  261.834
  Cycle:     60 Defect Energy:   4.550392  Gnorm:     0.000596  CPU:  264.547
  ** Hessian calculated **
  Cycle:     61 Defect Energy:   4.544137  Gnorm:     0.000523  CPU:  271.032
  Cycle:     62 Defect Energy:   4.536147  Gnorm:     0.000495  CPU:  273.480
  Cycle:     63 Defect Energy:   4.525496  Gnorm:     0.000460  CPU:  275.970
  Cycle:     64 Defect Energy:   4.511929  Gnorm:     0.000439  CPU:  278.291
  Cycle:     65 Defect Energy:   4.495008  Gnorm:     0.000446  CPU:  280.596
  Cycle:     66 Defect Energy:   4.478091  Gnorm:     0.000500  CPU:  282.921
  Cycle:     67 Defect Energy:   4.462516  Gnorm:     0.000585  CPU:  287.608
  Cycle:     68 Defect Energy:   4.447880  Gnorm:     0.000664  CPU:  291.971
  Cycle:     69 Defect Energy:   4.434514  Gnorm:     0.000738  CPU:  294.912
  Cycle:     70 Defect Energy:   4.421786  Gnorm:     0.000795  CPU:  297.674
  ** Hessian calculated **
  Cycle:     71 Defect Energy:   4.392641  Gnorm:     0.000785  CPU:  304.134
  Cycle:     72 Defect Energy:   4.356888  Gnorm:     0.000746  CPU:  306.798
  Cycle:     73 Defect Energy:   4.342024  Gnorm:     0.000716  CPU:  309.261
  ** Hessian calculated **
  Cycle:     74 Defect Energy:   4.336541  Gnorm:     0.000643  CPU:  315.204
  Cycle:     75 Defect Energy:   4.329884  Gnorm:     0.000614  CPU:  317.474
  Cycle:     76 Defect Energy:   4.321592  Gnorm:     0.000581  CPU:  319.911
  Cycle:     77 Defect Energy:   4.312890  Gnorm:     0.000554  CPU:  326.050
  Cycle:     78 Defect Energy:   4.307562  Gnorm:     0.000524  CPU:  328.884
  Cycle:     79 Defect Energy:   4.304046  Gnorm:     0.000521  CPU:  331.852
  Cycle:     80 Defect Energy:   4.301233  Gnorm:     0.000516  CPU:  334.605
  Cycle:     81 Defect Energy:   4.298654  Gnorm:     0.000516  CPU:  337.179
  Cycle:     82 Defect Energy:   4.296143  Gnorm:     0.000516  CPU:  339.821
  Cycle:     83 Defect Energy:   4.293301  Gnorm:     0.000519  CPU:  342.572
  ** Hessian calculated **
  Cycle:     84 Defect Energy:   4.289206  Gnorm:     0.000488  CPU:  348.513
  Cycle:     85 Defect Energy:   4.281978  Gnorm:     0.000434  CPU:  350.954
  Cycle:     86 Defect Energy:   4.269594  Gnorm:     0.000331  CPU:  353.246
  Cycle:     87 Defect Energy:   4.260034  Gnorm:     0.000233  CPU:  355.541
  Cycle:     88 Defect Energy:   4.255027  Gnorm:     0.000167  CPU:  361.725
  Cycle:     89 Defect Energy:   4.252399  Gnorm:     0.000117  CPU:  365.148
  Cycle:     90 Defect Energy:   4.251022  Gnorm:     0.000084  CPU:  368.349
  Cycle:     91 Defect Energy:   4.251225  Gnorm:     0.000095  CPU:  371.556
  ** Hessian calculated **
  Cycle:     92 Defect Energy:   4.250136  Gnorm:     0.000065  CPU:  378.559
  Cycle:     93 Defect Energy:   4.249450  Gnorm:     0.000047  CPU:  381.023
  Cycle:     94 Defect Energy:   4.249078  Gnorm:     0.000045  CPU:  383.443
  ** Hessian calculated **
  Cycle:     95 Defect Energy:   4.249061  Gnorm:     0.000028  CPU:  391.944
  Cycle:     96 Defect Energy:   4.249042  Gnorm:     0.000025  CPU:  395.860
  Cycle:     97 Defect Energy:   4.249021  Gnorm:     0.000024  CPU:  398.720
  Cycle:     98 Defect Energy:   4.248995  Gnorm:     0.000026  CPU:  401.574
  Cycle:     99 Defect Energy:   4.248964  Gnorm:     0.000027  CPU:  404.378
  Cycle:    100 Defect Energy:   4.248943  Gnorm:     0.000028  CPU:  406.982
  Cycle:    101 Defect Energy:   4.248915  Gnorm:     0.000030  CPU:  409.689
  Cycle:    102 Defect Energy:   4.248895  Gnorm:     0.000030  CPU:  412.129
  Cycle:    103 Defect Energy:   4.248856  Gnorm:     0.000031  CPU:  414.602
  Cycle:    104 Defect Energy:   4.248831  Gnorm:     0.000033  CPU:  416.962
  ** Hessian calculated **
  Cycle:    105 Defect Energy:   4.248815  Gnorm:     0.000030  CPU:  422.746
  Cycle:    106 Defect Energy:   4.248805  Gnorm:     0.000029  CPU:  428.751
  Cycle:    107 Defect Energy:   4.248783  Gnorm:     0.000028  CPU:  431.673
  Cycle:    108 Defect Energy:   4.248765  Gnorm:     0.000028  CPU:  434.685
  Cycle:    109 Defect Energy:   4.248730  Gnorm:     0.000027  CPU:  437.514
  Cycle:    110 Defect Energy:   4.248703  Gnorm:     0.000028  CPU:  440.179
  Cycle:    111 Defect Energy:   4.248672  Gnorm:     0.000029  CPU:  442.840
  Cycle:    112 Defect Energy:   4.248645  Gnorm:     0.000030  CPU:  445.493
  Cycle:    113 Defect Energy:   4.248612  Gnorm:     0.000032  CPU:  447.997
  Cycle:    114 Defect Energy:   4.248565  Gnorm:     0.000036  CPU:  450.518
  ** Hessian calculated **


  **** Optimisation achieved ****


  Final defect energy  =        4.24855589
  Final defect Gnorm   =        0.00003372

  Components of defect energy : 

--------------------------------------------------------------------------------
  Region 1 - region 1                   =     17.84064626 eV
  Region 1 - region 2a (unrelaxed)      =    -13.08776087 eV
  Region 1 - 2a (relaxed - correction)  =     -0.35241033 eV
  Region 1 (Total)                      =      4.40047506 eV
  Region 2a                             =      0.17609242 eV
  Region 2b                             =     -0.32801160 eV
--------------------------------------------------------------------------------
  Total defect energy                   =      4.24855589 eV
--------------------------------------------------------------------------------

  Largest displacement in region 2 =   0.0216 Angstroms

  Final coordinates of region 1 :

--------------------------------------------------------------------------------
   No.  Atomic        x           y           z          Radius      Charge
        Label       (Angs)      (Angs)      (Angs)       (Angs)       (e) 
--------------------------------------------------------------------------------
     1  Na    c     2.253894    0.495857    1.758037    0.000000    1.000000
     2  O     c     2.253894    2.540363    2.392518    0.000000    0.183000
     3  O     c     2.253894   -2.056355    2.206349    0.000000    0.183000
     4  Cl    c     4.645066   -0.046338    0.016923    0.000000    1.485000
     5  Cl    c    -0.137279   -0.046338    0.016923    0.000000    1.485000
     6  Na    c     4.477987    2.544770    2.130112    0.000000    1.000000
     7  Na    c     0.029800    2.544770    2.130112    0.000000    1.000000
     8  Na    c     2.253894    2.556616    4.571021    0.000000    1.000000
     9  Na    c     2.253894   -2.221256   -0.006411    0.000000    1.000000
    10  Cl    c     4.583121   -0.006671    4.646009    0.000000    1.485000
    11  Cl    c    -0.075334   -0.006671    4.646009    0.000000    1.485000
    12  Na    c     4.495258   -2.104431    2.129490    0.000000    1.000000
    13  Na    c     0.012529   -2.104431    2.129490    0.000000    1.000000
    14  Na    c     2.253894   -1.749145    4.429324    0.000000    1.000000
    15  Na    c     2.253894    0.106420   -2.351150    0.000000    1.000000
    16  Na    c     2.253894    4.579269    1.625698    0.000000    1.000000
    17  O     c     2.253894    2.326704   -2.363925    0.000000    0.183000
    18  Na    c    -2.089094    0.042791    2.613807    0.000000    1.000000
    19  Na    c     6.596881    0.042791    2.613807    0.000000    1.000000
    20  O     c     2.253894   -2.190709   -2.250850    0.000000    0.183000
    21  O     c    -2.248343    2.292622    2.267881    0.000000    0.183000
    22  O     c     6.756130    2.292622    2.267881    0.000000    0.183000
    23  Cl    c     4.632389    4.679479    0.011942    0.000000    1.485000
    24  Cl    c    -0.124602    4.679479    0.011942    0.000000    1.485000
    25  Na    c     4.407697    2.247684   -1.792055    0.000000    1.000000
    26  Na    c     0.100090    2.247684   -1.792055    0.000000    1.000000
    27  Na    c     2.253894    0.042366    6.811112    0.000000    1.000000
    28  Na    c     2.253894   -4.370682    2.468634    0.000000    1.000000
    29  Na    c    -2.415037    1.888243    0.028186    0.000000    1.000000
    30  Na    c     6.922825    1.888243    0.028186    0.000000    1.000000
    31  O     c    -2.252896   -2.217952    2.269470    0.000000    0.183000
    32  O     c     6.760683   -2.217952    2.269470    0.000000    0.183000
    33  O     c     2.253894    2.290603    6.824198    0.000000    0.183000
    34  Cl    c     4.596807    4.596898    4.644933    0.000000    1.485000
    35  Cl    c    -0.089019    4.596898    4.644933    0.000000    1.485000
    36  Na    c     4.510410   -2.175358   -2.120325    0.000000    1.000000
    37  Na    c    -0.002623   -2.175358   -2.120325    0.000000    1.000000
    38  Na    c    -2.408663   -1.873204    0.009296    0.000000    1.000000
    39  Na    c     6.916450   -1.873204    0.009296    0.000000    1.000000
    40  Na    c    -2.138490    2.645156    4.514131    0.000000    1.000000
    41  Na    c     6.646277    2.645156    4.514131    0.000000    1.000000
    42  Na    c     2.253894    4.479905   -1.810925    0.000000    1.000000
    43  O     c     2.253894   -2.201606    6.703813    0.000000    0.183000
    44  Cl    c     4.457871   -4.470329   -0.007198    0.000000    1.485000
    45  Cl    c     0.049916   -4.470329   -0.007198    0.000000    1.485000
    46  Na    c     4.513780    2.185068    6.763470    0.000000    1.000000
    47  Na    c    -0.005993    2.185068    6.763470    0.000000    1.000000
    48  Na    c     6.604898   -2.611781    4.503752    0.000000    1.000000
    49  Na    c    -2.097111   -2.611781    4.503752    0.000000    1.000000
    50  Na    c    -2.204424    0.004812   -2.574908    0.000000    1.000000
    51  Na    c     6.712211    0.004812   -2.574908    0.000000    1.000000
    52  Na    c    -2.441357    4.531686    1.888025    0.000000    1.000000
    53  Na    c     6.949145    4.531686    1.888025    0.000000    1.000000
    54  Cl    c     4.489019   -4.545644    4.484373    0.000000    1.485000
    55  Cl    c     0.018769   -4.545644    4.484373    0.000000    1.485000
    56  Na    c     4.513002   -2.155074    6.753283    0.000000    1.000000
    57  Na    c    -0.005214   -2.155074    6.753283    0.000000    1.000000
    58  O     c     2.253894    6.778487    2.236652    0.000000    0.183000
    59  O     c    -2.197915    2.249213   -2.213396    0.000000    0.183000
    60  O     c     6.705702    2.249213   -2.213396    0.000000    0.183000
    61  Na    c     2.253894    4.531361    7.109416    0.000000    1.000000
    62  Na    c     2.253894   -4.460286   -2.293275    0.000000    1.000000
    63  Na    c     2.253894    7.251378   -0.003639    0.000000    1.000000
    64  Na    c     2.253894    2.637737   -4.530523    0.000000    1.000000
    65  O     c    -2.256643   -2.253709   -2.246919    0.000000    0.183000
    66  O     c     6.764430   -2.253709   -2.246919    0.000000    0.183000
    67  Na    c     4.516178    6.655290    2.305162    0.000000    1.000000
    68  Na    c    -0.008391    6.655290    2.305162    0.000000    1.000000
    69  Cl    c     4.572902   -0.121769   -4.588179    0.000000    1.485000
    70  Cl    c    -0.065114   -0.121769   -4.588179    0.000000    1.485000
    71  Na    c    -2.324694    0.008187    6.380687    0.000000    1.000000
    72  Na    c     6.832482    0.008187    6.380687    0.000000    1.000000
    73  Na    c    -2.295349   -4.463418    1.883107    0.000000    1.000000
    74  Na    c     6.803136   -4.463418    1.883107    0.000000    1.000000
    75  Na    c     2.253894    6.282548    4.469412    0.000000    1.000000
    76  Na    c     2.253894   -2.321186   -4.498804    0.000000    1.000000
    77  O     c    -2.263288    2.262761    6.763219    0.000000    0.183000
    78  O     c     6.771075    2.262761    6.763219    0.000000    0.183000
    79  Cl    c     9.089106    0.016018    0.039934    0.000000    1.485000
    80  Cl    c    -4.581319    0.016018    0.039934    0.000000    1.485000
    81  Na    c     9.006405    2.111500    2.476368    0.000000    1.000000
    82  Na    c    -4.498618    2.111500    2.476368    0.000000    1.000000
    83  Na    c     2.253894   -4.448936    6.409002    0.000000    1.000000
    84  Na    c    -2.254834    4.502660   -1.921872    0.000000    1.000000
    85  Na    c     6.762622    4.502660   -1.921872    0.000000    1.000000
    86  O     c     2.253894   -6.691057    2.255946    0.000000    0.183000
    87  O     c    -2.267967   -2.252916    6.754362    0.000000    0.183000
    88  O     c     6.775755   -2.252916    6.754362    0.000000    0.183000
    89  Cl    c     9.049452    0.012216    4.504318    0.000000    1.485000
    90  Cl    c    -4.541665    0.012216    4.504318    0.000000    1.485000
    91  Na    c     9.008873   -2.125271    2.481002    0.000000    1.000000
    92  Na    c    -4.501086   -2.125271    2.481002    0.000000    1.000000
    93  O     c     2.253894    6.750940   -2.233991    0.000000    0.183000
    94  Na    c     2.253894    2.115940    9.050108    0.000000    1.000000
    95  Na    c     2.253894   -6.516845    0.011330    0.000000    1.000000
    96  Cl    c     4.474483    0.013757    9.024784    0.000000    1.485000
    97  Cl    c     0.033304    0.013757    9.024784    0.000000    1.485000
    98  Na    c     4.507397   -6.619149    2.248069    0.000000    1.000000
    99  Na    c     0.000391   -6.619149    2.248069    0.000000    1.000000
   100  O     c    -2.270325    6.773800    2.262449    0.000000    0.183000
[...]
    322 y         -4.507787     -4.534184    -0.026397    Cartesian    0.59
    322 z          0.000000     -0.020482    -0.020482    Cartesian    0.00
    323 x         -2.253894     -2.256806    -0.002912    Cartesian    0.13
    323 y          6.761681      6.759778    -0.001903    Cartesian   -0.03
    323 z         -2.253894     -2.238291     0.015602    Cartesian   -0.69
    324 x          2.253894      2.253894     0.000000    Cartesian    0.00
    324 y          2.253894      2.258192     0.004299    Cartesian    0.19
    324 z         -6.761681     -6.785621    -0.023940    Cartesian    0.35
    325 x          2.253894      2.253894     0.000000    Cartesian    0.00
    325 y         -6.761681     -6.724747     0.036934    Cartesian   -0.55
    325 z          6.761681      6.738852    -0.022829    Cartesian   -0.34
    326 x          9.015574      9.052667     0.037093    Cartesian    0.41
    326 y         -4.507787     -4.504427     0.003361    Cartesian   -0.07
    326 z          4.507787      4.499076    -0.008711    Cartesian   -0.19
    327 x          2.253894      2.253894     0.000000    Cartesian    0.00
    327 y         -2.253894     -2.223348     0.030545    Cartesian   -1.36
    327 z         -6.761681     -6.761225     0.000456    Cartesian   -0.01
    328 x          4.507787      4.529786     0.021999    Cartesian    0.49
    328 y          9.015574      9.089989     0.074414    Cartesian    0.83
    328 z          0.000000      0.005893     0.005893    Cartesian    0.00
    329 x          4.507787      4.509167     0.001380    Cartesian    0.03
    329 y         -4.507787     -4.515691    -0.007904    Cartesian    0.18
    329 z          9.015574      9.063132     0.047558    Cartesian    0.53
    330 x         -2.253894     -2.266362    -0.012468    Cartesian    0.55
    330 y          6.761681      6.753887    -0.007794    Cartesian   -0.12
    330 z          6.761681      6.766980     0.005299    Cartesian    0.08
    331 x         11.269468     11.260862    -0.008606    Cartesian   -0.08
    331 y          2.253894      2.261038     0.007145    Cartesian    0.32
    331 z          2.253894      2.258633     0.004739    Cartesian    0.21
    332 x          4.507787      4.527226     0.019439    Cartesian    0.43
    332 y          9.015574      9.096554     0.080980    Cartesian    0.90
    332 z          4.507787      4.551406     0.043619    Cartesian    0.97
    333 x          9.015574      9.073241     0.057667    Cartesian    0.64
    333 y          0.000000     -0.004914    -0.004914    Cartesian    0.00
    333 z         -4.507787     -4.489069     0.018718    Cartesian   -0.42
    334 x         -2.253894     -2.254123    -0.000229    Cartesian    0.01
    334 y         -6.761681     -6.754303     0.007378    Cartesian   -0.11
    334 z         -2.253894     -2.227823     0.026071    Cartesian   -1.16
    335 x         11.269468     11.270606     0.001138    Cartesian    0.01
    335 y         -2.253894     -2.251413     0.002481    Cartesian   -0.11
    335 z          2.253894      2.256171     0.002277    Cartesian    0.10
    336 x          2.253894      2.253894     0.000000    Cartesian    0.00
    336 y          2.253894      2.262191     0.008297    Cartesian    0.37
    336 z         11.269468     11.277059     0.007591    Cartesian    0.07
    337 x         -2.253894     -2.233564     0.020329    Cartesian   -0.90
    337 y          2.253894      2.248246    -0.005648    Cartesian   -0.25
    337 z         -6.761681     -6.710404     0.051277    Cartesian   -0.76
    338 x          2.253894      2.253894     0.000000    Cartesian    0.00
    338 y         -2.253894     -2.262186    -0.008292    Cartesian    0.37
    338 z         11.269468     11.247854    -0.021614    Cartesian   -0.19
    339 x         -2.253894     -2.254649    -0.000755    Cartesian    0.03
    339 y         -6.761681     -6.723226     0.038455    Cartesian   -0.57
    339 z          6.761681      6.760422    -0.001259    Cartesian   -0.02
    340 x          4.507787      4.505106    -0.002681    Cartesian   -0.06
    340 y         -9.015574     -9.039314    -0.023740    Cartesian    0.26
    340 z          0.000000     -0.001730    -0.001730    Cartesian    0.00
    341 x          9.015574      9.063874     0.048300    Cartesian    0.54
    341 y          0.000000      0.008099     0.008099    Cartesian    0.00
    341 z          9.015574      9.087433     0.071858    Cartesian    0.80
    342 x         11.269468     11.241324    -0.028144    Cartesian   -0.25
    342 y          2.253894      2.251173    -0.002721    Cartesian   -0.12
    342 z         -2.253894     -2.251947     0.001946    Cartesian   -0.09
    343 x          6.761681      6.766977     0.005296    Cartesian    0.08
    343 y         -2.253894     -2.264517    -0.010623    Cartesian    0.47
    343 z         -6.761681     -6.742992     0.018689    Cartesian   -0.28
    344 x          9.015574      9.072295     0.056721    Cartesian    0.63
    344 y          4.507787      4.512164     0.004377    Cartesian    0.10
    344 z         -4.507787     -4.499563     0.008224    Cartesian   -0.18
    345 x          4.507787      4.518512     0.010725    Cartesian    0.24
    345 y         -9.015574     -9.043090    -0.027515    Cartesian    0.31
    345 z          4.507787      4.536886     0.029099    Cartesian    0.65
    346 x         11.269468     11.257019    -0.012449    Cartesian   -0.11
    346 y         -2.253894     -2.248987     0.004907    Cartesian   -0.22
    346 z         -2.253894     -2.248626     0.005268    Cartesian   -0.23
    347 x         11.269468     11.275722     0.006254    Cartesian    0.06
    347 y          2.253894      2.260618     0.006724    Cartesian    0.30
    347 z          6.761681      6.750411    -0.011270    Cartesian   -0.17
    348 x          9.015574      9.038964     0.023390    Cartesian    0.26
    348 y         -4.507787     -4.514558    -0.006771    Cartesian    0.15
    348 z         -4.507787     -4.523562    -0.015774    Cartesian    0.35
    349 x          2.253894      2.253894     0.000000    Cartesian    0.00
    349 y          6.761681      6.758345    -0.003336    Cartesian   -0.05
    349 z         -6.761681     -6.752955     0.008726    Cartesian   -0.13
    350 x         -2.253894     -2.257990    -0.004096    Cartesian    0.18
    350 y          2.253894      2.243735    -0.010159    Cartesian   -0.45
    350 z         11.269468     11.262872    -0.006596    Cartesian   -0.06
    351 x         11.269468     11.269946     0.000478    Cartesian    0.00
    351 y         -2.253894     -2.258458    -0.004565    Cartesian    0.20
    351 z          6.761681      6.744794    -0.016887    Cartesian   -0.25
    352 x          9.015574      9.062854     0.047279    Cartesian    0.52
    352 y          4.507787      4.536304     0.028517    Cartesian    0.63
    352 z          9.015574      9.009952    -0.005622    Cartesian   -0.06
    353 x          2.253894      2.253894     0.000000    Cartesian    0.00
    353 y         11.269468     11.262310    -0.007158    Cartesian   -0.06
    353 z          2.253894      2.263334     0.009440    Cartesian    0.42
    354 x          4.507787      4.514922     0.007134    Cartesian    0.16
    354 y          9.015574      9.080155     0.064580    Cartesian    0.72
    354 z         -4.507787     -4.513503    -0.005716    Cartesian    0.13
    355 x         -2.253894     -2.253872     0.000022    Cartesian   -0.00
    355 y         -2.253894     -2.235197     0.018697    Cartesian   -0.83
    355 z         11.269468     11.254000    -0.015468    Cartesian   -0.14
    356 x         11.269468     11.265388    -0.004080    Cartesian   -0.04
    356 y          6.761681      6.766023     0.004342    Cartesian    0.06
    356 z          2.253894      2.255234     0.001340    Cartesian    0.06
    357 x          4.507787      4.490847    -0.016940    Cartesian   -0.38
    357 y          0.000000      0.005461     0.005461    Cartesian    0.00
    357 z         -9.015574     -9.085114    -0.069539    Cartesian    0.77
    358 x          9.015574      9.066367     0.050792    Cartesian    0.56
    358 y          9.015574      9.003906    -0.011668    Cartesian   -0.13
    358 z          0.000000      0.005665     0.005665    Cartesian    0.00
    359 x          9.015574      9.051257     0.035683    Cartesian    0.40
    359 y         -4.507787     -4.530150    -0.022363    Cartesian    0.50
    359 z          9.015574      9.018045     0.002471    Cartesian    0.03
    360 x          2.253894      2.253894     0.000000    Cartesian    0.00
    360 y         -6.761681     -6.760976     0.000705    Cartesian   -0.01
    360 z         -6.761681     -6.753158     0.008523    Cartesian   -0.13
    361 x          9.015574      9.033594     0.018019    Cartesian    0.20
    361 y          9.015574      9.043652     0.028078    Cartesian    0.31
    361 z          4.507787      4.494962    -0.012826    Cartesian   -0.28
    362 x          2.253894      2.253894     0.000000    Cartesian    0.00
    362 y          6.761681      6.776493     0.014813    Cartesian    0.22
    362 z         11.269468     11.260189    -0.009279    Cartesian   -0.08
    363 x         13.523362     13.610362     0.087000    Cartesian    0.64
    363 y          0.000000     -0.008064    -0.008064    Cartesian    0.00
    363 z          0.000000      0.002970     0.002970    Cartesian    0.00
    364 x          4.507787      4.518789     0.011002    Cartesian    0.24
    364 y          9.015574      9.040779     0.025204    Cartesian    0.28
    364 z          9.015574      9.073394     0.057820    Cartesian    0.64
    365 x          2.253894      2.253894     0.000000    Cartesian    0.00
    365 y         11.269468     11.255195    -0.014273    Cartesian   -0.13
    365 z         -2.253894     -2.268842    -0.014949    Cartesian    0.66
    366 x          6.761681      6.774042     0.012361    Cartesian    0.18
    366 y          6.761681      6.745466    -0.016215    Cartesian   -0.24
    366 z         -6.761681     -6.760569     0.001112    Cartesian   -0.02
    367 x         11.269468     11.266120    -0.003348    Cartesian   -0.03
    367 y         -6.761681     -6.759908     0.001773    Cartesian   -0.03
    367 z          2.253894      2.250629    -0.003264    Cartesian   -0.14
    368 x          4.507787      4.538678     0.030890    Cartesian    0.69
    368 y         -9.015574     -9.052456    -0.036882    Cartesian    0.41
    368 z         -4.507787     -4.508091    -0.000304    Cartesian    0.01
    369 x         13.523362     13.517529    -0.005832    Cartesian   -0.04
    369 y          0.000000     -0.004816    -0.004816    Cartesian    0.00
    369 z          4.507787      4.561401     0.053614    Cartesian    1.19
    370 x          6.761681      6.753066    -0.008615    Cartesian   -0.13
    370 y         11.269468     11.262580    -0.006888    Cartesian   -0.06
    370 z          2.253894      2.272625     0.018732    Cartesian    0.83
    371 x         11.269468     11.275560     0.006092    Cartesian    0.05
    371 y          6.761681      6.765182     0.003502    Cartesian    0.05
    371 z         -2.253894     -2.241056     0.012838    Cartesian   -0.57
    372 x          4.507787      4.529493     0.021706    Cartesian    0.48
    372 y          4.507787      4.497124    -0.010663    Cartesian   -0.24
    372 z         -9.015574     -9.019879    -0.004305    Cartesian    0.05
    373 x          2.253894      2.253894     0.000000    Cartesian    0.00
    373 y        -11.269468    -11.245460     0.024008    Cartesian   -0.21
    373 z          2.253894      2.236845    -0.017049    Cartesian   -0.76
    374 x          9.015574      9.067984     0.052409    Cartesian    0.58
    374 y         -9.015574     -9.016347    -0.000773    Cartesian    0.01
    374 z          0.000000     -0.003359    -0.003359    Cartesian    0.00
    375 x          2.253894      2.253894     0.000000    Cartesian    0.00
    375 y         11.269468     11.258913    -0.010555    Cartesian   -0.09
    375 z          6.761681      6.747519    -0.014161    Cartesian   -0.21
    376 x          2.253894      2.253894     0.000000    Cartesian    0.00
    376 y         -6.761681     -6.745817     0.015864    Cartesian   -0.23
    376 z         11.269468     11.268265    -0.001203    Cartesian   -0.01
    377 x          9.015574      9.002556    -0.013019    Cartesian   -0.14
    377 y         -9.015574     -9.049117    -0.033543    Cartesian    0.37
    377 z          4.507787      4.512586     0.004798    Cartesian    0.11
    378 x          4.507787      4.500138    -0.007649    Cartesian   -0.17
    378 y          0.000000     -0.021329    -0.021329    Cartesian    0.00
    378 z         13.523362     13.523540     0.000179    Cartesian    0.00
    379 x          6.761681      6.764127     0.002446    Cartesian    0.04
    379 y         -6.761681     -6.745061     0.016620    Cartesian   -0.25
    379 z         -6.761681     -6.766520    -0.004839    Cartesian    0.07
    380 x         11.269468     11.275246     0.005778    Cartesian    0.05
    380 y          6.761681      6.755512    -0.006169    Cartesian   -0.09
    380 z          6.761681      6.772779     0.011098    Cartesian    0.16
    381 x         13.523362     13.596201     0.072839    Cartesian    0.54
    381 y          4.507787      4.506122    -0.001665    Cartesian   -0.04
    381 z          0.000000      0.010610     0.010610    Cartesian    0.00
    382 x          4.507787      4.526965     0.019178    Cartesian    0.43
    382 y         -4.507787     -4.553008    -0.045221    Cartesian    1.00
    382 z         -9.015574     -9.014319     0.001255    Cartesian   -0.01
    383 x          4.507787      4.532459     0.024672    Cartesian    0.55
    383 y         -9.015574     -9.034750    -0.019176    Cartesian    0.21
    383 z          9.015574      9.035629     0.020055    Cartesian    0.22
    384 x         -2.253894     -2.257601    -0.003707    Cartesian    0.16
    384 y          6.761681      6.771308     0.009627    Cartesian    0.14
    384 z         11.269468     11.250739    -0.018729    Cartesian   -0.17
    385 x         11.269468     11.276277     0.006809    Cartesian    0.06
    385 y         -6.761681     -6.761123     0.000558    Cartesian   -0.01
    385 z         -2.253894     -2.253519     0.000375    Cartesian   -0.02
    386 x         13.523362     13.554560     0.031199    Cartesian    0.23
    386 y          4.507787      4.531567     0.023780    Cartesian    0.53
    386 z          4.507787      4.519785     0.011998    Cartesian    0.27
    387 x          6.761681      6.770568     0.008887    Cartesian    0.13
    387 y         11.269468     11.256429    -0.013039    Cartesian   -0.12
    387 z         -2.253894     -2.259148    -0.005255    Cartesian    0.23
    388 x          2.253894      2.253894     0.000000    Cartesian    0.00
    388 y        -11.269468    -11.267769     0.001699    Cartesian   -0.02
    388 z         -2.253894     -2.249980     0.003914    Cartesian   -0.17
    389 x         13.523362     13.586257     0.062896    Cartesian    0.47
    389 y         -4.507787     -4.493489     0.014299    Cartesian   -0.32
    389 z          0.000000     -0.001350    -0.001350    Cartesian    0.00
    390 x         11.269468     11.267387    -0.002081    Cartesian   -0.02
    390 y          2.253894      2.258567     0.004674    Cartesian    0.21
    390 z         -6.761681     -6.750380     0.011300    Cartesian   -0.17
    391 x          9.015574      9.018716     0.003142    Cartesian    0.03
    391 y          9.015574      9.062466     0.046891    Cartesian    0.52
    391 z         -4.507787     -4.513069    -0.005282    Cartesian    0.12
    392 x         11.269468     11.276921     0.007453    Cartesian    0.07
    392 y         -6.761681     -6.757968     0.003713    Cartesian   -0.05
    392 z          6.761681      6.765130     0.003450    Cartesian    0.05
    393 x          6.761681      6.759817    -0.001864    Cartesian   -0.03
    393 y        -11.269468    -11.255243     0.014225    Cartesian   -0.13
    393 z          2.253894      2.280525     0.026632    Cartesian    1.18
    394 x         13.523362     13.539368     0.016006    Cartesian    0.12
    394 y         -4.507787     -4.545616    -0.037829    Cartesian    0.84
    394 z          4.507787      4.523721     0.015933    Cartesian    0.35
    395 x          4.507787      4.527422     0.019635    Cartesian    0.44
    395 y          4.507787      4.507852     0.000065    Cartesian    0.00
    395 z         13.523362     13.593171     0.069809    Cartesian    0.52
    396 x          6.761681      6.765538     0.003857    Cartesian    0.06
    396 y         11.269468     11.273491     0.004023    Cartesian    0.04
    396 z          6.761681      6.755953    -0.005728    Cartesian   -0.08
    397 x         11.269468     11.274379     0.004910    Cartesian    0.04
    397 y         -2.253894     -2.257605    -0.003711    Cartesian    0.16
    397 z         -6.761681     -6.753662     0.008018    Cartesian   -0.12
    398 x          9.015574      9.001336    -0.014239    Cartesian   -0.16
    398 y          0.000000     -0.009252    -0.009252    Cartesian    0.00
    398 z         -9.015574     -9.112221    -0.096646    Cartesian    1.07
    399 x         -2.253894     -2.258580    -0.004686    Cartesian    0.21
    399 y         -6.761681     -6.773303    -0.011622    Cartesian    0.17
    399 z         11.269468     11.248163    -0.021305    Cartesian   -0.19
    400 x          2.253894      2.253894     0.000000    Cartesian    0.00
    400 y        -11.269468    -11.245959     0.023509    Cartesian   -0.21
    400 z          6.761681      6.775992     0.014311    Cartesian    0.21
    401 x         13.523362     13.527860     0.004499    Cartesian    0.03
    401 y          0.000000      0.000169     0.000169    Cartesian    0.00
    401 z         -4.507787     -4.530042    -0.022255    Cartesian    0.49
    402 x          4.507787      4.499089    -0.008698    Cartesian   -0.19
    402 y         -4.507787     -4.512208    -0.004420    Cartesian    0.10
    402 z         13.523362     13.577472     0.054111    Cartesian    0.40
--------------------------------------------------------------------------------


  Time to end of optimisation  =      456.4233 seconds


  Peak dynamic memory used =     150.38 MB 


  Timing analysis for GULP :

--------------------------------------------------------------------------------
  Task / Subroutine                                          Time (Seconds)
--------------------------------------------------------------------------------
  Calculation of reciprocal space energy and derivatives          0.0004
  Calculation of reciprocal space energy using symmetry           0.0005
  Calculation of real space energy and derivatives                0.0021
  Calculation of real space energy using symmetry                 0.0051
  Calculation for region 1 energy and derivatives (2-b)         164.8073
  Calculation for region 2a energy                              275.8916
  Calculation for region 2b energy                                0.0399
  Calculation and manipulation of Hessian matrix                  0.4068
  Calculation of matrix inversion                                14.2872
  Symmetry generation of equivalent positions                     0.0025
--------------------------------------------------------------------------------
  Total CPU time                                                456.4234
--------------------------------------------------------------------------------


  Dump file written as Na3OCl.grs


  Job Finished at 14:24.23  3rd December   2020                               

