********************************************************************************
*                       GENERAL UTILITY LATTICE PROGRAM                        *
*                                 Julian Gale                                  *
*                       Curtin Institute for Computation                       *
*                    School of Molecular and Life Sciences                     *
*                    Curtin University, Western Australia                      *
********************************************************************************
* Version = 5.2.0 * Last modified =  10th September 2020                       *
********************************************************************************
*  optimise     - perform optimisation run                                     *
*  conp         - constant pressure calculation                                *
*  property     - calculate properties for final geometry                      *
*  defect       - perform defect calculation after bulk run                    *
*  compare      - compare initial and final structures                         *
********************************************************************************

  Job Started  at 14:21.36  3rd December   2020                               

  Number of CPUs =     1


  Total number of configurations input =      1

********************************************************************************
*  Input for Configuration =   1                                               *
********************************************************************************

  Formula = ClONa3                                                      

  Number of irreducible atoms/shells =       5


  Total number atoms/shells =       7

  Dimensionality = 3               :  Bulk   


  Symmetry :

  Crystal family                   :  Cubic       
  Crystal class  (Groth - 1921)    :  Cubic Hexakisoctahedral              

  Space group (centrosymmetric)    :  P M 3 M         

  Patterson group                  :  P m -3 m 

  Cartesian lattice vectors (Angstroms) :

        4.504000    0.000000    0.000000
        0.000000    4.504000    0.000000
        0.000000    0.000000    4.504000

  Cell parameters (Angstroms/Degrees):

  a =       4.5040    alpha =  90.0000
  b =       4.5040    beta  =  90.0000
  c =       4.5040    gamma =  90.0000

  Initial cell volume =          91.368216 Angs**3

  Temperature of configuration =   0.00     K 

  Pressure of configuration =         0.000 GPa 

  Fractional coordinates of asymmetric unit :

--------------------------------------------------------------------------------
   No.  Atomic       x           y          z         Charge      Occupancy
        Label      (Frac)      (Frac)     (Frac)        (e)         (Frac)  
--------------------------------------------------------------------------------
      1 Cl    c    0.000000    0.000000    0.000000     1.48500    1.000000    
      2 O     c    0.500000    0.500000    0.500000     0.18300    1.000000    
      3 Na    c    0.500000    0.500000    0.000000     1.00000    1.000000    
      4 Cl    s    0.000000    0.000000    0.000000    -2.48500    1.000000    
      5 O     s    0.500000    0.500000    0.500000    -2.18300    1.000000    
--------------------------------------------------------------------------------


  Constraints : 

--------------------------------------------------------------------------------
  Constraint no.      Unconstrained     Constrained    Coefficient    Offset
                         Variable         Variable
--------------------------------------------------------------------------------
           1              Strain 1        Strain 2       1.00000      0.0000
           2              Strain 1        Strain 3       1.00000      0.0000
--------------------------------------------------------------------------------


********************************************************************************
*  General input information                                                   *
********************************************************************************

  Species output for all configurations : 

--------------------------------------------------------------------------------
  Species    Type    Atomic    Atomic    Charge       Radii (Angs)     Library
                     Number     Mass       (e)     Cova   Ionic  VDW   Symbol
--------------------------------------------------------------------------------
    Na       Core       11      22.99   1.000000   0.970  0.000  2.300          
    O        Core        8      16.00   0.183000   0.730  0.000  1.360          
    O        Shell       8       0.00  -2.183000   0.730  0.000  0.000          
    Cl       Core       17      35.45   1.485000   0.990  0.000  1.650          
    Cl       Shell      17       0.00  -2.485000   0.990  0.000  0.000          
    Mg       Core       12      24.31   0.415000   1.100  0.000  0.000          
    Mg       Shell      12       0.00   1.585000   1.100  0.000  0.000          
    Ca       Core       20      40.08  -1.135000   0.990  0.000  0.000          
    Ca       Shell      20       0.00   3.135000   0.990  0.000  0.000          
    Sr       Core       38      87.62  -1.251000   1.120  0.000  0.000          
    Sr       Shell      38       0.00   3.251000   1.120  0.000  0.000          
    Ba       Core       56     137.33  -7.203000   1.340  0.000  0.000          
    Ba       Shell      56       0.00   9.203000   1.340  0.000  0.000          
--------------------------------------------------------------------------------


  Lattice summation method               =    Ewald          (3-D)
                                         =    Parry          (2-D)
                                         =    Saunders et al (1-D)
  Accuracy factor for lattice sums       =   12.000


  Analytic derivatives to be used

  Time limit = Infinity

  Maximum range for interatomic potentials =    100000.000000 Angstroms

  General interatomic potentials :

--------------------------------------------------------------------------------
Atom  Types   Potential      Parameter       Value         Units   Cutoffs(Ang)
  1     2                                                            Min /  Max 
--------------------------------------------------------------------------------
O    c O    s Spring (c-s)  Spring k 2       593.71600    eV*Ang^-2 0.000  0.800
                            Spring k 4       0.0000000    eV*Ang^-4 
--------------------------------------------------------------------------------
Cl   c Cl   s Spring (c-s)  Spring k 2       29.380000    eV*Ang^-2 0.000  0.800
                            Spring k 4       0.0000000    eV*Ang^-4 
--------------------------------------------------------------------------------
Mg   c Mg   s Spring (c-s)  Spring k 2       361.60000    eV*Ang^-2 0.000  0.800
                            Spring k 4       0.0000000    eV*Ang^-4 
--------------------------------------------------------------------------------
Ca   c Ca   s Spring (c-s)  Spring k 2       110.20000    eV*Ang^-2 0.000  0.800
                            Spring k 4       0.0000000    eV*Ang^-4 
--------------------------------------------------------------------------------
Sr   c Sr   s Spring (c-s)  Spring k 2       71.700000    eV*Ang^-2 0.000  0.800
                            Spring k 4       0.0000000    eV*Ang^-4 
--------------------------------------------------------------------------------
Ba   c Ba   s Spring (c-s)  Spring k 2       495.20000    eV*Ang^-2 0.000  0.800
                            Spring k 4       0.0000000    eV*Ang^-4 
--------------------------------------------------------------------------------
Na   c Na   c Buckingham    Buckingham A     1788.1900    eV        0.000 12.000
                            Buckingham rho  0.15900000    Ang       
                            Buckingham C     0.0000000    eV*Ang^6  
--------------------------------------------------------------------------------
Na   c O    s Buckingham    Buckingham A     1226.8400    eV        0.000 12.000
                            Buckingham rho  0.30700000    Ang       
                            Buckingham C     0.0000000    eV*Ang^6  
--------------------------------------------------------------------------------
Na   c Cl   s Buckingham    Buckingham A     2314.7000    eV        0.000 12.000
                            Buckingham rho  0.29000000    Ang       
                            Buckingham C     0.0000000    eV*Ang^6  
--------------------------------------------------------------------------------
O    s O    s Buckingham    Buckingham A     22764.300    eV        0.000 12.000
                            Buckingham rho  0.14900000    Ang       
                            Buckingham C     13.190000    eV*Ang^6  
--------------------------------------------------------------------------------
O    s Cl   s Buckingham    Buckingham A     8286.9100    eV        0.000 12.000
                            Buckingham rho  0.25900000    Ang       
                            Buckingham C     62.200000    eV*Ang^6  
--------------------------------------------------------------------------------
Cl   s Cl   s Buckingham    Buckingham A     1227.2000    eV        0.000 12.000
                            Buckingham rho  0.32100000    Ang       
                            Buckingham C     14.530000    eV*Ang^6  
--------------------------------------------------------------------------------
O    s Mg   s Buckingham    Buckingham A     1428.5000    eV        0.000 12.000
                            Buckingham rho  0.29450000    Ang       
                            Buckingham C     0.0000000    eV*Ang^6  
--------------------------------------------------------------------------------
Mg   s Cl   s Buckingham    Buckingham A     4914.5400    eV        0.000 12.000
                            Buckingham rho  0.25700000    Ang       
                            Buckingham C     0.0000000    eV*Ang^6  
--------------------------------------------------------------------------------
O    s Ca   s Buckingham    Buckingham A     1090.4000    eV        0.000 12.000
                            Buckingham rho  0.34370000    Ang       
                            Buckingham C     0.0000000    eV*Ang^6  
--------------------------------------------------------------------------------
Cl   s Ca   s Buckingham    Buckingham A     2302.0000    eV        0.000 12.000
                            Buckingham rho  0.34020000    Ang       
                            Buckingham C     0.0000000    eV*Ang^6  
--------------------------------------------------------------------------------
O    s Sr   s Buckingham    Buckingham A     959.10000    eV        0.000 12.000
                            Buckingham rho  0.37210000    Ang       
                            Buckingham C     0.0000000    eV*Ang^6  
--------------------------------------------------------------------------------
Cl   s Sr   s Buckingham    Buckingham A     2191.0900    eV        0.000 12.000
                            Buckingham rho  0.34570000    Ang       
                            Buckingham C     0.0000000    eV*Ang^6  
--------------------------------------------------------------------------------
O    s Ba   s Buckingham    Buckingham A     905.70000    eV        0.000 12.000
                            Buckingham rho  0.39760000    Ang       
                            Buckingham C     0.0000000    eV*Ang^6  
--------------------------------------------------------------------------------
Cl   s Ba   s Buckingham    Buckingham A     2704.5500    eV        0.000 12.000
                            Buckingham rho  0.35280000    Ang       
                            Buckingham C     0.0000000    eV*Ang^6  
--------------------------------------------------------------------------------

********************************************************************************
*  Output for configuration   1                                                *
********************************************************************************


  Components of energy : 

--------------------------------------------------------------------------------
  Interatomic potentials     =           5.13022605 eV    
  Monopole - monopole (real) =         -10.03624526 eV    
  Monopole - monopole (recip)=         -29.53581274 eV    
  Monopole - monopole (total)=         -39.57205800 eV    
--------------------------------------------------------------------------------
  Total lattice energy       =         -34.44183194 eV    
--------------------------------------------------------------------------------
  Total lattice energy       =           -3323.1103 kJ/(mole unit cells)
--------------------------------------------------------------------------------


  Number of variables =        1

  Maximum number of calculations  =          1000
  Maximum Hessian update interval =            10
  Maximum step size               =   1.000000000
  Maximum parameter tolerance     =   0.000010000
  Maximum function  tolerance     =   0.000010000
  Maximum gradient  tolerance     =   0.001000000
  Maximum gradient  component     =   0.010000000

  Symmetry constrained optimisation

  Symmetry used for second derivatives

  Cell parameters to be optimised using strains

  Newton-Raphson optimiser to be used

  BFGS hessian update to be used

  Lower half triangular hessian to be used

  Start of bulk optimisation :

  Cycle:      0 Energy:       -34.441832  Gnorm:      0.196570  CPU:    0.017
  ** Hessian calculated **
  Cycle:      1 Energy:       -34.441914  Gnorm:      0.000103  CPU:    0.021


  **** Optimisation achieved ****


  Final energy =     -34.44191447 eV
  Final Gnorm  =       0.00000000

  Components of energy : 

--------------------------------------------------------------------------------
  Interatomic potentials     =           5.09689708 eV    
  Monopole - monopole (real) =         -10.02781331 eV    
  Monopole - monopole (recip)=         -29.51099824 eV    
  Monopole - monopole (total)=         -39.53881155 eV    
--------------------------------------------------------------------------------
  Total lattice energy       =         -34.44191447 eV    
--------------------------------------------------------------------------------
  Total lattice energy       =           -3323.1183 kJ/(mole unit cells)
--------------------------------------------------------------------------------

  Final asymmetric unit coordinates :

--------------------------------------------------------------------------------
   No.  Atomic        x           y           z         Radius
        Label       (Frac)      (Frac)      (Frac)       (Angs) 
--------------------------------------------------------------------------------
     1  Cl    c     0.000000    0.000000    0.000000    0.000000
     2  O     c     0.500000    0.500000    0.500000    0.000000
     3  Na    c     0.500000    0.500000    0.000000    0.000000
     4  Cl    s     0.000000    0.000000    0.000000    0.000000
     5  O     s     0.500000    0.500000    0.500000    0.000000
--------------------------------------------------------------------------------

  Final Cartesian lattice vectors (Angstroms) :

        4.507787    0.000000    0.000000
        0.000000    4.507787    0.000000
        0.000000    0.000000    4.507787


  Final cell parameters and derivatives :

--------------------------------------------------------------------------------
       a            4.507787 Angstrom     dE/de1(xx)     0.000000 eV/strain
       b            4.507787 Angstrom     dE/de2(yy)     0.000000 eV/strain
       c            4.507787 Angstrom     dE/de3(zz)     0.000000 eV/strain
       alpha       90.000000 Degrees      dE/de4(yz)     0.000000 eV/strain
       beta        90.000000 Degrees      dE/de5(xz)     0.000000 eV/strain
       gamma       90.000000 Degrees      dE/de6(xy)     0.000000 eV/strain
--------------------------------------------------------------------------------

  Primitive cell volume =            91.598892 Angs**3

  Density of cell =      2.183054 g/cm**3

  Non-primitive cell volume =            91.598892 Angs**3


  Final internal derivatives :

--------------------------------------------------------------------------------
   No.  Atomic          a             b             c           Radius
        Label          (eV)          (eV)          (eV)        (eV/Angs)
--------------------------------------------------------------------------------
      1 Cl    c       0.000000      0.000000      0.000000      0.000000
      2 O     c       0.000000      0.000000      0.000000      0.000000
      3 Na    c       0.000000      0.000000      0.000000      0.000000
      4 Cl    s       0.000000      0.000000      0.000000      0.000000
      5 O     s       0.000000      0.000000      0.000000      0.000000
--------------------------------------------------------------------------------
  Maximum abs         0.000000      0.000000      0.000000      0.000000
--------------------------------------------------------------------------------

  Comparison of initial and final structures : 

--------------------------------------------------------------------------------
  Parameter   Initial value   Final value   Difference    Units      Percent
--------------------------------------------------------------------------------
    Volume        91.368216     91.598892     0.230676    Angs**3      0.25
    a              4.504000      4.507787     0.003787    Angstroms    0.08
    b              4.504000      4.507787     0.003787    Angstroms    0.08
    c              4.504000      4.507787     0.003787    Angstroms    0.08
    alpha         90.000000     90.000000     0.000000    Degrees      0.00
    beta          90.000000     90.000000     0.000000    Degrees      0.00
    gamma         90.000000     90.000000     0.000000    Degrees      0.00
      1 x          0.000000      0.000000     0.000000    Fractional   0.00
      1 y          0.000000      0.000000     0.000000    Fractional   0.00
      1 z          0.000000      0.000000     0.000000    Fractional   0.00
      2 x          0.500000      0.500000     0.000000    Fractional   0.00
      2 y          0.500000      0.500000     0.000000    Fractional   0.00
      2 z          0.500000      0.500000     0.000000    Fractional   0.00
      3 x          0.500000      0.500000     0.000000    Fractional   0.00
      3 y          0.500000      0.500000     0.000000    Fractional   0.00
      3 z          0.000000      0.000000     0.000000    Fractional   0.00
      4 x          0.000000      0.000000     0.000000    Fractional   0.00
      4 y          0.000000      0.000000     0.000000    Fractional   0.00
      4 z          0.000000      0.000000     0.000000    Fractional   0.00
      5 x          0.500000      0.500000     0.000000    Fractional   0.00
      5 y          0.500000      0.500000     0.000000    Fractional   0.00
      5 z          0.500000      0.500000     0.000000    Fractional   0.00
--------------------------------------------------------------------------------


  Born effective charge tensors : 

-------------------------------------------------------------------------------
  Atom             x           y             z
-------------------------------------------------------------------------------
    1 Cl    x      -1.0181     -0.0000      0.0000
            y      -0.0000     -1.0181      0.0000
            z       0.0000      0.0000     -1.0181
-------------------------------------------------------------------------------
    2 O     x      -2.2647      0.0000     -0.0000
            y       0.0000     -2.2647     -0.0000
            z      -0.0000     -0.0000     -2.2647
-------------------------------------------------------------------------------
    3 Na    x       1.2258     -0.0000      0.0000
            y      -0.0000      1.2258     -0.0000
            z       0.0000     -0.0000      0.8313
-------------------------------------------------------------------------------




  Elastic Constant Matrix: (Units=GPa)

-------------------------------------------------------------------------------
  Indices      1         2         3         4         5         6    
-------------------------------------------------------------------------------
       1     95.8177   20.0737   20.0737   -0.0000   -0.0000    0.0000
       2     20.0737   95.8177   20.0737   -0.0000   -0.0000    0.0000
       3     20.0737   20.0737   95.8177   -0.0000   -0.0000    0.0000
       4     -0.0000   -0.0000   -0.0000   20.0737   -0.0000    0.0000
       5     -0.0000   -0.0000   -0.0000   -0.0000   20.0737    0.0000
       6      0.0000    0.0000    0.0000    0.0000    0.0000   20.0737
-------------------------------------------------------------------------------


  Elastic Compliance Matrix: (Units=1/GPa)

-------------------------------------------------------------------------------
  Indices      1         2         3         4         5         6    
-------------------------------------------------------------------------------
       1    0.011253 -0.001949 -0.001949  0.000000  0.000000 -0.000000
       2   -0.001949  0.011253 -0.001949  0.000000  0.000000  0.000000
       3   -0.001949 -0.001949  0.011253  0.000000  0.000000 -0.000000
       4    0.000000  0.000000  0.000000  0.049816  0.000000 -0.000000
       5    0.000000  0.000000  0.000000  0.000000  0.049816 -0.000000
       6   -0.000000  0.000000 -0.000000 -0.000000 -0.000000  0.049816
-------------------------------------------------------------------------------

  Mechanical properties :

-------------------------------------------------------------------------------
  Convention :                    Reuss         Voigt         Hill
-------------------------------------------------------------------------------
  Bulk  Modulus (GPa)     =      45.32174      45.32174      45.32174
  Shear Modulus (GPa)     =      24.72085      27.19304      25.95695
-------------------------------------------------------------------------------
  Velocity S-wave (km/s)  =       3.36511       3.52937       3.44822
  Velocity P-wave (km/s)  =       5.98827       6.11304       6.05098
-------------------------------------------------------------------------------
  Compressibility (1/GPa) =    0.02206447
-------------------------------------------------------------------------------
  Stress axis :                     x             y             z
-------------------------------------------------------------------------------
  Youngs Moduli (GPa)     =      88.86373      88.86373      88.86373
-------------------------------------------------------------------------------
  Poissons Ratio (x)      =                     0.17321       0.17321
  Poissons Ratio (y)      =       0.17321                     0.17321
  Poissons Ratio (z)      =       0.17321       0.17321
-------------------------------------------------------------------------------


  Piezoelectric Strain Matrix: (Units=C/m**2)

-------------------------------------------------------------------------------
  Indices      1         2         3         4         5         6    
-------------------------------------------------------------------------------
       x    -0.00000  -0.00000  -0.00000   0.00000  -0.00000  -0.00000
       y    -0.00000  -0.00000   0.00000  -0.00000   0.00000   0.00000
       z    -0.00000  -0.00000  -0.00000  -0.00000   0.00000   0.00000
-------------------------------------------------------------------------------


  Piezoelectric Stress Matrix: (Units=10**-11 C/N)

-------------------------------------------------------------------------------
  Indices      1         2         3         4         5         6    
-------------------------------------------------------------------------------
       x    -0.00000   0.00000   0.00000   0.00000  -0.00000  -0.00000
       y    -0.00000  -0.00000   0.00000  -0.00000   0.00000   0.00000
       z     0.00000   0.00000  -0.00000  -0.00000   0.00000   0.00000
-------------------------------------------------------------------------------


  Static dielectric constant tensor : 

-------------------------------------------------------------------------------
              x         y         z
-------------------------------------------------------------------------------
       x    22.84729   0.00000   0.00000
       y     0.00000  22.84729  -0.00000
       z     0.00000  -0.00000  22.84729
--------------------------------------------------------------------------------

  High frequency dielectric constant tensor : 

-------------------------------------------------------------------------------
              x         y         z
-------------------------------------------------------------------------------
       x     1.47557   0.00000  -0.00000
       y     0.00000   1.47557  -0.00000
       z    -0.00000  -0.00000   1.47557
-------------------------------------------------------------------------------

  Static refractive indices : 

-------------------------------------------------------------------------------
    1 =    4.77988      2 =    4.77988      3 =    4.77988
-------------------------------------------------------------------------------

  High frequency refractive indices : 

-------------------------------------------------------------------------------
    1 =    1.21473      2 =    1.21473      3 =    1.21473
-------------------------------------------------------------------------------


  Time to end of optimisation =       0.0321 seconds

********************************************************************************
*  Defect calculation for configuration   1 :                                  *
********************************************************************************

  Total number of defects =      3

  Total charge on defect  =  -1.00

  Defect centre is at   0.5000   0.1900   0.3100  Frac

  Region 1 radius =  13.0000      Number of ions =    705

  Number of symmetry inequivalent region 1 ions  =    405

  Region 2 radius =  21.0000      Number of ions =   2249

  Number of symmetry inequivalent region 2a ions =   1206

  Region 2a mode = 4 : screened electrostatics due to region 1 
                       neglect correction to region 1 forces from 2a
                       region 2a displacements based on defects only

  Region 2a ions will only interact with defects in region 1

  Vacancies:

--------------------------------------------------------------------------------
    Specification type     Symbol/Number         x          y          z
--------------------------------------------------------------------------------
    Fractional                               0.500000   0.500000   0.000000
    Fractional                               0.500000   0.000000   0.500000
--------------------------------------------------------------------------------

  Interstitials:

--------------------------------------------------------------------------------
    Specification type     Symbol/Number         x          y          z
--------------------------------------------------------------------------------
    Atom/Fractional         Na               0.500000   0.190000   0.310000
--------------------------------------------------------------------------------


  Symmetry reduced region 1 (Relative to defect centre) :

--------------------------------------------------------------------------------
   No.   Atomic       x            y             z       Radius  Multiplicity   
         Label      (Angs)       (Angs)        (Angs)    (Angs)     
--------------------------------------------------------------------------------
     1  Na    c      0.0000       0.0000       0.0000    0.0000     1    Defect
     2  O     c      0.0000       1.3974 *     0.8565 *  0.0000     1          
     3  Na    c      2.2539 *     1.3974 *     0.8565 *  0.0000     2          
     4  Cl    c      2.2539 *    -0.8565 *    -1.3974 *  0.0000     2          
     5  O     c      0.0000      -3.1104 *     0.8565 *  0.0000     1          
     6  Na    c      0.0000       1.3974 *     3.1104 *  0.0000     1          
     7  Na    c      0.0000      -3.1104 *    -1.3974 *  0.0000     1          
     8  Na    c      0.0000      -0.8565 *    -3.6513 *  0.0000     1          
     9  Na    c      0.0000       3.6513 *     0.8565 *  0.0000     1          
    10  O     c      0.0000       1.3974 *    -3.6513 *  0.0000     1          
    11  Cl    c      2.2539 *    -0.8565 *     3.1104 *  0.0000     2          
    12  Na    c      2.2539 *    -3.1104 *     0.8565 *  0.0000     2          
    13  Na    c      0.0000      -3.1104 *     3.1104 *  0.0000     1          
    14  Cl    c      2.2539 *     3.6513 *    -1.3974 *  0.0000     2          
    15  Na    c      2.2539 *     1.3974 *    -3.6513 *  0.0000     2          
    16  Na    c     -4.5078 *    -0.8565 *     0.8565 *  0.0000     2          
    17  O     c      0.0000      -3.1104 *    -3.6513 *  0.0000     1          
    18  O     c     -4.5078 *     1.3974 *     0.8565 *  0.0000     2          
    19  Na    c     -4.5078 *     1.3974 *    -1.3974 *  0.0000     2          
    20  Na    c      0.0000       3.6513 *    -3.6513 *  0.0000     1          
    21  Cl    c      2.2539 *     3.6513 *     3.1104 *  0.0000     2          
    22  Na    c      2.2539 *    -3.1104 *    -3.6513 *  0.0000     2          
    23  Na    c      0.0000      -0.8565 *     5.3643 *  0.0000     1          
    24  Na    c      0.0000      -5.3643 *     0.8565 *  0.0000     1          
    25  O     c      0.0000       1.3974 *     5.3643 *  0.0000     1          
    26  O     c     -4.5078 *    -3.1104 *     0.8565 *  0.0000     2          
    27  Na    c     -4.5078 *     1.3974 *     3.1104 *  0.0000     2          
    28  Na    c     -4.5078 *    -3.1104 *    -1.3974 *  0.0000     2          
    29  Na    c     -4.5078 *    -0.8565 *    -3.6513 *  0.0000     2          
    30  Na    c     -4.5078 *     3.6513 *     0.8565 *  0.0000     2          
    31  O     c     -4.5078 *     1.3974 *    -3.6513 *  0.0000     2          
    32  O     c      0.0000       5.9052 *     0.8565 *  0.0000     1          
    33  Na    c      2.2539 *     1.3974 *     5.3643 *  0.0000     2          
    34  Cl    c      2.2539 *    -5.3643 *    -1.3974 *  0.0000     2          
    35  Na    c      0.0000       1.3974 *    -5.9052 *  0.0000     1          
    36  Na    c      0.0000       5.9052 *    -1.3974 *  0.0000     1          
    37  O     c      0.0000      -3.1104 *     5.3643 *  0.0000     1          
    38  Na    c     -4.5078 *    -3.1104 *     3.1104 *  0.0000     2          
    39  Cl    c      2.2539 *    -0.8565 *    -5.9052 *  0.0000     2          
    40  Na    c      2.2539 *     5.9052 *     0.8565 *  0.0000     2          
    41  Na    c      0.0000       3.6513 *     5.3643 *  0.0000     1          
    42  Na    c      0.0000      -5.3643 *    -3.6513 *  0.0000     1          
    43  O     c     -4.5078 *    -3.1104 *    -3.6513 *  0.0000     2          
    44  Cl    c      2.2539 *    -5.3643 *     3.1104 *  0.0000     2          
    45  Na    c      2.2539 *    -3.1104 *     5.3643 *  0.0000     2          
    46  Na    c      0.0000       5.9052 *     3.1104 *  0.0000     1          
    47  Na    c      0.0000      -3.1104 *    -5.9052 *  0.0000     1          
    48  Na    c     -4.5078 *     3.6513 *    -3.6513 *  0.0000     2          
    49  O     c      0.0000       5.9052 *    -3.6513 *  0.0000     1          
    50  Cl    c      6.7617 *    -0.8565 *    -1.3974 *  0.0000     2          
    51  Na    c      6.7617 *     1.3974 *     0.8565 *  0.0000     2          
    52  Na    c     -4.5078 *    -0.8565 *     5.3643 *  0.0000     2          
    53  Na    c     -4.5078 *    -5.3643 *     0.8565 *  0.0000     2          
    54  O     c     -4.5078 *     1.3974 *     5.3643 *  0.0000     2          
    55  Cl    c      2.2539 *     3.6513 *    -5.9052 *  0.0000     2          
    56  Na    c      2.2539 *     5.9052 *    -3.6513 *  0.0000     2          
    57  O     c      4.5078 *     5.9052 *     0.8565 *  0.0000     2          
    58  Cl    c      6.7617 *    -0.8565 *     3.1104 *  0.0000     2          
    59  Na    c      6.7617 *    -3.1104 *     0.8565 *  0.0000     2          
    60  Na    c     -4.5078 *     1.3974 *    -5.9052 *  0.0000     2          
    61  Na    c      4.5078 *     5.9052 *    -1.3974 *  0.0000     2          
    62  Na    c      0.0000      -5.3643 *     5.3643 *  0.0000     1          
    63  O     c      0.0000      -7.6182 *     0.8565 *  0.0000     1          
    64  O     c      4.5078 *    -3.1104 *     5.3643 *  0.0000     2          
    65  Na    c      0.0000       1.3974 *     7.6182 *  0.0000     1          
    66  Na    c      0.0000      -7.6182 *    -1.3974 *  0.0000     1          
    67  Cl    c      6.7617 *     3.6513 *    -1.3974 *  0.0000     2          
    68  Na    c      6.7617 *     1.3974 *    -3.6513 *  0.0000     2          
    69  Na    c     -4.5078 *    -5.3643 *    -3.6513 *  0.0000     2          
    70  Na    c      4.5078 *     3.6513 *     5.3643 *  0.0000     2          
    71  O     c      0.0000       5.9052 *     5.3643 *  0.0000     1          
    72  Cl    c      2.2539 *    -0.8565 *     7.6182 *  0.0000     2          
    73  Na    c      2.2539 *    -7.6182 *     0.8565 *  0.0000     2          
    74  Na    c      4.5078 *     5.9052 *     3.1104 *  0.0000     2          
    75  Na    c      4.5078 *    -3.1104 *    -5.9052 *  0.0000     2          
    76  Na    c      0.0000      -0.8565 *    -8.1591 *  0.0000     1          
    77  Na    c      0.0000       8.1591 *     0.8565 *  0.0000     1          
    78  Na    c      0.0000      -3.1104 *     7.6182 *  0.0000     1          
    79  Na    c      0.0000      -7.6182 *     3.1104 *  0.0000     1          
    80  O     c      0.0000       1.3974 *    -8.1591 *  0.0000     1          
    81  O     c      4.5078 *     5.9052 *    -3.6513 *  0.0000     2          
    82  Cl    c      6.7617 *     3.6513 *     3.1104 *  0.0000     2          
    83  Na    c      2.2539 *     5.9052 *     5.3643 *  0.0000     2          
    84  Cl    c      2.2539 *    -5.3643 *    -5.9052 *  0.0000     2          
    85  Na    c      6.7617 *    -3.1104 *    -3.6513 *  0.0000     2          
    86  Na    c      0.0000       5.9052 *    -5.9052 *  0.0000     1          
    87  O     c      0.0000      -7.6182 *    -3.6513 *  0.0000     1          
    88  Cl    c      2.2539 *     8.1591 *    -1.3974 *  0.0000     2          
    89  Na    c      2.2539 *     1.3974 *    -8.1591 *  0.0000     2          
    90  O     c      0.0000      -3.1104 *    -8.1591 *  0.0000     1          
    91  Cl    c      2.2539 *     3.6513 *     7.6182 *  0.0000     2          
    92  Cl    c      6.7617 *    -5.3643 *    -1.3974 *  0.0000     2          
    93  Na    c      2.2539 *    -7.6182 *    -3.6513 *  0.0000     2          
    94  Na    c      6.7617 *     1.3974 *     5.3643 *  0.0000     2          
    95  Na    c      4.5078 *    -5.3643 *     5.3643 *  0.0000     2          
    96  O     c     -4.5078 *    -7.6182 *     0.8565 *  0.0000     2          
    97  Na    c      0.0000       3.6513 *    -8.1591 *  0.0000     1          
    98  Na    c      0.0000       8.1591 *    -3.6513 *  0.0000     1          
    99  Na    c      4.5078 *     1.3974 *     7.6182 *  0.0000     2          
   100  Na    c     -4.5078 *    -7.6182 *    -1.3974 *  0.0000     2          
   101  Cl    c      2.2539 *     8.1591 *     3.1104 *  0.0000     2          
   102  Cl    c      6.7617 *    -0.8565 *    -5.9052 *  0.0000     2          
   103  Na    c      2.2539 *    -3.1104 *    -8.1591 *  0.0000     2          
   104  Na    c      6.7617 *     5.9052 *     0.8565 *  0.0000     2          
   105  Na    c      9.0156 *    -0.8565 *     0.8565 *  0.0000     2          
   106  O     c      9.0156 *     1.3974 *     0.8565 *  0.0000     2          
   107  O     c      4.5078 *     5.9052 *     5.3643 *  0.0000     2          
   108  Cl    c      6.7617 *    -5.3643 *     3.1104 *  0.0000     2          
   109  Na    c      6.7617 *    -3.1104 *     5.3643 *  0.0000     2          
   110  Na    c      9.0156 *     1.3974 *    -1.3974 *  0.0000     2          
   111  O     c      0.0000      -7.6182 *     5.3643 *  0.0000     1          
   112  Na    c     -4.5078 *    -0.8565 *    -8.1591 *  0.0000     2          
   113  Na    c     -4.5078 *     8.1591 *     0.8565 *  0.0000     2          
   114  Na    c     -4.5078 *    -3.1104 *     7.6182 *  0.0000     2          
   115  Na    c     -4.5078 *    -7.6182 *     3.1104 *  0.0000     2          
   116  O     c     -4.5078 *     1.3974 *    -8.1591 *  0.0000     2          
   117  Na    c      4.5078 *     5.9052 *    -5.9052 *  0.0000     2          
   118  O     c      9.0156 *    -3.1104 *     0.8565 *  0.0000     2          
   119  O     c     -4.5078 *    -7.6182 *    -3.6513 *  0.0000     2          
   120  Cl    c      2.2539 *    -5.3643 *     7.6182 *  0.0000     2          
   121  Na    c      2.2539 *    -7.6182 *     5.3643 *  0.0000     2          
   122  Na    c      0.0000       5.9052 *     7.6182 *  0.0000     1          
   123  Na    c      9.0156 *     1.3974 *     3.1104 *  0.0000     2          
   124  Na    c      9.0156 *    -3.1104 *    -1.3974 *  0.0000     2          
   125  Na    c      0.0000      -7.6182 *    -5.9052 *  0.0000     1          
   126  Cl    c      6.7617 *     3.6513 *    -5.9052 *  0.0000     2          
   127  Na    c      6.7617 *     5.9052 *    -3.6513 *  0.0000     2          
   128  Na    c      0.0000       8.1591 *     5.3643 *  0.0000     1          
   129  Na    c      0.0000      -5.3643 *    -8.1591 *  0.0000     1          
   130  Na    c      9.0156 *    -0.8565 *    -3.6513 *  0.0000     2          
   131  Na    c      9.0156 *     3.6513 *     0.8565 *  0.0000     2          
   132  O     c      4.5078 *    -3.1104 *    -8.1591 *  0.0000     2          
   133  O     c      9.0156 *     1.3974 *    -3.6513 *  0.0000     2          
   134  Na    c      0.0000      -0.8565 *     9.8721 *  0.0000     1          
   135  Na    c      0.0000      -9.8721 *     0.8565 *  0.0000     1          
   136  O     c      0.0000       1.3974 *     9.8721 *  0.0000     1          
   137  Na    c     -4.5078 *     3.6513 *    -8.1591 *  0.0000     2          
   138  Na    c     -4.5078 *     8.1591 *    -3.6513 *  0.0000     2          
   139  Na    c      9.0156 *    -3.1104 *     3.1104 *  0.0000     2          
   140  O     c      0.0000       5.9052 *    -8.1591 *  0.0000     1          
   141  O     c      9.0156 *    -3.1104 *    -3.6513 *  0.0000     2          
   142  Cl    c      2.2539 *    -9.8721 *    -1.3974 *  0.0000     2          
   143  Cl    c      6.7617 *    -0.8565 *     7.6182 *  0.0000     2          
   144  Na    c      2.2539 *     1.3974 *     9.8721 *  0.0000     2          
   145  Na    c      6.7617 *    -7.6182 *     0.8565 *  0.0000     2          
   146  Cl    c      2.2539 *     8.1591 *    -5.9052 *  0.0000     2          
   147  Na    c      2.2539 *     5.9052 *    -8.1591 *  0.0000     2          
   148  O     c      0.0000      -3.1104 *     9.8721 *  0.0000     1          
   149  O     c     -4.5078 *    -7.6182 *     5.3643 *  0.0000     2          
   150  Na    c      9.0156 *     3.6513 *    -3.6513 *  0.0000     2          
   151  O     c      0.0000      10.4130 *     0.8565 *  0.0000     1          
   152  Cl    c      6.7617 *    -5.3643 *    -5.9052 *  0.0000     2          
   153  Na    c      6.7617 *     5.9052 *     5.3643 *  0.0000     2          
   154  Na    c      0.0000       1.3974 *   -10.4130 *  0.0000     1          
   155  Na    c      0.0000      10.4130 *    -1.3974 *  0.0000     1          
   156  Na    c      0.0000       3.6513 *     9.8721 *  0.0000     1          
   157  Na    c      0.0000      -9.8721 *    -3.6513 *  0.0000     1          
   158  Na    c      9.0156 *    -0.8565 *     5.3643 *  0.0000     2          
   159  Na    c      9.0156 *    -5.3643 *     0.8565 *  0.0000     2          
   160  O     c      9.0156 *     1.3974 *     5.3643 *  0.0000     2          
   161  Cl    c      2.2539 *    -9.8721 *     3.1104 *  0.0000     2          
   162  Na    c      2.2539 *    -3.1104 *     9.8721 *  0.0000     2          
   163  Na    c      4.5078 *     5.9052 *     7.6182 *  0.0000     2          
   164  Na    c      4.5078 *    -7.6182 *    -5.9052 *  0.0000     2          
   165  Cl    c      6.7617 *     8.1591 *    -1.3974 *  0.0000     2          
   166  Cl    c      2.2539 *    -0.8565 *   -10.4130 *  0.0000     2          
   167  Na    c      2.2539 *    10.4130 *     0.8565 *  0.0000     2          
   168  Na    c      6.7617 *     1.3974 *    -8.1591 *  0.0000     2          
   169  Na    c      4.5078 *    -5.3643 *    -8.1591 *  0.0000     2          
   170  Na    c     -4.5078 *     8.1591 *     5.3643 *  0.0000     2          
   171  Na    c      0.0000      -7.6182 *     7.6182 *  0.0000     1          
   172  O     c      9.0156 *     5.9052 *     0.8565 *  0.0000     2          
   173  Cl    c      6.7617 *     3.6513 *     7.6182 *  0.0000     2          
   174  Na    c      6.7617 *    -7.6182 *    -3.6513 *  0.0000     2          
   175  Na    c      9.0156 *     1.3974 *    -5.9052 *  0.0000     2          
   176  Na    c      9.0156 *     5.9052 *    -1.3974 *  0.0000     2          
   177  Na    c      0.0000      10.4130 *     3.1104 *  0.0000     1          
   178  Na    c      0.0000      -3.1104 *   -10.4130 *  0.0000     1          
   179  Na    c     -4.5078 *    -0.8565 *     9.8721 *  0.0000     2          
   180  Na    c     -4.5078 *    -9.8721 *     0.8565 *  0.0000     2          
   181  O     c     -4.5078 *     1.3974 *     9.8721 *  0.0000     2          
   182  O     c      9.0156 *    -3.1104 *     5.3643 *  0.0000     2          
   183  O     c      4.5078 *     5.9052 *    -8.1591 *  0.0000     2          
   184  O     c      0.0000      10.4130 *    -3.6513 *  0.0000     1          
   185  Cl    c      6.7617 *     8.1591 *     3.1104 *  0.0000     2          
   186  Na    c      6.7617 *    -3.1104 *    -8.1591 *  0.0000     2          
   187  Na    c      9.0156 *     3.6513 *     5.3643 *  0.0000     2          
   188  Na    c      9.0156 *    -5.3643 *    -3.6513 *  0.0000     2          
   189  O     c      0.0000      -7.6182 *    -8.1591 *  0.0000     1          
   190  Na    c      9.0156 *     5.9052 *     3.1104 *  0.0000     2          
   191  Na    c      9.0156 *    -3.1104 *    -5.9052 *  0.0000     2          
   192  Na    c      0.0000      -5.3643 *     9.8721 *  0.0000     1          
   193  Na    c      0.0000      -9.8721 *     5.3643 *  0.0000     1          
   194  Cl    c      2.2539 *     3.6513 *   -10.4130 *  0.0000     2          
   195  Na    c      2.2539 *    10.4130 *    -3.6513 *  0.0000     2          
   196  O     c      4.5078 *    -3.1104 *     9.8721 *  0.0000     2          
   197  O     c      9.0156 *     5.9052 *    -3.6513 *  0.0000     2          
   198  O     c      4.5078 *    10.4130 *     0.8565 *  0.0000     2          
   199  Cl    c     11.2695 *    -0.8565 *    -1.3974 *  0.0000     2          
   200  Na    c     11.2695 *     1.3974 *     0.8565 *  0.0000     2          
   201  Cl    c      2.2539 *     8.1591 *     7.6182 *  0.0000     2          
   202  Na    c      2.2539 *    -7.6182 *    -8.1591 *  0.0000     2          
   203  Na    c      4.5078 *     1.3974 *   -10.4130 *  0.0000     2          
   204  Na    c      4.5078 *    10.4130 *    -1.3974 *  0.0000     2          
   205  Na    c     -4.5078 *     3.6513 *     9.8721 *  0.0000     2          
   206  Na    c     -4.5078 *    -9.8721 *    -3.6513 *  0.0000     2          
   207  O     c      0.0000       5.9052 *     9.8721 *  0.0000     1          
   208  Cl    c      6.7617 *    -5.3643 *     7.6182 *  0.0000     2          
   209  Na    c      6.7617 *    -7.6182 *     5.3643 *  0.0000     2          
   210  Na    c      0.0000       8.1591 *    -8.1591 *  0.0000     1          
   211  Na    c      4.5078 *    -7.6182 *     7.6182 *  0.0000     2          
   212  O     c      0.0000      10.4130 *     5.3643 *  0.0000     1          
   213  Cl    c     11.2695 *    -0.8565 *     3.1104 *  0.0000     2          
   214  Na    c     11.2695 *    -3.1104 *     0.8565 *  0.0000     2          
   215  Cl    c      2.2539 *    -9.8721 *    -5.9052 *  0.0000     2          
   216  Na    c      2.2539 *     5.9052 *     9.8721 *  0.0000     2          
   217  Na    c      4.5078 *    10.4130 *     3.1104 *  0.0000     2          
   218  Na    c      4.5078 *    -3.1104 *   -10.4130 *  0.0000     2          
   219  Na    c      9.0156 *    -5.3643 *     5.3643 *  0.0000     2          
   220  O     c      9.0156 *    -7.6182 *     0.8565 *  0.0000     2          
   221  Na    c      9.0156 *     1.3974 *     7.6182 *  0.0000     2          
   222  Na    c      9.0156 *    -7.6182 *    -1.3974 *  0.0000     2          
   223  O     c      4.5078 *    10.4130 *    -3.6513 *  0.0000     2          
   224  Cl    c     11.2695 *     3.6513 *    -1.3974 *  0.0000     2          
   225  Na    c     11.2695 *     1.3974 *    -3.6513 *  0.0000     2          
   226  Cl    c      2.2539 *    -5.3643 *   -10.4130 *  0.0000     2          
   227  Na    c      2.2539 *    10.4130 *     5.3643 *  0.0000     2          
   228  Na    c      0.0000       5.9052 *   -10.4130 *  0.0000     1          
   229  Na    c      0.0000      10.4130 *    -5.9052 *  0.0000     1          
   230  O     c      9.0156 *     5.9052 *     5.3643 *  0.0000     2          
   231  O     c     -4.5078 *    -7.6182 *    -8.1591 *  0.0000     2          
   232  Cl    c      6.7617 *    -9.8721 *    -1.3974 *  0.0000     2          
   233  Na    c      6.7617 *     1.3974 *     9.8721 *  0.0000     2          
   234  Na    c      4.5078 *    -5.3643 *     9.8721 *  0.0000     2          
   235  Na    c      4.5078 *    -9.8721 *     5.3643 *  0.0000     2          
   236  Cl    c      6.7617 *     8.1591 *    -5.9052 *  0.0000     2          
   237  Na    c      6.7617 *     5.9052 *    -8.1591 *  0.0000     2          
   238  O     c      0.0000     -12.1259 *     0.8565 *  0.0000     1          
   239  Na    c      9.0156 *     8.1591 *     0.8565 *  0.0000     2          
   240  Na    c      9.0156 *    -0.8565 *    -8.1591 *  0.0000     2          
   241  Na    c      0.0000       1.3974 *    12.1259 *  0.0000     1          
   242  Na    c      9.0156 *    -3.1104 *     7.6182 *  0.0000     2          
   243  Na    c      0.0000     -12.1259 *    -1.3974 *  0.0000     1          
   244  Na    c      9.0156 *    -7.6182 *     3.1104 *  0.0000     2          
   245  O     c      9.0156 *     1.3974 *    -8.1591 *  0.0000     2          
   246  Cl    c     11.2695 *     3.6513 *     3.1104 *  0.0000     2          
   247  Na    c     11.2695 *    -3.1104 *    -3.6513 *  0.0000     2          
   248  Na    c      9.0156 *     5.9052 *    -5.9052 *  0.0000     2          
   249  O     c      4.5078 *     5.9052 *     9.8721 *  0.0000     2          
   250  O     c      9.0156 *    -7.6182 *    -3.6513 *  0.0000     2          
   251  Cl    c      2.2539 *    -0.8565 *    12.1259 *  0.0000     2          
   252  Cl    c      6.7617 *    -9.8721 *     3.1104 *  0.0000     2          
   253  Na    c      2.2539 *   -12.1259 *     0.8565 *  0.0000     2          
   254  Na    c      6.7617 *    -3.1104 *     9.8721 *  0.0000     2          
   255  Na    c      4.5078 *     8.1591 *    -8.1591 *  0.0000     2          
   256  Na    c      6.7617 *    10.4130 *     0.8565 *  0.0000     2          
   257  Cl    c      6.7617 *    -0.8565 *   -10.4130 *  0.0000     2          
   258  O     c      0.0000      -7.6182 *     9.8721 *  0.0000     1          
   259  Na    c      0.0000      -3.1104 *    12.1259 *  0.0000     1          
   260  Na    c      0.0000     -12.1259 *     3.1104 *  0.0000     1          
   261  O     c      4.5078 *    10.4130 *     5.3643 *  0.0000     2          
   262  O     c      9.0156 *    -3.1104 *    -8.1591 *  0.0000     2          
   263  Cl    c     11.2695 *    -5.3643 *    -1.3974 *  0.0000     2          
   264  Na    c     11.2695 *     1.3974 *     5.3643 *  0.0000     2          
   265  O     c      0.0000     -12.1259 *    -3.6513 *  0.0000     1          
   266  Cl    c      2.2539 *    -9.8721 *     7.6182 *  0.0000     2          
   267  Na    c      2.2539 *    -7.6182 *     9.8721 *  0.0000     2          
   268  Na    c      0.0000      -0.8565 *   -12.6669 *  0.0000     1          
   269  Na    c      0.0000      12.6669 *     0.8565 *  0.0000     1          
   270  Na    c      9.0156 *     8.1591 *    -3.6513 *  0.0000     2          
   271  Na    c      9.0156 *     3.6513 *    -8.1591 *  0.0000     2          
   272  O     c      0.0000       1.3974 *   -12.6669 *  0.0000     1          
   273  Cl    c     11.2695 *    -0.8565 *    -5.9052 *  0.0000     2          
   274  Na    c     11.2695 *     5.9052 *     0.8565 *  0.0000     2          
   275  Na    c      4.5078 *     5.9052 *   -10.4130 *  0.0000     2          
   276  Na    c      4.5078 *    10.4130 *    -5.9052 *  0.0000     2          
   277  Na    c      0.0000       8.1591 *     9.8721 *  0.0000     1          
   278  Na    c      0.0000      -9.8721 *    -8.1591 *  0.0000     1          
   279  Cl    c      2.2539 *     3.6513 *    12.1259 *  0.0000     2          
   280  Cl    c     11.2695 *    -5.3643 *     3.1104 *  0.0000     2          
   281  Na    c     11.2695 *    -3.1104 *     5.3643 *  0.0000     2          
   282  Na    c      2.2539 *   -12.1259 *    -3.6513 *  0.0000     2          
   283  Na    c      0.0000      10.4130 *     7.6182 *  0.0000     1          
   284  Na    c      0.0000      -7.6182 *   -10.4130 *  0.0000     1          
   285  Cl    c      2.2539 *    12.6669 *    -1.3974 *  0.0000     2          
   286  Na    c      2.2539 *     1.3974 *   -12.6669 *  0.0000     2          
   287  Na    c      6.7617 *    10.4130 *    -3.6513 *  0.0000     2          
   288  Cl    c      6.7617 *     3.6513 *   -10.4130 *  0.0000     2          
   289  O     c      4.5078 *   -12.1259 *     0.8565 *  0.0000     2          
   290  O     c      9.0156 *    -7.6182 *     5.3643 *  0.0000     2          
   291  O     s      0.0000       1.3974 *     0.8565 *  0.0000     1          
   292  Cl    s      2.2539 *    -0.8565 *    -1.3974 *  0.0000     2          
   293  O     s      0.0000      -3.1104 *     0.8565 *  0.0000     1          
   294  O     s      0.0000       1.3974 *    -3.6513 *  0.0000     1          
   295  Cl    s      2.2539 *    -0.8565 *     3.1104 *  0.0000     2          
   296  Cl    s      2.2539 *     3.6513 *    -1.3974 *  0.0000     2          
   297  O     s      0.0000      -3.1104 *    -3.6513 *  0.0000     1          
   298  O     s     -4.5078 *     1.3974 *     0.8565 *  0.0000     2          
   299  Cl    s      2.2539 *     3.6513 *     3.1104 *  0.0000     2          
   300  O     s      0.0000       1.3974 *     5.3643 *  0.0000     1          
   301  O     s     -4.5078 *    -3.1104 *     0.8565 *  0.0000     2          
   302  O     s     -4.5078 *     1.3974 *    -3.6513 *  0.0000     2          
   303  O     s      0.0000       5.9052 *     0.8565 *  0.0000     1          
   304  Cl    s      2.2539 *    -5.3643 *    -1.3974 *  0.0000     2          
   305  O     s      0.0000      -3.1104 *     5.3643 *  0.0000     1          
   306  Cl    s      2.2539 *    -0.8565 *    -5.9052 *  0.0000     2          
   307  O     s     -4.5078 *    -3.1104 *    -3.6513 *  0.0000     2          
   308  Cl    s      2.2539 *    -5.3643 *     3.1104 *  0.0000     2          
   309  O     s      0.0000       5.9052 *    -3.6513 *  0.0000     1          
   310  Cl    s      6.7617 *    -0.8565 *    -1.3974 *  0.0000     2          
   311  O     s     -4.5078 *     1.3974 *     5.3643 *  0.0000     2          
   312  Cl    s      2.2539 *     3.6513 *    -5.9052 *  0.0000     2          
   313  O     s      4.5078 *     5.9052 *     0.8565 *  0.0000     2          
   314  Cl    s      6.7617 *    -0.8565 *     3.1104 *  0.0000     2          
   315  O     s      0.0000      -7.6182 *     0.8565 *  0.0000     1          
   316  O     s      4.5078 *    -3.1104 *     5.3643 *  0.0000     2          
   317  Cl    s      6.7617 *     3.6513 *    -1.3974 *  0.0000     2          
   318  O     s      0.0000       5.9052 *     5.3643 *  0.0000     1          
   319  Cl    s      2.2539 *    -0.8565 *     7.6182 *  0.0000     2          
   320  O     s      0.0000       1.3974 *    -8.1591 *  0.0000     1          
   321  O     s      4.5078 *     5.9052 *    -3.6513 *  0.0000     2          
   322  Cl    s      6.7617 *     3.6513 *     3.1104 *  0.0000     2          
   323  Cl    s      2.2539 *    -5.3643 *    -5.9052 *  0.0000     2          
   324  O     s      0.0000      -7.6182 *    -3.6513 *  0.0000     1          
   325  Cl    s      2.2539 *     8.1591 *    -1.3974 *  0.0000     2          
   326  O     s      0.0000      -3.1104 *    -8.1591 *  0.0000     1          
   327  Cl    s      2.2539 *     3.6513 *     7.6182 *  0.0000     2          
   328  Cl    s      6.7617 *    -5.3643 *    -1.3974 *  0.0000     2          
   329  O     s     -4.5078 *    -7.6182 *     0.8565 *  0.0000     2          
   330  Cl    s      2.2539 *     8.1591 *     3.1104 *  0.0000     2          
   331  Cl    s      6.7617 *    -0.8565 *    -5.9052 *  0.0000     2          
   332  O     s      9.0156 *     1.3974 *     0.8565 *  0.0000     2          
   333  O     s      4.5078 *     5.9052 *     5.3643 *  0.0000     2          
   334  Cl    s      6.7617 *    -5.3643 *     3.1104 *  0.0000     2          
   335  O     s      0.0000      -7.6182 *     5.3643 *  0.0000     1          
   336  O     s     -4.5078 *     1.3974 *    -8.1591 *  0.0000     2          
   337  O     s      9.0156 *    -3.1104 *     0.8565 *  0.0000     2          
   338  O     s     -4.5078 *    -7.6182 *    -3.6513 *  0.0000     2          
   339  Cl    s      2.2539 *    -5.3643 *     7.6182 *  0.0000     2          
   340  Cl    s      6.7617 *     3.6513 *    -5.9052 *  0.0000     2          
   341  O     s      4.5078 *    -3.1104 *    -8.1591 *  0.0000     2          
   342  O     s      9.0156 *     1.3974 *    -3.6513 *  0.0000     2          
   343  O     s      0.0000       1.3974 *     9.8721 *  0.0000     1          
   344  O     s      0.0000       5.9052 *    -8.1591 *  0.0000     1          
   345  O     s      9.0156 *    -3.1104 *    -3.6513 *  0.0000     2          
   346  Cl    s      2.2539 *    -9.8721 *    -1.3974 *  0.0000     2          
   347  Cl    s      6.7617 *    -0.8565 *     7.6182 *  0.0000     2          
   348  Cl    s      2.2539 *     8.1591 *    -5.9052 *  0.0000     2          
   349  O     s      0.0000      -3.1104 *     9.8721 *  0.0000     1          
   350  O     s     -4.5078 *    -7.6182 *     5.3643 *  0.0000     2          
   351  O     s      0.0000      10.4130 *     0.8565 *  0.0000     1          
   352  Cl    s      6.7617 *    -5.3643 *    -5.9052 *  0.0000     2          
   353  O     s      9.0156 *     1.3974 *     5.3643 *  0.0000     2          
   354  Cl    s      2.2539 *    -9.8721 *     3.1104 *  0.0000     2          
   355  Cl    s      6.7617 *     8.1591 *    -1.3974 *  0.0000     2          
   356  Cl    s      2.2539 *    -0.8565 *   -10.4130 *  0.0000     2          
   357  O     s      9.0156 *     5.9052 *     0.8565 *  0.0000     2          
   358  Cl    s      6.7617 *     3.6513 *     7.6182 *  0.0000     2          
   359  O     s     -4.5078 *     1.3974 *     9.8721 *  0.0000     2          
   360  O     s      9.0156 *    -3.1104 *     5.3643 *  0.0000     2          
   361  O     s      4.5078 *     5.9052 *    -8.1591 *  0.0000     2          
   362  O     s      0.0000      10.4130 *    -3.6513 *  0.0000     1          
   363  Cl    s      6.7617 *     8.1591 *     3.1104 *  0.0000     2          
   364  O     s      0.0000      -7.6182 *    -8.1591 *  0.0000     1          
   365  Cl    s      2.2539 *     3.6513 *   -10.4130 *  0.0000     2          
   366  O     s      4.5078 *    -3.1104 *     9.8721 *  0.0000     2          
   367  O     s      9.0156 *     5.9052 *    -3.6513 *  0.0000     2          
   368  O     s      4.5078 *    10.4130 *     0.8565 *  0.0000     2          
   369  Cl    s     11.2695 *    -0.8565 *    -1.3974 *  0.0000     2          
   370  Cl    s      2.2539 *     8.1591 *     7.6182 *  0.0000     2          
   371  O     s      0.0000       5.9052 *     9.8721 *  0.0000     1          
   372  Cl    s      6.7617 *    -5.3643 *     7.6182 *  0.0000     2          
   373  O     s      0.0000      10.4130 *     5.3643 *  0.0000     1          
   374  Cl    s     11.2695 *    -0.8565 *     3.1104 *  0.0000     2          
   375  Cl    s      2.2539 *    -9.8721 *    -5.9052 *  0.0000     2          
   376  O     s      9.0156 *    -7.6182 *     0.8565 *  0.0000     2          
   377  O     s      4.5078 *    10.4130 *    -3.6513 *  0.0000     2          
   378  Cl    s     11.2695 *     3.6513 *    -1.3974 *  0.0000     2          
   379  Cl    s      2.2539 *    -5.3643 *   -10.4130 *  0.0000     2          
   380  O     s      9.0156 *     5.9052 *     5.3643 *  0.0000     2          
   381  O     s     -4.5078 *    -7.6182 *    -8.1591 *  0.0000     2          
   382  Cl    s      6.7617 *    -9.8721 *    -1.3974 *  0.0000     2          
   383  Cl    s      6.7617 *     8.1591 *    -5.9052 *  0.0000     2          
   384  O     s      0.0000     -12.1259 *     0.8565 *  0.0000     1          
   385  O     s      9.0156 *     1.3974 *    -8.1591 *  0.0000     2          
   386  Cl    s     11.2695 *     3.6513 *     3.1104 *  0.0000     2          
   387  O     s      4.5078 *     5.9052 *     9.8721 *  0.0000     2          
   388  O     s      9.0156 *    -7.6182 *    -3.6513 *  0.0000     2          
   389  Cl    s      2.2539 *    -0.8565 *    12.1259 *  0.0000     2          
   390  Cl    s      6.7617 *    -9.8721 *     3.1104 *  0.0000     2          
   391  Cl    s      6.7617 *    -0.8565 *   -10.4130 *  0.0000     2          
   392  O     s      0.0000      -7.6182 *     9.8721 *  0.0000     1          
   393  O     s      4.5078 *    10.4130 *     5.3643 *  0.0000     2          
   394  O     s      9.0156 *    -3.1104 *    -8.1591 *  0.0000     2          
   395  Cl    s     11.2695 *    -5.3643 *    -1.3974 *  0.0000     2          
   396  O     s      0.0000     -12.1259 *    -3.6513 *  0.0000     1          
   397  Cl    s      2.2539 *    -9.8721 *     7.6182 *  0.0000     2          
   398  O     s      0.0000       1.3974 *   -12.6669 *  0.0000     1          
   399  Cl    s     11.2695 *    -0.8565 *    -5.9052 *  0.0000     2          
   400  Cl    s      2.2539 *     3.6513 *    12.1259 *  0.0000     2          
   401  Cl    s     11.2695 *    -5.3643 *     3.1104 *  0.0000     2          
   402  Cl    s      2.2539 *    12.6669 *    -1.3974 *  0.0000     2          
   403  Cl    s      6.7617 *     3.6513 *   -10.4130 *  0.0000     2          
   404  O     s      4.5078 *   -12.1259 *     0.8565 *  0.0000     2          
   405  O     s      9.0156 *    -7.6182 *     5.3643 *  0.0000     2          
--------------------------------------------------------------------------------

  Components of defect energy : 

--------------------------------------------------------------------------------
  Region 1 - region 1                   =     16.18165137 eV
  Region 1 - region 2a (unrelaxed)      =     -5.97190626 eV
  Region 1 - 2a (relaxed - correction)  =     -0.40132499 eV
  Region 1 (Total)                      =      9.80842012 eV
  Region 2a                             =      0.20059823 eV
  Region 2b                             =     -0.32861615 eV
--------------------------------------------------------------------------------
  Total defect energy                   =      9.68040220 eV
--------------------------------------------------------------------------------

  Largest displacement in region 2 =   0.0203 Angstroms


  Number of variables =     1108

  Maximum number of calculations  =        1000
  Maximum Hessian update interval =          10
  Maximum step size               =   1.0000000
  Maximum parameter tolerance     =   0.0000100
  Maximum function  tolerance     =   0.0000100
  Maximum gradient  tolerance     =   0.0010000

  Symmetry adapted optimisation

  Symmetry to be used for second derivatives

  Newton-Raphson optimiser to be used

  BFGS hessian update to be used

  Lower half triangular hessian to be used

  Start of defect optimisation :

  Cycle:      0 Defect Energy:   9.680402  Gnorm:     0.017589  CPU:    7.133
  ** Hessian calculated **
  Cycle:      1 Defect Energy:   8.115197  Gnorm:     0.009596  CPU:   18.840
  Cycle:      2 Defect Energy:   7.585017  Gnorm:     0.008750  CPU:   34.199
  Cycle:      3 Defect Energy:   7.367401  Gnorm:     0.007304  CPU:   43.917
  Cycle:      4 Defect Energy:   7.002980  Gnorm:     0.007712  CPU:   57.064
  Cycle:      5 Defect Energy:   6.646003  Gnorm:     0.005356  CPU:   73.989
  Cycle:      6 Defect Energy:   6.250306  Gnorm:     0.006340  CPU:   85.567
  Cycle:      7 Defect Energy:   5.873548  Gnorm:     0.005302  CPU:   98.842
  Cycle:      8 Defect Energy:   5.546566  Gnorm:     0.003682  CPU:  111.014
  Cycle:      9 Defect Energy:   5.416719  Gnorm:     0.003322  CPU:  119.652
  Cycle:     10 Defect Energy:   5.369856  Gnorm:     0.002577  CPU:  121.868
  ** Hessian calculated **
  Cycle:     11 Defect Energy:   5.339030  Gnorm:     0.001920  CPU:  131.096
  Cycle:     12 Defect Energy:   5.313992  Gnorm:     0.001746  CPU:  133.875
  Cycle:     13 Defect Energy:   5.284262  Gnorm:     0.001716  CPU:  136.635
  Cycle:     14 Defect Energy:   5.252435  Gnorm:     0.001672  CPU:  139.268
  Cycle:     15 Defect Energy:   5.227473  Gnorm:     0.001631  CPU:  141.922
  Cycle:     16 Defect Energy:   5.207338  Gnorm:     0.001544  CPU:  144.339
  Cycle:     17 Defect Energy:   5.189515  Gnorm:     0.001521  CPU:  146.914
  Cycle:     18 Defect Energy:   5.171732  Gnorm:     0.001457  CPU:  149.314
  Cycle:     19 Defect Energy:   5.153302  Gnorm:     0.001351  CPU:  151.783
  Cycle:     20 Defect Energy:   5.134374  Gnorm:     0.001300  CPU:  154.053
  ** Hessian calculated **
  Cycle:     21 Defect Energy:   5.129527  Gnorm:     0.001256  CPU:  159.795
  Cycle:     22 Defect Energy:   5.122719  Gnorm:     0.001240  CPU:  165.956
  Cycle:     23 Defect Energy:   5.113061  Gnorm:     0.001231  CPU:  168.705
  Cycle:     24 Defect Energy:   5.099685  Gnorm:     0.001205  CPU:  171.599
  Cycle:     25 Defect Energy:   5.082309  Gnorm:     0.001186  CPU:  174.324
  Cycle:     26 Defect Energy:   5.062551  Gnorm:     0.001171  CPU:  177.074
  Cycle:     27 Defect Energy:   5.049762  Gnorm:     0.001170  CPU:  179.598
  Cycle:     28 Defect Energy:   5.037878  Gnorm:     0.001159  CPU:  182.098
  Cycle:     29 Defect Energy:   5.024876  Gnorm:     0.001146  CPU:  184.437
  Cycle:     30 Defect Energy:   5.007653  Gnorm:     0.001182  CPU:  186.854
  ** Hessian calculated **
  Cycle:     31 Defect Energy:   5.000316  Gnorm:     0.001112  CPU:  192.543
  Cycle:     32 Defect Energy:   4.990377  Gnorm:     0.001099  CPU:  194.742
  Cycle:     33 Defect Energy:   4.976536  Gnorm:     0.001084  CPU:  198.186
  Cycle:     34 Defect Energy:   4.957854  Gnorm:     0.001044  CPU:  203.355
  Cycle:     35 Defect Energy:   4.934188  Gnorm:     0.001017  CPU:  206.173
  Cycle:     36 Defect Energy:   4.907797  Gnorm:     0.001015  CPU:  208.927
  Cycle:     37 Defect Energy:   4.885084  Gnorm:     0.001050  CPU:  211.586
  Cycle:     38 Defect Energy:   4.864554  Gnorm:     0.001016  CPU:  214.098
  Cycle:     39 Defect Energy:   4.848397  Gnorm:     0.001082  CPU:  216.662
  Cycle:     40 Defect Energy:   4.833716  Gnorm:     0.001067  CPU:  219.024
  ** Hessian calculated **
  Cycle:     41 Defect Energy:   4.797730  Gnorm:     0.001008  CPU:  224.744
  Cycle:     42 Defect Energy:   4.763548  Gnorm:     0.000925  CPU:  227.088
  ** Hessian calculated **
  Cycle:     43 Defect Energy:   4.697184  Gnorm:     0.000736  CPU:  232.127
  Cycle:     44 Defect Energy:   4.675605  Gnorm:     0.000629  CPU:  238.575
  ** Hessian calculated **
  Cycle:     45 Defect Energy:   4.636965  Gnorm:     0.000549  CPU:  245.300
  Cycle:     46 Defect Energy:   4.615098  Gnorm:     0.000292  CPU:  248.019
  Cycle:     47 Defect Energy:   4.607084  Gnorm:     0.000186  CPU:  250.579
  Cycle:     48 Defect Energy:   4.602215  Gnorm:     0.000154  CPU:  253.152
  Cycle:     49 Defect Energy:   4.598966  Gnorm:     0.000088  CPU:  255.475
  Cycle:     50 Defect Energy:   4.597453  Gnorm:     0.000083  CPU:  257.909
  Cycle:     51 Defect Energy:   4.595919  Gnorm:     0.000057  CPU:  260.163
  Cycle:     52 Defect Energy:   4.595095  Gnorm:     0.000049  CPU:  262.452
  Cycle:     53 Defect Energy:   4.594377  Gnorm:     0.000032  CPU:  264.733
  Cycle:     54 Defect Energy:   4.594057  Gnorm:     0.000025  CPU:  267.038
  ** Hessian calculated **
  Cycle:     55 Defect Energy:   4.593848  Gnorm:     0.000018  CPU:  276.919
  Cycle:     56 Defect Energy:   4.593733  Gnorm:     0.000013  CPU:  279.733
  Cycle:     57 Defect Energy:   4.593666  Gnorm:     0.000010  CPU:  282.349
  Cycle:     58 Defect Energy:   4.593628  Gnorm:     0.000007  CPU:  285.077
  Cycle:     59 Defect Energy:   4.593607  Gnorm:     0.000005  CPU:  287.562
  Cycle:     60 Defect Energy:   4.593595  Gnorm:     0.000004  CPU:  290.114


  **** Optimisation achieved ****


  Final defect energy  =        4.59358899
  Final defect Gnorm   =        0.00000259

  Components of defect energy : 

--------------------------------------------------------------------------------
  Region 1 - region 1                   =     11.72074254 eV
  Region 1 - region 2a (unrelaxed)      =     -6.62733198 eV
  Region 1 - 2a (relaxed - correction)  =     -0.34259014 eV
  Region 1 (Total)                      =      4.75082042 eV
  Region 2a                             =      0.17119305 eV
  Region 2b                             =     -0.32842447 eV
--------------------------------------------------------------------------------
  Total defect energy                   =      4.59358899 eV
--------------------------------------------------------------------------------

  Largest displacement in region 2 =   0.0203 Angstroms

  Final coordinates of region 1 :

--------------------------------------------------------------------------------
   No.  Atomic        x           y           z          Radius      Charge
        Label       (Angs)      (Angs)      (Angs)       (Angs)       (e) 
--------------------------------------------------------------------------------
     1  Na    c     2.253894    0.856480    1.397414    0.000000    1.000000
     2  O     c     2.253894    2.676089    2.455615    0.000000    0.183000
     3  Na    c     4.496862    2.789954    2.327616    0.000000    1.000000
     4  Na    c     0.010925    2.789954    2.327616    0.000000    1.000000
     5  Cl    c     4.544202   -0.077837   -0.036463    0.000000    1.485000
     6  Cl    c    -0.036415   -0.077837   -0.036463    0.000000    1.485000
     7  O     c     2.253894   -2.255766    2.263266    0.000000    0.183000
     8  Na    c     2.253894    2.300615    4.599699    0.000000    1.000000
     9  Na    c     2.253894   -2.370900    0.035087    0.000000    1.000000
    10  Na    c     2.253894    0.067078   -2.101909    0.000000    1.000000
    11  Na    c     2.253894    4.653301    1.542511    0.000000    1.000000
    12  O     c     2.253894    2.293196   -2.284552    0.000000    0.183000
    13  Cl    c     4.640039    0.047987    4.655549    0.000000    1.485000
    14  Cl    c    -0.132252    0.047987    4.655549    0.000000    1.485000
    15  Na    c     4.466636   -2.245937    2.164862    0.000000    1.000000
    16  Na    c     0.041151   -2.245937    2.164862    0.000000    1.000000
    17  Na    c     2.253894   -1.629343    4.421297    0.000000    1.000000
    18  Cl    c     4.643354    4.660565   -0.011301    0.000000    1.485000
    19  Cl    c    -0.135566    4.660565   -0.011301    0.000000    1.485000
    20  Na    c     4.417372    2.318680   -1.783530    0.000000    1.000000
    21  Na    c     0.090415    2.318680   -1.783530    0.000000    1.000000
    22  Na    c    -1.890711    0.070270    2.181505    0.000000    1.000000
    23  Na    c     6.398498    0.070270    2.181505    0.000000    1.000000
    24  O     c     2.253894   -2.236099   -2.241254    0.000000    0.183000
    25  O     c    -2.240866    2.302907    2.274498    0.000000    0.183000
    26  O     c     6.748653    2.302907    2.274498    0.000000    0.183000
    27  Na    c    -2.469706    2.267558    0.027399    0.000000    1.000000
    28  Na    c     6.977493    2.267558    0.027399    0.000000    1.000000
    29  Na    c     2.253894    4.485085   -1.860793    0.000000    1.000000
    30  Cl    c     4.682029    4.626079    4.604493    0.000000    1.485000
    31  Cl    c    -0.174242    4.626079    4.604493    0.000000    1.485000
    32  Na    c     4.502231   -2.361462   -2.105430    0.000000    1.000000
    33  Na    c     0.005556   -2.361462   -2.105430    0.000000    1.000000
    34  Na    c     2.253894    0.003210    7.102981    0.000000    1.000000
    35  Na    c     2.253894   -4.466612    2.663719    0.000000    1.000000
    36  O     c     2.253894    2.249552    6.850585    0.000000    0.183000
    37  O     c    -2.236424   -2.185030    2.262978    0.000000    0.183000
    38  O     c     6.744211   -2.185030    2.262978    0.000000    0.183000
    39  Na    c    -2.131901    2.262905    4.536852    0.000000    1.000000
    40  Na    c     6.639688    2.262905    4.536852    0.000000    1.000000
    41  Na    c    -2.363397   -2.314684    0.003965    0.000000    1.000000
    42  Na    c     6.871184   -2.314684    0.003965    0.000000    1.000000
    43  Na    c    -2.025896    0.010475   -2.233927    0.000000    1.000000
    44  Na    c     6.533683    0.010475   -2.233927    0.000000    1.000000
    45  Na    c    -2.531771    4.549098    2.203785    0.000000    1.000000
    46  Na    c     7.039558    4.549098    2.203785    0.000000    1.000000
    47  O     c    -2.198263    2.256432   -2.215236    0.000000    0.183000
    48  O     c     6.706050    2.256432   -2.215236    0.000000    0.183000
    49  O     c     2.253894    6.813965    2.227571    0.000000    0.183000
    50  Na    c     4.519594    2.081473    6.842782    0.000000    1.000000
    51  Na    c    -0.011807    2.081473    6.842782    0.000000    1.000000
    52  Cl    c     4.547068   -4.487211   -0.036468    0.000000    1.485000
    53  Cl    c    -0.039281   -4.487211   -0.036468    0.000000    1.485000
    54  Na    c     2.253894    2.384090   -4.494412    0.000000    1.000000
    55  Na    c     2.253894    7.292500   -0.015510    0.000000    1.000000
    56  O     c     2.253894   -2.214823    6.704102    0.000000    0.183000
    57  Na    c    -2.174902   -2.040120    4.506928    0.000000    1.000000
    58  Na    c     6.682689   -2.040120    4.506928    0.000000    1.000000
    59  Cl    c     4.565524   -0.065732   -4.630062    0.000000    1.485000
    60  Cl    c    -0.057737   -0.065732   -4.630062    0.000000    1.485000
    61  Na    c     4.522563    6.714848    2.369498    0.000000    1.000000
    62  Na    c    -0.014776    6.714848    2.369498    0.000000    1.000000
    63  Na    c     2.253894    4.510848    6.964660    0.000000    1.000000
    64  Na    c     2.253894   -4.482263   -2.566870    0.000000    1.000000
    65  O     c    -2.256066   -2.237636   -2.263321    0.000000    0.183000
    66  O     c     6.763853   -2.237636   -2.263321    0.000000    0.183000
    67  Cl    c     4.586815   -4.560407    4.504828    0.000000    1.485000
    68  Cl    c    -0.079028   -4.560407    4.504828    0.000000    1.485000
    69  Na    c     4.510305   -2.130875    6.721340    0.000000    1.000000
    70  Na    c    -0.002517   -2.130875    6.721340    0.000000    1.000000
    71  Na    c     2.253894    6.195968    4.429575    0.000000    1.000000
    72  Na    c     2.253894   -1.986071   -4.489680    0.000000    1.000000
    73  Na    c    -2.272519    4.514391   -2.177244    0.000000    1.000000
    74  Na    c     6.780306    4.514391   -2.177244    0.000000    1.000000
    75  O     c     2.253894    6.758722   -2.243952    0.000000    0.183000
    76  Cl    c     9.038540    0.041779    0.036387    0.000000    1.485000
    77  Cl    c    -4.530753    0.041779    0.036387    0.000000    1.485000
    78  Na    c     8.999808    1.985959    2.427037    0.000000    1.000000
    79  Na    c    -4.492021    1.985959    2.427037    0.000000    1.000000
    80  Na    c    -2.454371    0.009836    6.827306    0.000000    1.000000
    81  Na    c     6.962158    0.009836    6.827306    0.000000    1.000000
    82  Na    c    -2.329630   -4.456778    2.427623    0.000000    1.000000
    83  Na    c     6.837417   -4.456778    2.427623    0.000000    1.000000
    84  O     c    -2.269691    2.273604    6.792574    0.000000    0.183000
    85  O     c     6.777478    2.273604    6.792574    0.000000    0.183000
    86  Cl    c     4.575373    4.627049   -4.572608    0.000000    1.485000
    87  Cl    c    -0.067585    4.627049   -4.572608    0.000000    1.485000
    88  Na    c     4.509336    6.697202   -2.347867    0.000000    1.000000
    89  Na    c    -0.001549    6.697202   -2.347867    0.000000    1.000000
    90  O     c     6.790563    6.796599    2.258815    0.000000    0.183000
    91  O     c    -2.282776    6.796599    2.258815    0.000000    0.183000
    92  Cl    c     9.042328    0.001891    4.559517    0.000000    1.485000
    93  Cl    c    -4.534541    0.001891    4.559517    0.000000    1.485000
    94  Na    c     8.996959   -1.969991    2.324282    0.000000    1.000000
    95  Na    c    -4.489172   -1.969991    2.324282    0.000000    1.000000
    96  Na    c    -1.882741    2.316400   -4.463569    0.000000    1.000000
    97  Na    c     6.390528    2.316400   -4.463569    0.000000    1.000000
    98  Na    c     6.544957    6.857013    0.007052    0.000000    1.000000
    99  Na    c    -2.037170    6.857013    0.007052    0.000000    1.000000
   100  Na    c     2.253894   -4.467883    6.311947    0.000000    1.000000
   101  O     c     2.253894   -6.726142    2.272160    0.000000    0.183000
   102  O     c     6.775291   -2.258295    6.750369    0.000000    0.183000
   103  O     c    -2.267503   -2.258295    6.750369    0.000000    0.183000
   104  Na    c     2.253894    2.408307    9.072826    0.000000    1.000000
   105  Na    c     2.253894   -6.350278    0.017368    0.000000    1.000000
   106  Cl    c     8.999100    4.571598    0.023082    0.000000    1.485000
   107  Cl    c    -4.491313    4.571598    0.023082    0.000000    1.485000
   108  Na    c     8.970082    2.143938   -2.488210    0.000000    1.000000
   109  Na    c    -4.462295    2.143938   -2.488210    0.000000    1.000000
   110  Na    c    -2.404673   -4.492196   -2.340754    0.000000    1.000000
   111  Na    c     6.912460   -4.492196   -2.340754    0.000000    1.000000
   112  Na    c     6.517913    4.520086    6.825722    0.000000    1.000000
   113  Na    c    -2.010126    4.520086    6.825722    0.000000    1.000000
   114  O     c     2.253894    6.750098    6.674204    0.000000    0.183000
   115  Cl    c     4.490521    0.011562    9.042419    0.000000    1.485000
   116  Cl    c     0.017267    0.011562    9.042419    0.000000    1.485000
   117  Na    c     4.513664   -6.668668    2.372344    0.000000    1.000000
   118  Na    c    -0.005877   -6.668668    2.372344    0.000000    1.000000
   119  Na    c     6.935666    6.629982    4.515794    0.000000    1.000000
   120  Na    c    -2.427878    6.629982    4.515794    0.000000    1.000000
   121  Na    c     6.533810   -2.240694   -4.508693    0.000000    1.000000
   122  Na    c    -2.026023   -2.240694   -4.508693    0.000000    1.000000
   123  Na    c     2.253894    0.007603   -6.794205    0.000000    1.000000
   124  Na    c     2.253894    9.024435    2.658433    0.000000    1.000000
   125  Na    c     2.253894   -2.579604    8.965069    0.000000    1.000000
   126  Na    c     2.253894   -7.170239    4.492421    0.000000    1.000000
   127  O     c     2.253894    2.254551   -6.786224    0.000000    0.183000
   128  O     c     6.771436    6.775854   -2.246477    0.000000    0.183000
   129  O     c    -2.263648    6.775854   -2.246477    0.000000    0.183000
   130  Cl    c     9.043921    4.540276    4.551498    0.000000    1.485000
   131  Cl    c    -4.536134    4.540276    4.551498    0.000000    1.485000
   132  Na    c     4.513770    6.882522    6.578235    0.000000    1.000000
   133  Na    c    -0.005983    6.882522    6.578235    0.000000    1.000000
   134  Cl    c     4.537349   -4.520741   -4.488695    0.000000    1.485000
   135  Cl    c    -0.029561   -4.520741   -4.488695    0.000000    1.485000
   136  Na    c     9.005104   -2.051604   -2.420736    0.000000    1.000000
   137  Na    c    -4.497317   -2.051604   -2.420736    0.000000    1.000000
   138  Na    c     2.253894    6.389569   -4.489617    0.000000    1.000000
   139  O     c     2.253894   -6.730102   -2.245332    0.000000    0.183000
   140  Cl    c     4.555511    9.093696   -0.019017    0.000000    1.485000
   141  Cl    c    -0.047724    9.093696   -0.019017    0.000000    1.485000
   142  Na    c     4.499332    2.120520   -6.883231    0.000000    1.000000
   143  Na    c     0.008455    2.120520   -6.883231    0.000000    1.000000
   144  O     c     2.253894   -2.243658   -6.749184    0.000000    0.183000
   145  Cl    c     4.483573    4.485458    9.065049    0.000000    1.485000
   146  Cl    c     0.024214    4.485458    9.065049    0.000000    1.485000
   147  Cl    c     9.002387   -4.567624   -0.017792    0.000000    1.485000
   148  Cl    c    -4.494599   -4.567624   -0.017792    0.000000    1.485000
   149  Na    c     4.510863   -6.667222   -2.304026    0.000000    1.000000
   150  Na    c    -0.003075   -6.667222   -2.304026    0.000000    1.000000
   151  Na    c     9.017606    2.507916    6.646018    0.000000    1.000000
   152  Na    c    -4.509818    2.507916    6.646018    0.000000    1.000000
   153  Na    c     6.622565   -4.505612    6.591030    0.000000    1.000000
   154  Na    c    -2.114778   -4.505612    6.591030    0.000000    1.000000
   155  O     c    -2.263534   -6.736648    2.247572    0.000000    0.183000
[...]
    325 y          9.015574      9.096700     0.081126    Cartesian    0.90
    325 z         -0.000000     -0.020883    -0.020883    Cartesian *******
    326 x          2.253894      2.253894     0.000000    Cartesian    0.00
    326 y         -2.253894     -2.243587     0.010307    Cartesian   -0.46
    326 z         -6.761681     -6.749205     0.012476    Cartesian   -0.18
    327 x          4.507787      4.480969    -0.026819    Cartesian   -0.59
    327 y          4.507787      4.479442    -0.028345    Cartesian   -0.63
    327 z          9.015574      9.064770     0.049196    Cartesian    0.55
    328 x          9.015574      9.007746    -0.007828    Cartesian   -0.09
    328 y         -4.507787     -4.570884    -0.063097    Cartesian    1.40
    328 z         -0.000000     -0.019234    -0.019234    Cartesian *******
    329 x         -2.253894     -2.263544    -0.009650    Cartesian    0.43
    329 y         -6.761681     -6.736668     0.025013    Cartesian   -0.37
    329 z          2.253894      2.247564    -0.006330    Cartesian   -0.28
    330 x          4.507787      4.554139     0.046352    Cartesian    1.03
    330 y          9.015574      9.080090     0.064516    Cartesian    0.72
    330 z          4.507787      4.524430     0.016643    Cartesian    0.37
    331 x          9.015574      9.101900     0.086326    Cartesian    0.96
    331 y          0.000000     -0.014252    -0.014252    Cartesian    0.00
    331 z         -4.507787     -4.543811    -0.036024    Cartesian    0.80
    332 x         11.269468     11.250707    -0.018761    Cartesian   -0.17
    332 y          2.253894      2.235345    -0.018549    Cartesian   -0.82
    332 z          2.253894      2.249859    -0.004035    Cartesian   -0.18
    333 x          6.761681      6.773206     0.011525    Cartesian    0.17
    333 y          6.761681      6.767097     0.005416    Cartesian    0.08
    333 z          6.761681      6.776388     0.014707    Cartesian    0.22
    334 x          9.015574      9.028031     0.012456    Cartesian    0.14
    334 y         -4.507787     -4.559587    -0.051800    Cartesian    1.15
    334 z          4.507787      4.564106     0.056319    Cartesian    1.25
    335 x          2.253894      2.253894     0.000000    Cartesian    0.00
    335 y         -6.761681     -6.747571     0.014110    Cartesian   -0.21
    335 z          6.761681      6.719129    -0.042552    Cartesian   -0.63
    336 x         -2.253894     -2.238322     0.015572    Cartesian   -0.69
    336 y          2.253894      2.263283     0.009389    Cartesian    0.42
    336 z         -6.761681     -6.727028     0.034653    Cartesian   -0.51
    337 x         11.269468     11.254455    -0.015013    Cartesian   -0.13
    337 y         -2.253894     -2.228567     0.025326    Cartesian   -1.12
    337 z          2.253894      2.243038    -0.010855    Cartesian   -0.48
    338 x         -2.253894     -2.259821    -0.005927    Cartesian    0.26
    338 y         -6.761681     -6.749521     0.012159    Cartesian   -0.18
    338 z         -2.253894     -2.241673     0.012221    Cartesian   -0.54
    339 x          4.507787      4.532633     0.024846    Cartesian    0.55
    339 y         -4.507787     -4.518558    -0.010771    Cartesian    0.24
    339 z          9.015574      9.068185     0.052611    Cartesian    0.58
    340 x          9.015574      9.042480     0.026905    Cartesian    0.30
    340 y          4.507787      4.543392     0.035605    Cartesian    0.79
    340 z         -4.507787     -4.512982    -0.005195    Cartesian    0.12
    341 x          6.761681      6.771674     0.009994    Cartesian    0.15
    341 y         -2.253894     -2.258703    -0.004809    Cartesian    0.21
    341 z         -6.761681     -6.754446     0.007235    Cartesian   -0.11
    342 x         11.269468     11.239530    -0.029938    Cartesian   -0.27
    342 y          2.253894      2.246732    -0.007162    Cartesian   -0.32
    342 z         -2.253894     -2.248446     0.005448    Cartesian   -0.24
    343 x          2.253894      2.253894     0.000000    Cartesian    0.00
    343 y          2.253894      2.254477     0.000584    Cartesian    0.03
    343 z         11.269468     11.289189     0.019721    Cartesian    0.17
    344 x          2.253894      2.253894     0.000000    Cartesian    0.00
    344 y          6.761681      6.756934    -0.004746    Cartesian   -0.07
    344 z         -6.761681     -6.730893     0.030788    Cartesian   -0.46
    345 x         11.269468     11.254318    -0.015150    Cartesian   -0.13
    345 y         -2.253894     -2.240553     0.013341    Cartesian   -0.59
    345 z         -2.253894     -2.231441     0.022453    Cartesian   -1.00
    346 x          4.507787      4.526787     0.019000    Cartesian    0.42
    346 y         -9.015574     -9.092455    -0.076880    Cartesian    0.85
    346 z         -0.000000     -0.007765    -0.007765    Cartesian *******
    347 x          9.015574      8.996062    -0.019513    Cartesian   -0.22
    347 y          0.000000      0.004732     0.004732    Cartesian    0.00
    347 z          9.015574      9.085762     0.070187    Cartesian    0.78
    348 x          4.507787      4.506798    -0.000989    Cartesian   -0.02
    348 y          9.015574      9.080908     0.065334    Cartesian    0.72
    348 z         -4.507787     -4.516575    -0.008788    Cartesian    0.19
    349 x          2.253894      2.253894     0.000000    Cartesian    0.00
    349 y         -2.253894     -2.268682    -0.014789    Cartesian    0.66
    349 z         11.269468     11.236117    -0.033351    Cartesian   -0.30
    350 x         -2.253894     -2.260734    -0.006840    Cartesian    0.30
    350 y         -6.761681     -6.755695     0.005986    Cartesian   -0.09
    350 z          6.761681      6.757055    -0.004625    Cartesian   -0.07
    351 x          2.253894      2.253894     0.000000    Cartesian    0.00
    351 y         11.269468     11.262899    -0.006569    Cartesian   -0.06
    351 z          2.253894      2.241329    -0.012565    Cartesian   -0.56
    352 x          9.015574      9.031302     0.015728    Cartesian    0.17
    352 y         -4.507787     -4.540264    -0.032477    Cartesian    0.72
    352 z         -4.507787     -4.527667    -0.019880    Cartesian    0.44
    353 x         11.269468     11.265727    -0.003741    Cartesian   -0.03
    353 y          2.253894      2.246551    -0.007343    Cartesian   -0.33
    353 z          6.761681      6.746115    -0.015566    Cartesian   -0.23
    354 x          4.507787      4.523302     0.015514    Cartesian    0.34
    354 y         -9.015574     -9.002716     0.012858    Cartesian   -0.14
    354 z          4.507787      4.511818     0.004030    Cartesian    0.09
    355 x          9.015574      9.079274     0.063700    Cartesian    0.71
    355 y          9.015574      9.056012     0.040438    Cartesian    0.45
    355 z         -0.000000     -0.003566    -0.003566    Cartesian *******
    356 x          4.507787      4.467073    -0.040714    Cartesian   -0.90
    356 y          0.000000      0.019667     0.019667    Cartesian    0.00
    356 z         -9.015574     -9.012290     0.003285    Cartesian   -0.04
    357 x         11.269468     11.261091    -0.008377    Cartesian   -0.07
    357 y          6.761681      6.742132    -0.019549    Cartesian   -0.29
    357 z          2.253894      2.254584     0.000690    Cartesian    0.03
    358 x          9.015574      9.043240     0.027666    Cartesian    0.31
    358 y          4.507787      4.495705    -0.012083    Cartesian   -0.27
    358 z          9.015574      9.068783     0.053208    Cartesian    0.59
    359 x         -2.253894     -2.258015    -0.004121    Cartesian    0.18
    359 y          2.253894      2.252836    -0.001058    Cartesian   -0.05
    359 z         11.269468     11.279200     0.009732    Cartesian    0.09
    360 x         11.269468     11.259618    -0.009850    Cartesian   -0.09
    360 y         -2.253894     -2.238762     0.015132    Cartesian   -0.67
    360 z          6.761681      6.750511    -0.011169    Cartesian   -0.17
    361 x          6.761681      6.770357     0.008676    Cartesian    0.13
    361 y          6.761681      6.761196    -0.000485    Cartesian   -0.01
    361 z         -6.761681     -6.761212     0.000468    Cartesian   -0.01
    362 x          2.253894      2.253894     0.000000    Cartesian    0.00
    362 y         11.269468     11.250111    -0.019357    Cartesian   -0.17
    362 z         -2.253894     -2.266056    -0.012162    Cartesian    0.54
    363 x          9.015574      9.042039     0.026464    Cartesian    0.29
    363 y          9.015574      9.053779     0.038204    Cartesian    0.42
    363 z          4.507787      4.509543     0.001756    Cartesian    0.04
    364 x          2.253894      2.253894     0.000000    Cartesian    0.00
    364 y         -6.761681     -6.765922    -0.004241    Cartesian    0.06
    364 z         -6.761681     -6.728131     0.033549    Cartesian   -0.50
    365 x          4.507787      4.501302    -0.006485    Cartesian   -0.14
    365 y          4.507787      4.477779    -0.030008    Cartesian   -0.67
    365 z         -9.015574     -9.037337    -0.021762    Cartesian    0.24
    366 x          6.761681      6.759029    -0.002651    Cartesian   -0.04
    366 y         -2.253894     -2.257451    -0.003558    Cartesian    0.16
    366 z         11.269468     11.265166    -0.004302    Cartesian   -0.04
    367 x         11.269468     11.270454     0.000986    Cartesian    0.01
    367 y          6.761681      6.735262    -0.026418    Cartesian   -0.39
    367 z         -2.253894     -2.240835     0.013059    Cartesian   -0.58
    368 x          6.761681      6.759051    -0.002630    Cartesian   -0.04
    368 y         11.269468     11.275699     0.006231    Cartesian    0.06
    368 z          2.253894      2.262478     0.008584    Cartesian    0.38
    369 x         13.523362     13.589270     0.065908    Cartesian    0.49
    369 y          0.000000      0.006473     0.006473    Cartesian    0.00
    369 z         -0.000000     -0.022589    -0.022589    Cartesian *******
    370 x          4.507787      4.510568     0.002781    Cartesian    0.06
    370 y          9.015574      9.024821     0.009247    Cartesian    0.10
    370 z          9.015574      9.056197     0.040623    Cartesian    0.45
    371 x          2.253894      2.253894     0.000000    Cartesian    0.00
    371 y          6.761681      6.772872     0.011191    Cartesian    0.17
    371 z         11.269468     11.257409    -0.012059    Cartesian   -0.11
    372 x          9.015574      9.033536     0.017961    Cartesian    0.20
    372 y         -4.507787     -4.514882    -0.007095    Cartesian    0.16
    372 z          9.015574      9.052753     0.037178    Cartesian    0.41
    373 x          2.253894      2.253894     0.000000    Cartesian    0.00
    373 y         11.269468     11.259444    -0.010024    Cartesian   -0.09
    373 z          6.761681      6.724835    -0.036845    Cartesian   -0.54
    374 x         13.523362     13.569717     0.046356    Cartesian    0.34
    374 y          0.000000     -0.010685    -0.010685    Cartesian    0.00
    374 z          4.507787      4.548822     0.041035    Cartesian    0.91
    375 x          4.507787      4.525240     0.017453    Cartesian    0.39
    375 y         -9.015574     -9.010857     0.004717    Cartesian   -0.05
    375 z         -4.507787     -4.535329    -0.027542    Cartesian    0.61
    376 x         11.269468     11.263399    -0.006069    Cartesian   -0.05
    376 y         -6.761681     -6.742620     0.019060    Cartesian   -0.28
    376 z          2.253894      2.257542     0.003649    Cartesian    0.16
    377 x          6.761681      6.765970     0.004289    Cartesian    0.06
    377 y         11.269468     11.271695     0.002227    Cartesian    0.02
    377 z         -2.253894     -2.256957    -0.003063    Cartesian    0.14
    378 x         13.523362     13.592462     0.069101    Cartesian    0.51
    378 y          4.507787      4.481681    -0.026106    Cartesian   -0.58
    378 z         -0.000000      0.003894     0.003894    Cartesian *******
    379 x          4.507787      4.504383    -0.003404    Cartesian   -0.08
    379 y         -4.507787     -4.519796    -0.012009    Cartesian    0.27
    379 z         -9.015574     -9.052262    -0.036688    Cartesian    0.41
    380 x         11.269468     11.270845     0.001377    Cartesian    0.01
    380 y          6.761681      6.755704    -0.005977    Cartesian   -0.09
    380 z          6.761681      6.755181    -0.006500    Cartesian   -0.10
    381 x         -2.253894     -2.256813    -0.002919    Cartesian    0.13
    381 y         -6.761681     -6.766167    -0.004486    Cartesian    0.07
    381 z         -6.761681     -6.760243     0.001438    Cartesian   -0.02
    382 x          9.015574      9.009714    -0.005860    Cartesian   -0.07
    382 y         -9.015574     -9.054707    -0.039132    Cartesian    0.43
    382 z         -0.000000     -0.006137    -0.006137    Cartesian *******
    383 x          9.015574      9.042420     0.026845    Cartesian    0.30
    383 y          9.015574      9.055322     0.039748    Cartesian    0.44
    383 z         -4.507787     -4.513331    -0.005544    Cartesian    0.12
    384 x          2.253894      2.253894     0.000000    Cartesian    0.00
    384 y        -11.269468    -11.249536     0.019932    Cartesian   -0.18
    384 z          2.253894      2.231285    -0.022608    Cartesian   -1.00
    385 x         11.269468     11.265316    -0.004152    Cartesian   -0.04
    385 y          2.253894      2.242029    -0.011864    Cartesian   -0.53
    385 z         -6.761681     -6.739840     0.021841    Cartesian   -0.32
    386 x         13.523362     13.570476     0.047115    Cartesian    0.35
    386 y          4.507787      4.518909     0.011122    Cartesian    0.25
    386 z          4.507787      4.488247    -0.019540    Cartesian   -0.43
    387 x          6.761681      6.760425    -0.001256    Cartesian   -0.02
    387 y          6.761681      6.768531     0.006850    Cartesian    0.10
    387 z         11.269468     11.269704     0.000236    Cartesian    0.00
    388 x         11.269468     11.274466     0.004998    Cartesian    0.04
    388 y         -6.761681     -6.745809     0.015872    Cartesian   -0.23
    388 z         -2.253894     -2.256164    -0.002270    Cartesian    0.10
    389 x          4.507787      4.498209    -0.009578    Cartesian   -0.21
    389 y          0.000000     -0.007669    -0.007669    Cartesian    0.00
    389 z         13.523362     13.580637     0.057275    Cartesian    0.42
    390 x          9.015574      9.080365     0.064791    Cartesian    0.72
    390 y         -9.015574     -9.038906    -0.023331    Cartesian    0.26
    390 z          4.507787      4.504066    -0.003721    Cartesian   -0.08
    391 x          9.015574      9.045894     0.030319    Cartesian    0.34
    391 y          0.000000     -0.006456    -0.006456    Cartesian    0.00
    391 z         -9.015574     -9.087910    -0.072336    Cartesian    0.80
    392 x          2.253894      2.253894     0.000000    Cartesian    0.00
    392 y         -6.761681     -6.746065     0.015616    Cartesian   -0.23
    392 z         11.269468     11.262893    -0.006575    Cartesian   -0.06
    393 x          6.761681      6.768211     0.006530    Cartesian    0.10
    393 y         11.269468     11.272033     0.002565    Cartesian    0.02
    393 z          6.761681      6.764373     0.002692    Cartesian    0.04
    394 x         11.269468     11.269270    -0.000199    Cartesian   -0.00
    394 y         -2.253894     -2.247513     0.006381    Cartesian   -0.28
    394 z         -6.761681     -6.756737     0.004944    Cartesian   -0.07
    395 x         13.523362     13.579797     0.056436    Cartesian    0.42
    395 y         -4.507787     -4.504654     0.003133    Cartesian   -0.07
    395 z         -0.000000      0.003541     0.003541    Cartesian *******
    396 x          2.253894      2.253894     0.000000    Cartesian    0.00
    396 y        -11.269468    -11.264848     0.004620    Cartesian   -0.04
    396 z         -2.253894     -2.243327     0.010566    Cartesian   -0.47
    397 x          4.507787      4.504037    -0.003750    Cartesian   -0.08
    397 y         -9.015574     -9.077212    -0.061638    Cartesian    0.68
    397 z          9.015574      9.012168    -0.003407    Cartesian   -0.04
    398 x          2.253894      2.253894     0.000000    Cartesian    0.00
    398 y          2.253894      2.254307     0.000413    Cartesian    0.02
    398 z        -11.269468    -11.277523    -0.008055    Cartesian    0.07
    399 x         13.523362     13.561083     0.037721    Cartesian    0.28
    399 y          0.000000     -0.010504    -0.010504    Cartesian    0.00
    399 z         -4.507787     -4.522140    -0.014353    Cartesian    0.32
    400 x          4.507787      4.517675     0.009888    Cartesian    0.22
    400 y          4.507787      4.543379     0.035592    Cartesian    0.79
    400 z         13.523362     13.541603     0.018241    Cartesian    0.13
    401 x         13.523362     13.550599     0.027237    Cartesian    0.20
    401 y         -4.507787     -4.495954     0.011833    Cartesian   -0.26
    401 z          4.507787      4.502333    -0.005454    Cartesian   -0.12
    402 x          4.507787      4.489855    -0.017933    Cartesian   -0.40
    402 y         13.523362     13.585693     0.062331    Cartesian    0.46
    402 z         -0.000000      0.008816     0.008816    Cartesian *******
    403 x          9.015574      8.998262    -0.017312    Cartesian   -0.19
    403 y          4.507787      4.521490     0.013703    Cartesian    0.30
    403 z         -9.015574     -9.054031    -0.038456    Cartesian    0.43
    404 x          6.761681      6.762787     0.001106    Cartesian    0.02
    404 y        -11.269468    -11.266071     0.003397    Cartesian   -0.03
    404 z          2.253894      2.254362     0.000469    Cartesian    0.02
    405 x         11.269468     11.277674     0.008206    Cartesian    0.07
    405 y         -6.761681     -6.756483     0.005198    Cartesian   -0.08
    405 z          6.761681      6.756957    -0.004724    Cartesian   -0.07
--------------------------------------------------------------------------------


  Time to end of optimisation  =      292.4509 seconds


  Peak dynamic memory used =     152.10 MB 


  Timing analysis for GULP :

--------------------------------------------------------------------------------
  Task / Subroutine                                          Time (Seconds)
--------------------------------------------------------------------------------
  Calculation of reciprocal space energy and derivatives          0.0008
  Calculation of reciprocal space energy using symmetry           0.0011
  Calculation of real space energy and derivatives                0.0043
  Calculation of real space energy using symmetry                 0.0104
  Calculation for region 1 energy and derivatives (2-b)         101.4054
  Calculation for region 2a energy                              183.7928
  Calculation for region 2b energy                                0.0259
  Calculation and manipulation of Hessian matrix                  0.2313
  Calculation of matrix inversion                                 6.4020
  Symmetry generation of equivalent positions                     0.0051
--------------------------------------------------------------------------------
  Total CPU time                                                292.4510
--------------------------------------------------------------------------------


  Dump file written as Na3OCl.grs


  Job Finished at 14:26.42  3rd December   2020                               

