********************************************************************************
*                       GENERAL UTILITY LATTICE PROGRAM                        *
*                                 Julian Gale                                  *
*                       Curtin Institute for Computation                       *
*                    School of Molecular and Life Sciences                     *
*                    Curtin University, Western Australia                      *
********************************************************************************
* Version = 5.2.0 * Last modified =  10th September 2020                       *
********************************************************************************
*  optimise     - perform optimisation run                                     *
*  conp         - constant pressure calculation                                *
*  property     - calculate properties for final geometry                      *
*  defect       - perform defect calculation after bulk run                    *
*  compare      - compare initial and final structures                         *
********************************************************************************

  Job Started  at 14:22.30  3rd December   2020                               

  Number of CPUs =     1


  Total number of configurations input =      1

********************************************************************************
*  Input for Configuration =   1                                               *
********************************************************************************

  Formula = ClONa3                                                      

  Number of irreducible atoms/shells =       5


  Total number atoms/shells =       7

  Dimensionality = 3               :  Bulk   


  Symmetry :

  Crystal family                   :  Cubic       
  Crystal class  (Groth - 1921)    :  Cubic Hexakisoctahedral              

  Space group (centrosymmetric)    :  P M 3 M         

  Patterson group                  :  P m -3 m 

  Cartesian lattice vectors (Angstroms) :

        4.504000    0.000000    0.000000
        0.000000    4.504000    0.000000
        0.000000    0.000000    4.504000

  Cell parameters (Angstroms/Degrees):

  a =       4.5040    alpha =  90.0000
  b =       4.5040    beta  =  90.0000
  c =       4.5040    gamma =  90.0000

  Initial cell volume =          91.368216 Angs**3

  Temperature of configuration =   0.00     K 

  Pressure of configuration =         0.000 GPa 

  Fractional coordinates of asymmetric unit :

--------------------------------------------------------------------------------
   No.  Atomic       x           y          z         Charge      Occupancy
        Label      (Frac)      (Frac)     (Frac)        (e)         (Frac)  
--------------------------------------------------------------------------------
      1 Cl    c    0.000000    0.000000    0.000000     1.48500    1.000000    
      2 O     c    0.500000    0.500000    0.500000     0.18300    1.000000    
      3 Na    c    0.500000    0.500000    0.000000     1.00000    1.000000    
      4 Cl    s    0.000000    0.000000    0.000000    -2.48500    1.000000    
      5 O     s    0.500000    0.500000    0.500000    -2.18300    1.000000    
--------------------------------------------------------------------------------


  Constraints : 

--------------------------------------------------------------------------------
  Constraint no.      Unconstrained     Constrained    Coefficient    Offset
                         Variable         Variable
--------------------------------------------------------------------------------
           1              Strain 1        Strain 2       1.00000      0.0000
           2              Strain 1        Strain 3       1.00000      0.0000
--------------------------------------------------------------------------------


********************************************************************************
*  General input information                                                   *
********************************************************************************

  Species output for all configurations : 

--------------------------------------------------------------------------------
  Species    Type    Atomic    Atomic    Charge       Radii (Angs)     Library
                     Number     Mass       (e)     Cova   Ionic  VDW   Symbol
--------------------------------------------------------------------------------
    Na       Core       11      22.99   1.000000   0.970  0.000  2.300          
    O        Core        8      16.00   0.183000   0.730  0.000  1.360          
    O        Shell       8       0.00  -2.183000   0.730  0.000  0.000          
    Cl       Core       17      35.45   1.485000   0.990  0.000  1.650          
    Cl       Shell      17       0.00  -2.485000   0.990  0.000  0.000          
    Mg       Core       12      24.31   0.415000   1.100  0.000  0.000          
    Mg       Shell      12       0.00   1.585000   1.100  0.000  0.000          
    Ca       Core       20      40.08  -1.135000   0.990  0.000  0.000          
    Ca       Shell      20       0.00   3.135000   0.990  0.000  0.000          
    Sr       Core       38      87.62  -1.251000   1.120  0.000  0.000          
    Sr       Shell      38       0.00   3.251000   1.120  0.000  0.000          
    Ba       Core       56     137.33  -7.203000   1.340  0.000  0.000          
    Ba       Shell      56       0.00   9.203000   1.340  0.000  0.000          
--------------------------------------------------------------------------------


  Lattice summation method               =    Ewald          (3-D)
                                         =    Parry          (2-D)
                                         =    Saunders et al (1-D)
  Accuracy factor for lattice sums       =   12.000


  Analytic derivatives to be used

  Time limit = Infinity

  Maximum range for interatomic potentials =    100000.000000 Angstroms

  General interatomic potentials :

--------------------------------------------------------------------------------
Atom  Types   Potential      Parameter       Value         Units   Cutoffs(Ang)
  1     2                                                            Min /  Max 
--------------------------------------------------------------------------------
O    c O    s Spring (c-s)  Spring k 2       593.71600    eV*Ang^-2 0.000  0.800
                            Spring k 4       0.0000000    eV*Ang^-4 
--------------------------------------------------------------------------------
Cl   c Cl   s Spring (c-s)  Spring k 2       29.380000    eV*Ang^-2 0.000  0.800
                            Spring k 4       0.0000000    eV*Ang^-4 
--------------------------------------------------------------------------------
Mg   c Mg   s Spring (c-s)  Spring k 2       361.60000    eV*Ang^-2 0.000  0.800
                            Spring k 4       0.0000000    eV*Ang^-4 
--------------------------------------------------------------------------------
Ca   c Ca   s Spring (c-s)  Spring k 2       110.20000    eV*Ang^-2 0.000  0.800
                            Spring k 4       0.0000000    eV*Ang^-4 
--------------------------------------------------------------------------------
Sr   c Sr   s Spring (c-s)  Spring k 2       71.700000    eV*Ang^-2 0.000  0.800
                            Spring k 4       0.0000000    eV*Ang^-4 
--------------------------------------------------------------------------------
Ba   c Ba   s Spring (c-s)  Spring k 2       495.20000    eV*Ang^-2 0.000  0.800
                            Spring k 4       0.0000000    eV*Ang^-4 
--------------------------------------------------------------------------------
Na   c Na   c Buckingham    Buckingham A     1788.1900    eV        0.000 12.000
                            Buckingham rho  0.15900000    Ang       
                            Buckingham C     0.0000000    eV*Ang^6  
--------------------------------------------------------------------------------
Na   c O    s Buckingham    Buckingham A     1226.8400    eV        0.000 12.000
                            Buckingham rho  0.30700000    Ang       
                            Buckingham C     0.0000000    eV*Ang^6  
--------------------------------------------------------------------------------
Na   c Cl   s Buckingham    Buckingham A     2314.7000    eV        0.000 12.000
                            Buckingham rho  0.29000000    Ang       
                            Buckingham C     0.0000000    eV*Ang^6  
--------------------------------------------------------------------------------
O    s O    s Buckingham    Buckingham A     22764.300    eV        0.000 12.000
                            Buckingham rho  0.14900000    Ang       
                            Buckingham C     13.190000    eV*Ang^6  
--------------------------------------------------------------------------------
O    s Cl   s Buckingham    Buckingham A     8286.9100    eV        0.000 12.000
                            Buckingham rho  0.25900000    Ang       
                            Buckingham C     62.200000    eV*Ang^6  
--------------------------------------------------------------------------------
Cl   s Cl   s Buckingham    Buckingham A     1227.2000    eV        0.000 12.000
                            Buckingham rho  0.32100000    Ang       
                            Buckingham C     14.530000    eV*Ang^6  
--------------------------------------------------------------------------------
O    s Mg   s Buckingham    Buckingham A     1428.5000    eV        0.000 12.000
                            Buckingham rho  0.29450000    Ang       
                            Buckingham C     0.0000000    eV*Ang^6  
--------------------------------------------------------------------------------
Mg   s Cl   s Buckingham    Buckingham A     4914.5400    eV        0.000 12.000
                            Buckingham rho  0.25700000    Ang       
                            Buckingham C     0.0000000    eV*Ang^6  
--------------------------------------------------------------------------------
O    s Ca   s Buckingham    Buckingham A     1090.4000    eV        0.000 12.000
                            Buckingham rho  0.34370000    Ang       
                            Buckingham C     0.0000000    eV*Ang^6  
--------------------------------------------------------------------------------
Cl   s Ca   s Buckingham    Buckingham A     2302.0000    eV        0.000 12.000
                            Buckingham rho  0.34020000    Ang       
                            Buckingham C     0.0000000    eV*Ang^6  
--------------------------------------------------------------------------------
O    s Sr   s Buckingham    Buckingham A     959.10000    eV        0.000 12.000
                            Buckingham rho  0.37210000    Ang       
                            Buckingham C     0.0000000    eV*Ang^6  
--------------------------------------------------------------------------------
Cl   s Sr   s Buckingham    Buckingham A     2191.0900    eV        0.000 12.000
                            Buckingham rho  0.34570000    Ang       
                            Buckingham C     0.0000000    eV*Ang^6  
--------------------------------------------------------------------------------
O    s Ba   s Buckingham    Buckingham A     905.70000    eV        0.000 12.000
                            Buckingham rho  0.39760000    Ang       
                            Buckingham C     0.0000000    eV*Ang^6  
--------------------------------------------------------------------------------
Cl   s Ba   s Buckingham    Buckingham A     2704.5500    eV        0.000 12.000
                            Buckingham rho  0.35280000    Ang       
                            Buckingham C     0.0000000    eV*Ang^6  
--------------------------------------------------------------------------------

********************************************************************************
*  Output for configuration   1                                                *
********************************************************************************


  Components of energy : 

--------------------------------------------------------------------------------
  Interatomic potentials     =           5.13022605 eV    
  Monopole - monopole (real) =         -10.03624526 eV    
  Monopole - monopole (recip)=         -29.53581274 eV    
  Monopole - monopole (total)=         -39.57205800 eV    
--------------------------------------------------------------------------------
  Total lattice energy       =         -34.44183194 eV    
--------------------------------------------------------------------------------
  Total lattice energy       =           -3323.1103 kJ/(mole unit cells)
--------------------------------------------------------------------------------


  Number of variables =        1

  Maximum number of calculations  =          1000
  Maximum Hessian update interval =            10
  Maximum step size               =   1.000000000
  Maximum parameter tolerance     =   0.000010000
  Maximum function  tolerance     =   0.000010000
  Maximum gradient  tolerance     =   0.001000000
  Maximum gradient  component     =   0.010000000

  Symmetry constrained optimisation

  Symmetry used for second derivatives

  Cell parameters to be optimised using strains

  Newton-Raphson optimiser to be used

  BFGS hessian update to be used

  Lower half triangular hessian to be used

  Start of bulk optimisation :

  Cycle:      0 Energy:       -34.441832  Gnorm:      0.196570  CPU:    0.014
  ** Hessian calculated **
  Cycle:      1 Energy:       -34.441914  Gnorm:      0.000103  CPU:    0.018


  **** Optimisation achieved ****


  Final energy =     -34.44191447 eV
  Final Gnorm  =       0.00000000

  Components of energy : 

--------------------------------------------------------------------------------
  Interatomic potentials     =           5.09689708 eV    
  Monopole - monopole (real) =         -10.02781331 eV    
  Monopole - monopole (recip)=         -29.51099824 eV    
  Monopole - monopole (total)=         -39.53881155 eV    
--------------------------------------------------------------------------------
  Total lattice energy       =         -34.44191447 eV    
--------------------------------------------------------------------------------
  Total lattice energy       =           -3323.1183 kJ/(mole unit cells)
--------------------------------------------------------------------------------

  Final asymmetric unit coordinates :

--------------------------------------------------------------------------------
   No.  Atomic        x           y           z         Radius
        Label       (Frac)      (Frac)      (Frac)       (Angs) 
--------------------------------------------------------------------------------
     1  Cl    c     0.000000    0.000000    0.000000    0.000000
     2  O     c     0.500000    0.500000    0.500000    0.000000
     3  Na    c     0.500000    0.500000    0.000000    0.000000
     4  Cl    s     0.000000    0.000000    0.000000    0.000000
     5  O     s     0.500000    0.500000    0.500000    0.000000
--------------------------------------------------------------------------------

  Final Cartesian lattice vectors (Angstroms) :

        4.507787    0.000000    0.000000
        0.000000    4.507787    0.000000
        0.000000    0.000000    4.507787


  Final cell parameters and derivatives :

--------------------------------------------------------------------------------
       a            4.507787 Angstrom     dE/de1(xx)     0.000000 eV/strain
       b            4.507787 Angstrom     dE/de2(yy)     0.000000 eV/strain
       c            4.507787 Angstrom     dE/de3(zz)     0.000000 eV/strain
       alpha       90.000000 Degrees      dE/de4(yz)     0.000000 eV/strain
       beta        90.000000 Degrees      dE/de5(xz)     0.000000 eV/strain
       gamma       90.000000 Degrees      dE/de6(xy)     0.000000 eV/strain
--------------------------------------------------------------------------------

  Primitive cell volume =            91.598892 Angs**3

  Density of cell =      2.183054 g/cm**3

  Non-primitive cell volume =            91.598892 Angs**3


  Final internal derivatives :

--------------------------------------------------------------------------------
   No.  Atomic          a             b             c           Radius
        Label          (eV)          (eV)          (eV)        (eV/Angs)
--------------------------------------------------------------------------------
      1 Cl    c       0.000000      0.000000      0.000000      0.000000
      2 O     c       0.000000      0.000000      0.000000      0.000000
      3 Na    c       0.000000      0.000000      0.000000      0.000000
      4 Cl    s       0.000000      0.000000      0.000000      0.000000
      5 O     s       0.000000      0.000000      0.000000      0.000000
--------------------------------------------------------------------------------
  Maximum abs         0.000000      0.000000      0.000000      0.000000
--------------------------------------------------------------------------------

  Comparison of initial and final structures : 

--------------------------------------------------------------------------------
  Parameter   Initial value   Final value   Difference    Units      Percent
--------------------------------------------------------------------------------
    Volume        91.368216     91.598892     0.230676    Angs**3      0.25
    a              4.504000      4.507787     0.003787    Angstroms    0.08
    b              4.504000      4.507787     0.003787    Angstroms    0.08
    c              4.504000      4.507787     0.003787    Angstroms    0.08
    alpha         90.000000     90.000000     0.000000    Degrees      0.00
    beta          90.000000     90.000000     0.000000    Degrees      0.00
    gamma         90.000000     90.000000     0.000000    Degrees      0.00
      1 x          0.000000      0.000000     0.000000    Fractional   0.00
      1 y          0.000000      0.000000     0.000000    Fractional   0.00
      1 z          0.000000      0.000000     0.000000    Fractional   0.00
      2 x          0.500000      0.500000     0.000000    Fractional   0.00
      2 y          0.500000      0.500000     0.000000    Fractional   0.00
      2 z          0.500000      0.500000     0.000000    Fractional   0.00
      3 x          0.500000      0.500000     0.000000    Fractional   0.00
      3 y          0.500000      0.500000     0.000000    Fractional   0.00
      3 z          0.000000      0.000000     0.000000    Fractional   0.00
      4 x          0.000000      0.000000     0.000000    Fractional   0.00
      4 y          0.000000      0.000000     0.000000    Fractional   0.00
      4 z          0.000000      0.000000     0.000000    Fractional   0.00
      5 x          0.500000      0.500000     0.000000    Fractional   0.00
      5 y          0.500000      0.500000     0.000000    Fractional   0.00
      5 z          0.500000      0.500000     0.000000    Fractional   0.00
--------------------------------------------------------------------------------


  Born effective charge tensors : 

-------------------------------------------------------------------------------
  Atom             x           y             z
-------------------------------------------------------------------------------
    1 Cl    x      -1.0181     -0.0000      0.0000
            y      -0.0000     -1.0181      0.0000
            z       0.0000      0.0000     -1.0181
-------------------------------------------------------------------------------
    2 O     x      -2.2647      0.0000     -0.0000
            y       0.0000     -2.2647     -0.0000
            z      -0.0000     -0.0000     -2.2647
-------------------------------------------------------------------------------
    3 Na    x       1.2258     -0.0000      0.0000
            y      -0.0000      1.2258     -0.0000
            z       0.0000     -0.0000      0.8313
-------------------------------------------------------------------------------




  Elastic Constant Matrix: (Units=GPa)

-------------------------------------------------------------------------------
  Indices      1         2         3         4         5         6    
-------------------------------------------------------------------------------
       1     95.8177   20.0737   20.0737   -0.0000   -0.0000    0.0000
       2     20.0737   95.8177   20.0737   -0.0000   -0.0000    0.0000
       3     20.0737   20.0737   95.8177   -0.0000   -0.0000    0.0000
       4     -0.0000   -0.0000   -0.0000   20.0737   -0.0000    0.0000
       5     -0.0000   -0.0000   -0.0000   -0.0000   20.0737    0.0000
       6      0.0000    0.0000    0.0000    0.0000    0.0000   20.0737
-------------------------------------------------------------------------------


  Elastic Compliance Matrix: (Units=1/GPa)

-------------------------------------------------------------------------------
  Indices      1         2         3         4         5         6    
-------------------------------------------------------------------------------
       1    0.011253 -0.001949 -0.001949  0.000000  0.000000 -0.000000
       2   -0.001949  0.011253 -0.001949  0.000000  0.000000  0.000000
       3   -0.001949 -0.001949  0.011253  0.000000  0.000000 -0.000000
       4    0.000000  0.000000  0.000000  0.049816  0.000000 -0.000000
       5    0.000000  0.000000  0.000000  0.000000  0.049816 -0.000000
       6   -0.000000  0.000000 -0.000000 -0.000000 -0.000000  0.049816
-------------------------------------------------------------------------------

  Mechanical properties :

-------------------------------------------------------------------------------
  Convention :                    Reuss         Voigt         Hill
-------------------------------------------------------------------------------
  Bulk  Modulus (GPa)     =      45.32174      45.32174      45.32174
  Shear Modulus (GPa)     =      24.72085      27.19304      25.95695
-------------------------------------------------------------------------------
  Velocity S-wave (km/s)  =       3.36511       3.52937       3.44822
  Velocity P-wave (km/s)  =       5.98827       6.11304       6.05098
-------------------------------------------------------------------------------
  Compressibility (1/GPa) =    0.02206447
-------------------------------------------------------------------------------
  Stress axis :                     x             y             z
-------------------------------------------------------------------------------
  Youngs Moduli (GPa)     =      88.86373      88.86373      88.86373
-------------------------------------------------------------------------------
  Poissons Ratio (x)      =                     0.17321       0.17321
  Poissons Ratio (y)      =       0.17321                     0.17321
  Poissons Ratio (z)      =       0.17321       0.17321
-------------------------------------------------------------------------------


  Piezoelectric Strain Matrix: (Units=C/m**2)

-------------------------------------------------------------------------------
  Indices      1         2         3         4         5         6    
-------------------------------------------------------------------------------
       x    -0.00000  -0.00000  -0.00000   0.00000  -0.00000  -0.00000
       y    -0.00000  -0.00000   0.00000  -0.00000   0.00000   0.00000
       z    -0.00000  -0.00000  -0.00000  -0.00000   0.00000   0.00000
-------------------------------------------------------------------------------


  Piezoelectric Stress Matrix: (Units=10**-11 C/N)

-------------------------------------------------------------------------------
  Indices      1         2         3         4         5         6    
-------------------------------------------------------------------------------
       x    -0.00000   0.00000   0.00000   0.00000  -0.00000  -0.00000
       y    -0.00000  -0.00000   0.00000  -0.00000   0.00000   0.00000
       z     0.00000   0.00000  -0.00000  -0.00000   0.00000   0.00000
-------------------------------------------------------------------------------


  Static dielectric constant tensor : 

-------------------------------------------------------------------------------
              x         y         z
-------------------------------------------------------------------------------
       x    22.84729   0.00000   0.00000
       y     0.00000  22.84729  -0.00000
       z     0.00000  -0.00000  22.84729
--------------------------------------------------------------------------------

  High frequency dielectric constant tensor : 

-------------------------------------------------------------------------------
              x         y         z
-------------------------------------------------------------------------------
       x     1.47557   0.00000  -0.00000
       y     0.00000   1.47557  -0.00000
       z    -0.00000  -0.00000   1.47557
-------------------------------------------------------------------------------

  Static refractive indices : 

-------------------------------------------------------------------------------
    1 =    4.77988      2 =    4.77988      3 =    4.77988
-------------------------------------------------------------------------------

  High frequency refractive indices : 

-------------------------------------------------------------------------------
    1 =    1.21473      2 =    1.21473      3 =    1.21473
-------------------------------------------------------------------------------


  Time to end of optimisation =       0.0267 seconds

********************************************************************************
*  Defect calculation for configuration   1 :                                  *
********************************************************************************

  Total number of defects =      3

  Total charge on defect  =  -1.00

  Defect centre is at   0.5000   0.2000   0.3000  Frac

  Region 1 radius =  13.0000      Number of ions =    697

  Number of symmetry inequivalent region 1 ions  =    401

  Region 2 radius =  21.0000      Number of ions =   2257

  Number of symmetry inequivalent region 2a ions =   1210

  Region 2a mode = 4 : screened electrostatics due to region 1 
                       neglect correction to region 1 forces from 2a
                       region 2a displacements based on defects only

  Region 2a ions will only interact with defects in region 1

  Vacancies:

--------------------------------------------------------------------------------
    Specification type     Symbol/Number         x          y          z
--------------------------------------------------------------------------------
    Fractional                               0.500000   0.500000   0.000000
    Fractional                               0.500000   0.000000   0.500000
--------------------------------------------------------------------------------

  Interstitials:

--------------------------------------------------------------------------------
    Specification type     Symbol/Number         x          y          z
--------------------------------------------------------------------------------
    Atom/Fractional         Na               0.500000   0.200000   0.300000
--------------------------------------------------------------------------------


  Symmetry reduced region 1 (Relative to defect centre) :

--------------------------------------------------------------------------------
   No.   Atomic       x            y             z       Radius  Multiplicity   
         Label      (Angs)       (Angs)        (Angs)    (Angs)     
--------------------------------------------------------------------------------
     1  Na    c      0.0000       0.0000       0.0000    0.0000     1    Defect
     2  O     c      0.0000       1.3523 *     0.9016 *  0.0000     1          
     3  Na    c      2.2539 *     1.3523 *     0.9016 *  0.0000     2          
     4  Cl    c      2.2539 *    -0.9016 *    -1.3523 *  0.0000     2          
     5  O     c      0.0000      -3.1555 *     0.9016 *  0.0000     1          
     6  Na    c      0.0000       1.3523 *     3.1555 *  0.0000     1          
     7  Na    c      0.0000      -3.1555 *    -1.3523 *  0.0000     1          
     8  Na    c      0.0000       3.6062 *     0.9016 *  0.0000     1          
     9  Na    c      0.0000      -0.9016 *    -3.6062 *  0.0000     1          
    10  O     c      0.0000       1.3523 *    -3.6062 *  0.0000     1          
    11  Cl    c      2.2539 *    -0.9016 *     3.1555 *  0.0000     2          
    12  Na    c      2.2539 *    -3.1555 *     0.9016 *  0.0000     2          
    13  Cl    c      2.2539 *     3.6062 *    -1.3523 *  0.0000     2          
    14  Na    c      0.0000      -3.1555 *     3.1555 *  0.0000     1          
    15  Na    c      2.2539 *     1.3523 *    -3.6062 *  0.0000     2          
    16  Na    c     -4.5078 *    -0.9016 *     0.9016 *  0.0000     2          
    17  O     c     -4.5078 *     1.3523 *     0.9016 *  0.0000     2          
    18  O     c      0.0000      -3.1555 *    -3.6062 *  0.0000     1          
    19  Na    c     -4.5078 *     1.3523 *    -1.3523 *  0.0000     2          
    20  Na    c      0.0000       3.6062 *    -3.6062 *  0.0000     1          
    21  Cl    c      2.2539 *     3.6062 *     3.1555 *  0.0000     2          
    22  Na    c      2.2539 *    -3.1555 *    -3.6062 *  0.0000     2          
    23  Na    c      0.0000      -0.9016 *     5.4093 *  0.0000     1          
    24  Na    c      0.0000      -5.4093 *     0.9016 *  0.0000     1          
    25  O     c      0.0000       1.3523 *     5.4093 *  0.0000     1          
    26  O     c     -4.5078 *    -3.1555 *     0.9016 *  0.0000     2          
    27  Na    c     -4.5078 *     1.3523 *     3.1555 *  0.0000     2          
    28  Na    c     -4.5078 *    -3.1555 *    -1.3523 *  0.0000     2          
    29  Na    c     -4.5078 *    -0.9016 *    -3.6062 *  0.0000     2          
    30  Na    c     -4.5078 *     3.6062 *     0.9016 *  0.0000     2          
    31  O     c      0.0000       5.8601 *     0.9016 *  0.0000     1          
    32  O     c     -4.5078 *     1.3523 *    -3.6062 *  0.0000     2          
    33  Na    c      2.2539 *     1.3523 *     5.4093 *  0.0000     2          
    34  Cl    c      2.2539 *    -5.4093 *    -1.3523 *  0.0000     2          
    35  Na    c      0.0000       1.3523 *    -5.8601 *  0.0000     1          
    36  Na    c      0.0000       5.8601 *    -1.3523 *  0.0000     1          
    37  O     c      0.0000      -3.1555 *     5.4093 *  0.0000     1          
    38  Cl    c      2.2539 *    -0.9016 *    -5.8601 *  0.0000     2          
    39  Na    c     -4.5078 *    -3.1555 *     3.1555 *  0.0000     2          
    40  Na    c      2.2539 *     5.8601 *     0.9016 *  0.0000     2          
    41  Na    c      0.0000       3.6062 *     5.4093 *  0.0000     1          
    42  Na    c      0.0000      -5.4093 *    -3.6062 *  0.0000     1          
    43  O     c     -4.5078 *    -3.1555 *    -3.6062 *  0.0000     2          
    44  Cl    c      2.2539 *    -5.4093 *     3.1555 *  0.0000     2          
    45  Na    c      0.0000       5.8601 *     3.1555 *  0.0000     1          
    46  Na    c      2.2539 *    -3.1555 *     5.4093 *  0.0000     2          
    47  Na    c      0.0000      -3.1555 *    -5.8601 *  0.0000     1          
    48  Na    c     -4.5078 *     3.6062 *    -3.6062 *  0.0000     2          
    49  O     c      0.0000       5.8601 *    -3.6062 *  0.0000     1          
    50  Cl    c      6.7617 *    -0.9016 *    -1.3523 *  0.0000     2          
    51  Na    c      6.7617 *     1.3523 *     0.9016 *  0.0000     2          
    52  Na    c      4.5078 *    -0.9016 *     5.4093 *  0.0000     2          
    53  Na    c     -4.5078 *    -5.4093 *     0.9016 *  0.0000     2          
    54  O     c     -4.5078 *     1.3523 *     5.4093 *  0.0000     2          
    55  Cl    c      2.2539 *     3.6062 *    -5.8601 *  0.0000     2          
    56  Na    c      2.2539 *     5.8601 *    -3.6062 *  0.0000     2          
    57  O     c     -4.5078 *     5.8601 *     0.9016 *  0.0000     2          
    58  Na    c     -4.5078 *     5.8601 *    -1.3523 *  0.0000     2          
    59  Cl    c      6.7617 *    -0.9016 *     3.1555 *  0.0000     2          
    60  Na    c      4.5078 *     1.3523 *    -5.8601 *  0.0000     2          
    61  Na    c      6.7617 *    -3.1555 *     0.9016 *  0.0000     2          
    62  Na    c      0.0000      -5.4093 *     5.4093 *  0.0000     1          
    63  O     c     -4.5078 *    -3.1555 *     5.4093 *  0.0000     2          
    64  O     c      0.0000      -7.6632 *     0.9016 *  0.0000     1          
    65  Na    c      0.0000       1.3523 *     7.6632 *  0.0000     1          
    66  Cl    c      6.7617 *     3.6062 *    -1.3523 *  0.0000     2          
    67  Na    c      0.0000      -7.6632 *    -1.3523 *  0.0000     1          
    68  Na    c      6.7617 *     1.3523 *    -3.6062 *  0.0000     2          
    69  Na    c     -4.5078 *     3.6062 *     5.4093 *  0.0000     2          
    70  Na    c     -4.5078 *    -5.4093 *    -3.6062 *  0.0000     2          
    71  O     c      0.0000       5.8601 *     5.4093 *  0.0000     1          
    72  Cl    c      2.2539 *    -0.9016 *     7.6632 *  0.0000     2          
    73  Na    c     -4.5078 *     5.8601 *     3.1555 *  0.0000     2          
    74  Na    c      4.5078 *    -3.1555 *    -5.8601 *  0.0000     2          
    75  Na    c      2.2539 *    -7.6632 *     0.9016 *  0.0000     2          
    76  Na    c      0.0000      -0.9016 *    -8.1140 *  0.0000     1          
    77  Na    c      0.0000       8.1140 *     0.9016 *  0.0000     1          
    78  O     c      0.0000       1.3523 *    -8.1140 *  0.0000     1          
    79  O     c     -4.5078 *     5.8601 *    -3.6062 *  0.0000     2          
    80  Cl    c      2.2539 *    -5.4093 *    -5.8601 *  0.0000     2          
    81  Cl    c      6.7617 *     3.6062 *     3.1555 *  0.0000     2          
    82  Na    c      0.0000       5.8601 *    -5.8601 *  0.0000     1          
    83  Na    c      0.0000      -3.1555 *     7.6632 *  0.0000     1          
    84  Na    c      2.2539 *     5.8601 *     5.4093 *  0.0000     2          
    85  Na    c      0.0000      -7.6632 *     3.1555 *  0.0000     1          
    86  Na    c      6.7617 *    -3.1555 *    -3.6062 *  0.0000     2          
    87  O     c      0.0000      -7.6632 *    -3.6062 *  0.0000     1          
    88  Na    c      2.2539 *     1.3523 *    -8.1140 *  0.0000     2          
    89  Cl    c      2.2539 *     8.1140 *    -1.3523 *  0.0000     2          
    90  O     c      0.0000      -3.1555 *    -8.1140 *  0.0000     1          
    91  Cl    c      2.2539 *     3.6062 *     7.6632 *  0.0000     2          
    92  Na    c      6.7617 *     1.3523 *     5.4093 *  0.0000     2          
    93  Cl    c      6.7617 *    -5.4093 *    -1.3523 *  0.0000     2          
    94  Na    c      2.2539 *    -7.6632 *    -3.6062 *  0.0000     2          
    95  Na    c      0.0000       3.6062 *    -8.1140 *  0.0000     1          
    96  Na    c      0.0000       8.1140 *    -3.6062 *  0.0000     1          
    97  Na    c      4.5078 *    -5.4093 *     5.4093 *  0.0000     2          
    98  O     c      4.5078 *    -7.6632 *     0.9016 *  0.0000     2          
    99  Cl    c      2.2539 *     8.1140 *     3.1555 *  0.0000     2          
   100  Na    c     -4.5078 *     1.3523 *     7.6632 *  0.0000     2          
   101  Cl    c      6.7617 *    -0.9016 *    -5.8601 *  0.0000     2          
   102  Na    c      2.2539 *    -3.1555 *    -8.1140 *  0.0000     2          
   103  Na    c      6.7617 *     5.8601 *     0.9016 *  0.0000     2          
   104  Na    c      4.5078 *    -7.6632 *    -1.3523 *  0.0000     2          
   105  Na    c      9.0156 *    -0.9016 *     0.9016 *  0.0000     2          
   106  O     c      4.5078 *     5.8601 *     5.4093 *  0.0000     2          
   107  O     c      9.0156 *     1.3523 *     0.9016 *  0.0000     2          
   108  Cl    c      6.7617 *    -5.4093 *     3.1555 *  0.0000     2          
   109  Na    c      9.0156 *     1.3523 *    -1.3523 *  0.0000     2          
   110  Na    c      6.7617 *    -3.1555 *     5.4093 *  0.0000     2          
   111  Na    c     -4.5078 *    -0.9016 *    -8.1140 *  0.0000     2          
   112  Na    c     -4.5078 *     8.1140 *     0.9016 *  0.0000     2          
   113  O     c      0.0000      -7.6632 *     5.4093 *  0.0000     1          
   114  O     c      4.5078 *     1.3523 *    -8.1140 *  0.0000     2          
   115  Na    c     -4.5078 *     5.8601 *    -5.8601 *  0.0000     2          
   116  Na    c     -4.5078 *    -3.1555 *     7.6632 *  0.0000     2          
   117  Na    c      4.5078 *    -7.6632 *     3.1555 *  0.0000     2          
   118  O     c      9.0156 *    -3.1555 *     0.9016 *  0.0000     2          
   119  O     c      4.5078 *    -7.6632 *    -3.6062 *  0.0000     2          
   120  Cl    c      2.2539 *    -5.4093 *     7.6632 *  0.0000     2          
   121  Na    c      0.0000       5.8601 *     7.6632 *  0.0000     1          
   122  Na    c      9.0156 *     1.3523 *     3.1555 *  0.0000     2          
   123  Cl    c      6.7617 *     3.6062 *    -5.8601 *  0.0000     2          
   124  Na    c      9.0156 *    -3.1555 *    -1.3523 *  0.0000     2          
   125  Na    c      2.2539 *    -7.6632 *     5.4093 *  0.0000     2          
   126  Na    c      6.7617 *     5.8601 *    -3.6062 *  0.0000     2          
   127  Na    c      0.0000      -7.6632 *    -5.8601 *  0.0000     1          
   128  Na    c      0.0000       8.1140 *     5.4093 *  0.0000     1          
   129  Na    c      0.0000      -5.4093 *    -8.1140 *  0.0000     1          
   130  Na    c      9.0156 *    -0.9016 *    -3.6062 *  0.0000     2          
   131  Na    c      9.0156 *     3.6062 *     0.9016 *  0.0000     2          
   132  O     c      9.0156 *     1.3523 *    -3.6062 *  0.0000     2          
   133  O     c      4.5078 *    -3.1555 *    -8.1140 *  0.0000     2          
   134  Na    c     -4.5078 *     3.6062 *    -8.1140 *  0.0000     2          
   135  Na    c     -4.5078 *     8.1140 *    -3.6062 *  0.0000     2          
   136  Na    c      0.0000      -0.9016 *     9.9171 *  0.0000     1          
   137  Na    c      0.0000      -9.9171 *     0.9016 *  0.0000     1          
   138  O     c      0.0000       1.3523 *     9.9171 *  0.0000     1          
   139  O     c      0.0000       5.8601 *    -8.1140 *  0.0000     1          
   140  Na    c      9.0156 *    -3.1555 *     3.1555 *  0.0000     2          
   141  O     c      9.0156 *    -3.1555 *    -3.6062 *  0.0000     2          
   142  Cl    c      2.2539 *     8.1140 *    -5.8601 *  0.0000     2          
   143  Cl    c      6.7617 *    -0.9016 *     7.6632 *  0.0000     2          
   144  Na    c      2.2539 *     1.3523 *     9.9171 *  0.0000     2          
   145  Na    c      2.2539 *     5.8601 *    -8.1140 *  0.0000     2          
   146  Cl    c      2.2539 *    -9.9171 *    -1.3523 *  0.0000     2          
   147  Na    c      6.7617 *    -7.6632 *     0.9016 *  0.0000     2          
   148  Na    c      9.0156 *     3.6062 *    -3.6062 *  0.0000     2          
   149  O     c      0.0000      -3.1555 *     9.9171 *  0.0000     1          
   150  O     c      4.5078 *    -7.6632 *     5.4093 *  0.0000     2          
   151  O     c      0.0000      10.3679 *     0.9016 *  0.0000     1          
   152  Na    c      6.7617 *     5.8601 *     5.4093 *  0.0000     2          
   153  Cl    c      6.7617 *    -5.4093 *    -5.8601 *  0.0000     2          
   154  Na    c      0.0000       1.3523 *   -10.3679 *  0.0000     1          
   155  Na    c      0.0000      10.3679 *    -1.3523 *  0.0000     1          
   156  Na    c      0.0000       3.6062 *     9.9171 *  0.0000     1          
   157  Na    c      0.0000      -9.9171 *    -3.6062 *  0.0000     1          
   158  Na    c      9.0156 *    -0.9016 *     5.4093 *  0.0000     2          
   159  Na    c      9.0156 *    -5.4093 *     0.9016 *  0.0000     2          
   160  O     c      9.0156 *     1.3523 *     5.4093 *  0.0000     2          
   161  Na    c     -4.5078 *     5.8601 *     7.6632 *  0.0000     2          
   162  Cl    c      2.2539 *    -9.9171 *     3.1555 *  0.0000     2          
   163  Cl    c      6.7617 *     8.1140 *    -1.3523 *  0.0000     2          
   164  Na    c      4.5078 *    -7.6632 *    -5.8601 *  0.0000     2          
   165  Na    c      2.2539 *    -3.1555 *     9.9171 *  0.0000     2          
   166  Na    c      6.7617 *     1.3523 *    -8.1140 *  0.0000     2          
   167  Cl    c      2.2539 *    -0.9016 *   -10.3679 *  0.0000     2          
   168  Na    c      2.2539 *    10.3679 *     0.9016 *  0.0000     2          
   169  Na    c      4.5078 *     8.1140 *     5.4093 *  0.0000     2          
   170  Na    c     -4.5078 *    -5.4093 *    -8.1140 *  0.0000     2          
   171  O     c      9.0156 *     5.8601 *     0.9016 *  0.0000     2          
   172  Na    c      9.0156 *     1.3523 *    -5.8601 *  0.0000     2          
   173  Cl    c      6.7617 *     3.6062 *     7.6632 *  0.0000     2          
   174  Na    c      0.0000      -7.6632 *     7.6632 *  0.0000     1          
   175  Na    c      9.0156 *     5.8601 *    -1.3523 *  0.0000     2          
   176  Na    c      6.7617 *    -7.6632 *    -3.6062 *  0.0000     2          
   177  Na    c      0.0000      10.3679 *     3.1555 *  0.0000     1          
   178  Na    c      0.0000      -3.1555 *   -10.3679 *  0.0000     1          
   179  Na    c     -4.5078 *    -0.9016 *     9.9171 *  0.0000     2          
   180  Na    c     -4.5078 *    -9.9171 *     0.9016 *  0.0000     2          
   181  O     c      9.0156 *    -3.1555 *     5.4093 *  0.0000     2          
   182  O     c     -4.5078 *     5.8601 *    -8.1140 *  0.0000     2          
   183  O     c      4.5078 *     1.3523 *     9.9171 *  0.0000     2          
   184  O     c      0.0000      10.3679 *    -3.6062 *  0.0000     1          
   185  Cl    c      6.7617 *     8.1140 *     3.1555 *  0.0000     2          
   186  Na    c      6.7617 *    -3.1555 *    -8.1140 *  0.0000     2          
   187  Na    c      9.0156 *     3.6062 *     5.4093 *  0.0000     2          
   188  Na    c      9.0156 *    -5.4093 *    -3.6062 *  0.0000     2          
   189  O     c      0.0000      -7.6632 *    -8.1140 *  0.0000     1          
   190  Na    c      9.0156 *     5.8601 *     3.1555 *  0.0000     2          
   191  Na    c      9.0156 *    -3.1555 *    -5.8601 *  0.0000     2          
   192  Cl    c      2.2539 *     3.6062 *   -10.3679 *  0.0000     2          
   193  Na    c      2.2539 *    10.3679 *    -3.6062 *  0.0000     2          
   194  Na    c      0.0000      -5.4093 *     9.9171 *  0.0000     1          
   195  Na    c      0.0000      -9.9171 *     5.4093 *  0.0000     1          
   196  O     c      4.5078 *    -3.1555 *     9.9171 *  0.0000     2          
   197  O     c      9.0156 *     5.8601 *    -3.6062 *  0.0000     2          
   198  O     c     -4.5078 *    10.3679 *     0.9016 *  0.0000     2          
   199  Na    c     11.2695 *     1.3523 *     0.9016 *  0.0000     2          
   200  Cl    c      2.2539 *     8.1140 *     7.6632 *  0.0000     2          
   201  Cl    c     11.2695 *    -0.9016 *    -1.3523 *  0.0000     2          
   202  Na    c     -4.5078 *     1.3523 *   -10.3679 *  0.0000     2          
   203  Na    c     -4.5078 *    10.3679 *    -1.3523 *  0.0000     2          
   204  Na    c      2.2539 *    -7.6632 *    -8.1140 *  0.0000     2          
   205  Na    c      0.0000       8.1140 *    -8.1140 *  0.0000     1          
   206  Na    c      4.5078 *     3.6062 *     9.9171 *  0.0000     2          
   207  Na    c     -4.5078 *    -9.9171 *    -3.6062 *  0.0000     2          
   208  O     c      0.0000       5.8601 *     9.9171 *  0.0000     1          
   209  Cl    c      6.7617 *    -5.4093 *     7.6632 *  0.0000     2          
   210  Na    c      6.7617 *    -7.6632 *     5.4093 *  0.0000     2          
   211  O     c      0.0000      10.3679 *     5.4093 *  0.0000     1          
   212  Cl    c     11.2695 *    -0.9016 *     3.1555 *  0.0000     2          
   213  Na    c     11.2695 *    -3.1555 *     0.9016 *  0.0000     2          
   214  Cl    c      2.2539 *    -9.9171 *    -5.8601 *  0.0000     2          
   215  Na    c      4.5078 *    -7.6632 *     7.6632 *  0.0000     2          
   216  Na    c      2.2539 *     5.8601 *     9.9171 *  0.0000     2          
   217  Na    c      4.5078 *    10.3679 *     3.1555 *  0.0000     2          
   218  Na    c      4.5078 *    -3.1555 *   -10.3679 *  0.0000     2          
   219  Na    c      9.0156 *    -5.4093 *     5.4093 *  0.0000     2          
   220  O     c      9.0156 *    -7.6632 *     0.9016 *  0.0000     2          
   221  O     c     -4.5078 *    10.3679 *    -3.6062 *  0.0000     2          
   222  Cl    c     11.2695 *     3.6062 *    -1.3523 *  0.0000     2          
   223  Na    c     11.2695 *     1.3523 *    -3.6062 *  0.0000     2          
   224  Na    c      9.0156 *     1.3523 *     7.6632 *  0.0000     2          
   225  Na    c      9.0156 *    -7.6632 *    -1.3523 *  0.0000     2          
   226  Cl    c      2.2539 *    -5.4093 *   -10.3679 *  0.0000     2          
   227  Na    c      0.0000       5.8601 *   -10.3679 *  0.0000     1          
   228  Na    c      0.0000      10.3679 *    -5.8601 *  0.0000     1          
   229  Na    c      2.2539 *    10.3679 *     5.4093 *  0.0000     2          
   230  O     c      9.0156 *     5.8601 *     5.4093 *  0.0000     2          
   231  O     c      4.5078 *    -7.6632 *    -8.1140 *  0.0000     2          
   232  Cl    c      6.7617 *    -9.9171 *    -1.3523 *  0.0000     2          
   233  Cl    c      6.7617 *     8.1140 *    -5.8601 *  0.0000     2          
   234  Na    c      6.7617 *     1.3523 *     9.9171 *  0.0000     2          
   235  Na    c      6.7617 *     5.8601 *    -8.1140 *  0.0000     2          
   236  Na    c      4.5078 *    -9.9171 *     5.4093 *  0.0000     2          
   237  Na    c      9.0156 *    -0.9016 *    -8.1140 *  0.0000     2          
   238  Na    c      9.0156 *     8.1140 *     0.9016 *  0.0000     2          
   239  Na    c     -4.5078 *    -5.4093 *     9.9171 *  0.0000     2          
   240  O     c      9.0156 *     1.3523 *    -8.1140 *  0.0000     2          
   241  O     c      0.0000     -12.1710 *     0.9016 *  0.0000     1          
   242  Cl    c     11.2695 *     3.6062 *     3.1555 *  0.0000     2          
   243  Na    c      9.0156 *     5.8601 *    -5.8601 *  0.0000     2          
   244  Na    c      9.0156 *    -3.1555 *     7.6632 *  0.0000     2          
   245  Na    c     11.2695 *    -3.1555 *    -3.6062 *  0.0000     2          
   246  Na    c      0.0000       1.3523 *    12.1710 *  0.0000     1          
   247  Na    c      0.0000     -12.1710 *    -1.3523 *  0.0000     1          
   248  Na    c      9.0156 *    -7.6632 *     3.1555 *  0.0000     2          
   249  Na    c      4.5078 *     8.1140 *    -8.1140 *  0.0000     2          
   250  O     c      4.5078 *     5.8601 *     9.9171 *  0.0000     2          
   251  O     c      9.0156 *    -7.6632 *    -3.6062 *  0.0000     2          
   252  Cl    c      2.2539 *    -0.9016 *    12.1710 *  0.0000     2          
   253  Cl    c      6.7617 *    -9.9171 *     3.1555 *  0.0000     2          
   254  Na    c      2.2539 *   -12.1710 *     0.9016 *  0.0000     2          
   255  Na    c      6.7617 *    -3.1555 *     9.9171 *  0.0000     2          
   256  Cl    c      6.7617 *    -0.9016 *   -10.3679 *  0.0000     2          
   257  Na    c      6.7617 *    10.3679 *     0.9016 *  0.0000     2          
   258  O     c      9.0156 *    -3.1555 *    -8.1140 *  0.0000     2          
   259  O     c      0.0000      -7.6632 *     9.9171 *  0.0000     1          
   260  O     c      4.5078 *    10.3679 *     5.4093 *  0.0000     2          
   261  Cl    c     11.2695 *    -5.4093 *    -1.3523 *  0.0000     2          
   262  Na    c     11.2695 *     1.3523 *     5.4093 *  0.0000     2          
   263  Na    c      0.0000      -3.1555 *    12.1710 *  0.0000     1          
   264  Na    c      0.0000     -12.1710 *     3.1555 *  0.0000     1          
   265  Na    c      0.0000      -0.9016 *   -12.6218 *  0.0000     1          
   266  Na    c      0.0000      12.6218 *     0.9016 *  0.0000     1          
   267  Na    c      9.0156 *     3.6062 *    -8.1140 *  0.0000     2          
   268  Na    c      9.0156 *     8.1140 *    -3.6062 *  0.0000     2          
   269  O     c      0.0000       1.3523 *   -12.6218 *  0.0000     1          
   270  O     c      0.0000     -12.1710 *    -3.6062 *  0.0000     1          
   271  Na    c     11.2695 *     5.8601 *     0.9016 *  0.0000     2          
   272  Cl    c      2.2539 *    -9.9171 *     7.6632 *  0.0000     2          
   273  Cl    c     11.2695 *    -0.9016 *    -5.8601 *  0.0000     2          
   274  Na    c     -4.5078 *     5.8601 *   -10.3679 *  0.0000     2          
   275  Na    c     -4.5078 *    10.3679 *    -5.8601 *  0.0000     2          
   276  Na    c      2.2539 *    -7.6632 *     9.9171 *  0.0000     2          
   277  Na    c      0.0000       8.1140 *     9.9171 *  0.0000     1          
   278  Na    c      0.0000      -9.9171 *    -8.1140 *  0.0000     1          
   279  Cl    c      2.2539 *    12.6218 *    -1.3523 *  0.0000     2          
   280  Na    c      2.2539 *     1.3523 *   -12.6218 *  0.0000     2          
   281  Cl    c     11.2695 *    -5.4093 *     3.1555 *  0.0000     2          
   282  Na    c     11.2695 *    -3.1555 *     5.4093 *  0.0000     2          
   283  Cl    c      2.2539 *     3.6062 *    12.1710 *  0.0000     2          
   284  Cl    c      6.7617 *     3.6062 *   -10.3679 *  0.0000     2          
   285  Na    c      0.0000      10.3679 *     7.6632 *  0.0000     1          
   286  Na    c      2.2539 *   -12.1710 *    -3.6062 *  0.0000     2          
   287  Na    c      0.0000      -7.6632 *   -10.3679 *  0.0000     1          
   288  Na    c      6.7617 *    10.3679 *    -3.6062 *  0.0000     2          
   289  O     s      0.0000       1.3523 *     0.9016 *  0.0000     1          
   290  Cl    s      2.2539 *    -0.9016 *    -1.3523 *  0.0000     2          
   291  O     s      0.0000      -3.1555 *     0.9016 *  0.0000     1          
   292  O     s      0.0000       1.3523 *    -3.6062 *  0.0000     1          
   293  Cl    s      2.2539 *    -0.9016 *     3.1555 *  0.0000     2          
   294  Cl    s      2.2539 *     3.6062 *    -1.3523 *  0.0000     2          
   295  O     s     -4.5078 *     1.3523 *     0.9016 *  0.0000     2          
   296  O     s      0.0000      -3.1555 *    -3.6062 *  0.0000     1          
   297  Cl    s      2.2539 *     3.6062 *     3.1555 *  0.0000     2          
   298  O     s      0.0000       1.3523 *     5.4093 *  0.0000     1          
   299  O     s     -4.5078 *    -3.1555 *     0.9016 *  0.0000     2          
   300  O     s      0.0000       5.8601 *     0.9016 *  0.0000     1          
   301  O     s     -4.5078 *     1.3523 *    -3.6062 *  0.0000     2          
   302  Cl    s      2.2539 *    -5.4093 *    -1.3523 *  0.0000     2          
   303  O     s      0.0000      -3.1555 *     5.4093 *  0.0000     1          
   304  Cl    s      2.2539 *    -0.9016 *    -5.8601 *  0.0000     2          
   305  O     s     -4.5078 *    -3.1555 *    -3.6062 *  0.0000     2          
   306  Cl    s      2.2539 *    -5.4093 *     3.1555 *  0.0000     2          
   307  O     s      0.0000       5.8601 *    -3.6062 *  0.0000     1          
   308  Cl    s      6.7617 *    -0.9016 *    -1.3523 *  0.0000     2          
   309  O     s     -4.5078 *     1.3523 *     5.4093 *  0.0000     2          
   310  Cl    s      2.2539 *     3.6062 *    -5.8601 *  0.0000     2          
   311  O     s     -4.5078 *     5.8601 *     0.9016 *  0.0000     2          
   312  Cl    s      6.7617 *    -0.9016 *     3.1555 *  0.0000     2          
   313  O     s     -4.5078 *    -3.1555 *     5.4093 *  0.0000     2          
   314  O     s      0.0000      -7.6632 *     0.9016 *  0.0000     1          
   315  Cl    s      6.7617 *     3.6062 *    -1.3523 *  0.0000     2          
   316  O     s      0.0000       5.8601 *     5.4093 *  0.0000     1          
   317  Cl    s      2.2539 *    -0.9016 *     7.6632 *  0.0000     2          
   318  O     s      0.0000       1.3523 *    -8.1140 *  0.0000     1          
   319  O     s     -4.5078 *     5.8601 *    -3.6062 *  0.0000     2          
   320  Cl    s      2.2539 *    -5.4093 *    -5.8601 *  0.0000     2          
   321  Cl    s      6.7617 *     3.6062 *     3.1555 *  0.0000     2          
   322  O     s      0.0000      -7.6632 *    -3.6062 *  0.0000     1          
   323  Cl    s      2.2539 *     8.1140 *    -1.3523 *  0.0000     2          
   324  O     s      0.0000      -3.1555 *    -8.1140 *  0.0000     1          
   325  Cl    s      2.2539 *     3.6062 *     7.6632 *  0.0000     2          
   326  Cl    s      6.7617 *    -5.4093 *    -1.3523 *  0.0000     2          
   327  O     s      4.5078 *    -7.6632 *     0.9016 *  0.0000     2          
   328  Cl    s      2.2539 *     8.1140 *     3.1555 *  0.0000     2          
   329  Cl    s      6.7617 *    -0.9016 *    -5.8601 *  0.0000     2          
   330  O     s      4.5078 *     5.8601 *     5.4093 *  0.0000     2          
   331  O     s      9.0156 *     1.3523 *     0.9016 *  0.0000     2          
   332  Cl    s      6.7617 *    -5.4093 *     3.1555 *  0.0000     2          
   333  O     s      0.0000      -7.6632 *     5.4093 *  0.0000     1          
   334  O     s      4.5078 *     1.3523 *    -8.1140 *  0.0000     2          
   335  O     s      9.0156 *    -3.1555 *     0.9016 *  0.0000     2          
   336  O     s      4.5078 *    -7.6632 *    -3.6062 *  0.0000     2          
   337  Cl    s      2.2539 *    -5.4093 *     7.6632 *  0.0000     2          
   338  Cl    s      6.7617 *     3.6062 *    -5.8601 *  0.0000     2          
   339  O     s      9.0156 *     1.3523 *    -3.6062 *  0.0000     2          
   340  O     s      4.5078 *    -3.1555 *    -8.1140 *  0.0000     2          
   341  O     s      0.0000       1.3523 *     9.9171 *  0.0000     1          
   342  O     s      0.0000       5.8601 *    -8.1140 *  0.0000     1          
   343  O     s      9.0156 *    -3.1555 *    -3.6062 *  0.0000     2          
   344  Cl    s      2.2539 *     8.1140 *    -5.8601 *  0.0000     2          
   345  Cl    s      6.7617 *    -0.9016 *     7.6632 *  0.0000     2          
   346  Cl    s      2.2539 *    -9.9171 *    -1.3523 *  0.0000     2          
   347  O     s      0.0000      -3.1555 *     9.9171 *  0.0000     1          
   348  O     s      4.5078 *    -7.6632 *     5.4093 *  0.0000     2          
   349  O     s      0.0000      10.3679 *     0.9016 *  0.0000     1          
   350  Cl    s      6.7617 *    -5.4093 *    -5.8601 *  0.0000     2          
   351  O     s      9.0156 *     1.3523 *     5.4093 *  0.0000     2          
   352  Cl    s      2.2539 *    -9.9171 *     3.1555 *  0.0000     2          
   353  Cl    s      6.7617 *     8.1140 *    -1.3523 *  0.0000     2          
   354  Cl    s      2.2539 *    -0.9016 *   -10.3679 *  0.0000     2          
   355  O     s      9.0156 *     5.8601 *     0.9016 *  0.0000     2          
   356  Cl    s      6.7617 *     3.6062 *     7.6632 *  0.0000     2          
   357  O     s      9.0156 *    -3.1555 *     5.4093 *  0.0000     2          
   358  O     s     -4.5078 *     5.8601 *    -8.1140 *  0.0000     2          
   359  O     s      4.5078 *     1.3523 *     9.9171 *  0.0000     2          
   360  O     s      0.0000      10.3679 *    -3.6062 *  0.0000     1          
   361  Cl    s      6.7617 *     8.1140 *     3.1555 *  0.0000     2          
   362  O     s      0.0000      -7.6632 *    -8.1140 *  0.0000     1          
   363  Cl    s      2.2539 *     3.6062 *   -10.3679 *  0.0000     2          
   364  O     s      4.5078 *    -3.1555 *     9.9171 *  0.0000     2          
   365  O     s      9.0156 *     5.8601 *    -3.6062 *  0.0000     2          
   366  O     s     -4.5078 *    10.3679 *     0.9016 *  0.0000     2          
   367  Cl    s      2.2539 *     8.1140 *     7.6632 *  0.0000     2          
   368  Cl    s     11.2695 *    -0.9016 *    -1.3523 *  0.0000     2          
   369  O     s      0.0000       5.8601 *     9.9171 *  0.0000     1          
   370  Cl    s      6.7617 *    -5.4093 *     7.6632 *  0.0000     2          
   371  O     s      0.0000      10.3679 *     5.4093 *  0.0000     1          
   372  Cl    s     11.2695 *    -0.9016 *     3.1555 *  0.0000     2          
   373  Cl    s      2.2539 *    -9.9171 *    -5.8601 *  0.0000     2          
   374  O     s      9.0156 *    -7.6632 *     0.9016 *  0.0000     2          
   375  O     s     -4.5078 *    10.3679 *    -3.6062 *  0.0000     2          
   376  Cl    s     11.2695 *     3.6062 *    -1.3523 *  0.0000     2          
   377  Cl    s      2.2539 *    -5.4093 *   -10.3679 *  0.0000     2          
   378  O     s      9.0156 *     5.8601 *     5.4093 *  0.0000     2          
   379  O     s      4.5078 *    -7.6632 *    -8.1140 *  0.0000     2          
   380  Cl    s      6.7617 *    -9.9171 *    -1.3523 *  0.0000     2          
   381  Cl    s      6.7617 *     8.1140 *    -5.8601 *  0.0000     2          
   382  O     s      9.0156 *     1.3523 *    -8.1140 *  0.0000     2          
   383  O     s      0.0000     -12.1710 *     0.9016 *  0.0000     1          
   384  Cl    s     11.2695 *     3.6062 *     3.1555 *  0.0000     2          
   385  O     s      4.5078 *     5.8601 *     9.9171 *  0.0000     2          
   386  O     s      9.0156 *    -7.6632 *    -3.6062 *  0.0000     2          
   387  Cl    s      2.2539 *    -0.9016 *    12.1710 *  0.0000     2          
   388  Cl    s      6.7617 *    -9.9171 *     3.1555 *  0.0000     2          
   389  Cl    s      6.7617 *    -0.9016 *   -10.3679 *  0.0000     2          
   390  O     s      9.0156 *    -3.1555 *    -8.1140 *  0.0000     2          
   391  O     s      0.0000      -7.6632 *     9.9171 *  0.0000     1          
   392  O     s      4.5078 *    10.3679 *     5.4093 *  0.0000     2          
   393  Cl    s     11.2695 *    -5.4093 *    -1.3523 *  0.0000     2          
   394  O     s      0.0000       1.3523 *   -12.6218 *  0.0000     1          
   395  O     s      0.0000     -12.1710 *    -3.6062 *  0.0000     1          
   396  Cl    s      2.2539 *    -9.9171 *     7.6632 *  0.0000     2          
   397  Cl    s     11.2695 *    -0.9016 *    -5.8601 *  0.0000     2          
   398  Cl    s      2.2539 *    12.6218 *    -1.3523 *  0.0000     2          
   399  Cl    s     11.2695 *    -5.4093 *     3.1555 *  0.0000     2          
   400  Cl    s      2.2539 *     3.6062 *    12.1710 *  0.0000     2          
   401  Cl    s      6.7617 *     3.6062 *   -10.3679 *  0.0000     2          
--------------------------------------------------------------------------------

  Components of defect energy : 

--------------------------------------------------------------------------------
  Region 1 - region 1                   =      7.75593772 eV
  Region 1 - region 2a (unrelaxed)      =      2.61210367 eV
  Region 1 - 2a (relaxed - correction)  =     -0.40195661 eV
  Region 1 (Total)                      =      9.96608477 eV
  Region 2a                             =      0.20091428 eV
  Region 2b                             =     -0.32844487 eV
--------------------------------------------------------------------------------
  Total defect energy                   =      9.83855418 eV
--------------------------------------------------------------------------------

  Largest displacement in region 2 =   0.0202 Angstroms


  Number of variables =     1096

  Maximum number of calculations  =        1000
  Maximum Hessian update interval =          10
  Maximum step size               =   1.0000000
  Maximum parameter tolerance     =   0.0000100
  Maximum function  tolerance     =   0.0000100
  Maximum gradient  tolerance     =   0.0010000

  Symmetry adapted optimisation

  Symmetry to be used for second derivatives

  Newton-Raphson optimiser to be used

  BFGS hessian update to be used

  Lower half triangular hessian to be used

  Start of defect optimisation :

  Cycle:      0 Defect Energy:   9.838554  Gnorm:     0.018161  CPU:    7.173
  ** Hessian calculated **
  Cycle:      1 Defect Energy:   8.275620  Gnorm:     0.010126  CPU:   23.774
  Cycle:      2 Defect Energy:   7.734688  Gnorm:     0.009226  CPU:   34.623
  Cycle:      3 Defect Energy:   7.501587  Gnorm:     0.007692  CPU:   47.732
  Cycle:      4 Defect Energy:   7.106755  Gnorm:     0.008071  CPU:   61.575
  Cycle:      5 Defect Energy:   6.716959  Gnorm:     0.005591  CPU:   71.879
  Cycle:      6 Defect Energy:   6.290594  Gnorm:     0.006551  CPU:   87.766
  Cycle:      7 Defect Energy:   5.896574  Gnorm:     0.005695  CPU:   96.862
  Cycle:      8 Defect Energy:   5.567944  Gnorm:     0.003774  CPU:  107.445
  Cycle:      9 Defect Energy:   5.437297  Gnorm:     0.003473  CPU:  121.206
  Cycle:     10 Defect Energy:   5.390840  Gnorm:     0.002646  CPU:  123.930
  ** Hessian calculated **
  Cycle:     11 Defect Energy:   5.360433  Gnorm:     0.001907  CPU:  130.001
  Cycle:     12 Defect Energy:   5.336156  Gnorm:     0.001704  CPU:  132.341
  Cycle:     13 Defect Energy:   5.307333  Gnorm:     0.001676  CPU:  134.751
  Cycle:     14 Defect Energy:   5.275860  Gnorm:     0.001637  CPU:  137.060
  Cycle:     15 Defect Energy:   5.251033  Gnorm:     0.001606  CPU:  139.411
  Cycle:     16 Defect Energy:   5.230958  Gnorm:     0.001512  CPU:  141.596
  Cycle:     17 Defect Energy:   5.213520  Gnorm:     0.001499  CPU:  143.596
  Cycle:     18 Defect Energy:   5.196202  Gnorm:     0.001438  CPU:  149.681
  Cycle:     19 Defect Energy:   5.178092  Gnorm:     0.001329  CPU:  152.387
  Cycle:     20 Defect Energy:   5.159791  Gnorm:     0.001286  CPU:  155.318
  ** Hessian calculated **
  Cycle:     21 Defect Energy:   5.138494  Gnorm:     0.001228  CPU:  161.588
  Cycle:     22 Defect Energy:   5.109317  Gnorm:     0.001136  CPU:  164.104
  Cycle:     23 Defect Energy:   5.086948  Gnorm:     0.001061  CPU:  166.471
  Cycle:     24 Defect Energy:   5.046390  Gnorm:     0.000872  CPU:  168.885
  ** Hessian calculated **
  Cycle:     25 Defect Energy:   4.989431  Gnorm:     0.000821  CPU:  174.458
  Cycle:     26 Defect Energy:   4.998758  Gnorm:     0.000975  CPU:  176.634
  Cycle:     27 Defect Energy:   5.003117  Gnorm:     0.000882  CPU:  178.756
  ** Hessian calculated **
  Cycle:     28 Defect Energy:   4.988412  Gnorm:     0.000571  CPU:  188.593
  Cycle:     29 Defect Energy:   4.974277  Gnorm:     0.000432  CPU:  191.339
  Cycle:     30 Defect Energy:   4.960486  Gnorm:     0.000416  CPU:  194.032
  Cycle:     31 Defect Energy:   4.949763  Gnorm:     0.000372  CPU:  196.581
  Cycle:     32 Defect Energy:   4.942466  Gnorm:     0.000351  CPU:  199.054
  Cycle:     33 Defect Energy:   4.937257  Gnorm:     0.000352  CPU:  201.502
  Cycle:     34 Defect Energy:   4.933375  Gnorm:     0.000348  CPU:  203.891
  Cycle:     35 Defect Energy:   4.930406  Gnorm:     0.000345  CPU:  206.275
  Cycle:     36 Defect Energy:   4.927944  Gnorm:     0.000349  CPU:  208.504
  Cycle:     37 Defect Energy:   4.925538  Gnorm:     0.000359  CPU:  210.804
  ** Hessian calculated **
  Cycle:     38 Defect Energy:   4.921575  Gnorm:     0.000341  CPU:  218.798
  Cycle:     39 Defect Energy:   4.916052  Gnorm:     0.000316  CPU:  222.691
  Cycle:     40 Defect Energy:   4.908996  Gnorm:     0.000286  CPU:  225.393
  Cycle:     41 Defect Energy:   4.900843  Gnorm:     0.000257  CPU:  228.128
  Cycle:     42 Defect Energy:   4.891144  Gnorm:     0.000260  CPU:  230.635
  Cycle:     43 Defect Energy:   4.893755  Gnorm:     0.000338  CPU:  233.214
  ** Hessian calculated **
  Cycle:     44 Defect Energy:   4.892271  Gnorm:     0.000215  CPU:  239.238
  Cycle:     45 Defect Energy:   4.891265  Gnorm:     0.000172  CPU:  241.638
  Cycle:     46 Defect Energy:   4.890120  Gnorm:     0.000160  CPU:  243.867
  Cycle:     47 Defect Energy:   4.889091  Gnorm:     0.000160  CPU:  246.250
  Cycle:     48 Defect Energy:   4.888192  Gnorm:     0.000158  CPU:  248.473
  Cycle:     49 Defect Energy:   4.887488  Gnorm:     0.000164  CPU:  250.678
  Cycle:     50 Defect Energy:   4.886823  Gnorm:     0.000168  CPU:  257.165
  Cycle:     51 Defect Energy:   4.886241  Gnorm:     0.000163  CPU:  259.888
  Cycle:     52 Defect Energy:   4.885663  Gnorm:     0.000168  CPU:  262.691
  Cycle:     53 Defect Energy:   4.885043  Gnorm:     0.000167  CPU:  265.365
  ** Hessian calculated **
  Cycle:     54 Defect Energy:   4.884884  Gnorm:     0.000161  CPU:  271.605
  Cycle:     55 Defect Energy:   4.884664  Gnorm:     0.000157  CPU:  273.966
  Cycle:     56 Defect Energy:   4.884372  Gnorm:     0.000156  CPU:  276.405
  Cycle:     57 Defect Energy:   4.883951  Gnorm:     0.000153  CPU:  278.668
  Cycle:     58 Defect Energy:   4.883377  Gnorm:     0.000152  CPU:  281.014
  Cycle:     59 Defect Energy:   4.882604  Gnorm:     0.000152  CPU:  283.223
  Cycle:     60 Defect Energy:   4.881526  Gnorm:     0.000162  CPU:  285.376
  Cycle:     61 Defect Energy:   4.880172  Gnorm:     0.000178  CPU:  288.964
  Cycle:     62 Defect Energy:   4.878209  Gnorm:     0.000217  CPU:  293.856
  Cycle:     63 Defect Energy:   4.875631  Gnorm:     0.000278  CPU:  296.544
  ** Hessian calculated **
  Cycle:     64 Defect Energy:   4.874367  Gnorm:     0.000250  CPU:  303.250
  Cycle:     65 Defect Energy:   4.872766  Gnorm:     0.000242  CPU:  305.720
  Cycle:     66 Defect Energy:   4.870502  Gnorm:     0.000232  CPU:  308.291
  Cycle:     67 Defect Energy:   4.867586  Gnorm:     0.000227  CPU:  310.704
  Cycle:     68 Defect Energy:   4.863636  Gnorm:     0.000233  CPU:  313.098
  Cycle:     69 Defect Energy:   4.858445  Gnorm:     0.000261  CPU:  315.285
  Cycle:     70 Defect Energy:   4.851287  Gnorm:     0.000331  CPU:  317.614
  Cycle:     71 Defect Energy:   4.841349  Gnorm:     0.000424  CPU:  319.844
  Cycle:     72 Defect Energy:   4.827650  Gnorm:     0.000583  CPU:  322.140
  Cycle:     73 Defect Energy:   4.813594  Gnorm:     0.000792  CPU:  328.045
  ** Hessian calculated **
  Cycle:     74 Defect Energy:   4.775887  Gnorm:     0.000782  CPU:  334.875
  Cycle:     75 Defect Energy:   4.739169  Gnorm:     0.000906  CPU:  337.537
  ** Hessian calculated **
  Cycle:     76 Defect Energy:   4.652805  Gnorm:     0.000653  CPU:  343.666
  Cycle:     77 Defect Energy:   4.725519  Gnorm:     0.001066  CPU:  346.027
  Cycle:     78 Defect Energy:   4.728461  Gnorm:     0.001016  CPU:  348.439
  ** Hessian calculated **
  Cycle:     79 Defect Energy:   4.666784  Gnorm:     0.000716  CPU:  354.154
  Cycle:     80 Defect Energy:   4.632721  Gnorm:     0.000510  CPU:  356.332
  Cycle:     81 Defect Energy:   4.612610  Gnorm:     0.000357  CPU:  358.428
  Cycle:     82 Defect Energy:   4.600619  Gnorm:     0.000251  CPU:  364.467
  Cycle:     83 Defect Energy:   4.592923  Gnorm:     0.000175  CPU:  367.257
  Cycle:     84 Defect Energy:   4.587532  Gnorm:     0.000125  CPU:  370.234
  Cycle:     85 Defect Energy:   4.583199  Gnorm:     0.000094  CPU:  372.964
  Cycle:     86 Defect Energy:   4.579055  Gnorm:     0.000094  CPU:  375.451
  Cycle:     87 Defect Energy:   4.574230  Gnorm:     0.000110  CPU:  377.913
  Cycle:     88 Defect Energy:   4.569906  Gnorm:     0.000179  CPU:  380.395
  ** Hessian calculated **
  Cycle:     89 Defect Energy:   4.565063  Gnorm:     0.000147  CPU:  386.187
  Cycle:     90 Defect Energy:   4.562594  Gnorm:     0.000133  CPU:  388.563
  Cycle:     91 Defect Energy:   4.561461  Gnorm:     0.000087  CPU:  390.762
  Cycle:     92 Defect Energy:   4.561024  Gnorm:     0.000066  CPU:  393.088
  Cycle:     93 Defect Energy:   4.560791  Gnorm:     0.000042  CPU:  399.564
  Cycle:     94 Defect Energy:   4.560680  Gnorm:     0.000034  CPU:  402.269
  Cycle:     95 Defect Energy:   4.560629  Gnorm:     0.000019  CPU:  405.012
  Cycle:     96 Defect Energy:   4.560610  Gnorm:     0.000014  CPU:  407.664


  **** Optimisation achieved ****


  Final defect energy  =        4.56060497
  Final defect Gnorm   =        0.00000930

  Components of defect energy : 

--------------------------------------------------------------------------------
  Region 1 - region 1                   =      3.38962172 eV
  Region 1 - region 2a (unrelaxed)      =      1.66849340 eV
  Region 1 - 2a (relaxed - correction)  =     -0.33827007 eV
  Region 1 (Total)                      =      4.71984505 eV
  Region 2a                             =      0.16903023 eV
  Region 2b                             =     -0.32827031 eV
--------------------------------------------------------------------------------
  Total defect energy                   =      4.56060497 eV
--------------------------------------------------------------------------------

  Largest displacement in region 2 =   0.0202 Angstroms

  Final coordinates of region 1 :

--------------------------------------------------------------------------------
   No.  Atomic        x           y           z          Radius      Charge
        Label       (Angs)      (Angs)      (Angs)       (Angs)       (e) 
--------------------------------------------------------------------------------
     1  Na    c     2.253894    0.901557    1.352336    0.000000    1.000000
     2  O     c     2.253894    2.585851    2.599002    0.000000    0.183000
     3  Na    c     4.500997    2.711249    2.501925    0.000000    1.000000
     4  Na    c     0.006790    2.711249    2.501925    0.000000    1.000000
     5  Cl    c     4.520807   -0.092350   -0.041005    0.000000    1.485000
     6  Cl    c    -0.013019   -0.092350   -0.041005    0.000000    1.485000
     7  O     c     2.253894   -2.230450    2.298462    0.000000    0.183000
     8  Na    c     2.253894    1.788233    4.620696    0.000000    1.000000
     9  Na    c     2.253894   -2.342538    0.051270    0.000000    1.000000
    10  Na    c     2.253894    4.616492    1.825524    0.000000    1.000000
    11  Na    c     2.253894    0.075885   -2.134907    0.000000    1.000000
    12  O     c     2.253894    2.287272   -2.280955    0.000000    0.183000
    13  Cl    c     4.600888    0.013682    4.663534    0.000000    1.485000
    14  Cl    c    -0.093100    0.013682    4.663534    0.000000    1.485000
    15  Na    c     4.463310   -2.070567    2.307046    0.000000    1.000000
    16  Na    c     0.044477   -2.070567    2.307046    0.000000    1.000000
    17  Cl    c     4.601954    4.634068    0.031575    0.000000    1.485000
    18  Cl    c    -0.094167    4.634068    0.031575    0.000000    1.485000
    19  Na    c     2.253894   -1.667092    4.466702    0.000000    1.000000
    20  Na    c     4.431521    2.232166   -1.855073    0.000000    1.000000
    21  Na    c     0.076266    2.232166   -1.855073    0.000000    1.000000
    22  Na    c    -2.064367    0.077213    1.894431    0.000000    1.000000
    23  Na    c     6.572154    0.077213    1.894431    0.000000    1.000000
    24  O     c    -2.246916    2.311205    2.305697    0.000000    0.183000
    25  O     c     6.754703    2.311205    2.305697    0.000000    0.183000
    26  O     c     2.253894   -2.211669   -2.240108    0.000000    0.183000
    27  Na    c    -2.324651    2.682431    0.051648    0.000000    1.000000
    28  Na    c     6.832438    2.682431    0.051648    0.000000    1.000000
    29  Na    c     2.253894    4.461659   -1.776724    0.000000    1.000000
    30  Cl    c     4.706483    4.677431    4.608016    0.000000    1.485000
    31  Cl    c    -0.198696    4.677431    4.608016    0.000000    1.485000
    32  Na    c     4.507237   -2.124786   -2.261150    0.000000    1.000000
    33  Na    c     0.000550   -2.124786   -2.261150    0.000000    1.000000
    34  Na    c     2.253894    0.002384    7.239152    0.000000    1.000000
    35  Na    c     2.253894   -4.447151    2.629075    0.000000    1.000000
    36  O     c     2.253894    2.262086    6.828540    0.000000    0.183000
    37  O     c    -2.234381   -2.181902    2.251271    0.000000    0.183000
    38  O     c     6.742168   -2.181902    2.251271    0.000000    0.183000
    39  Na    c    -2.240701    1.911098    4.544842    0.000000    1.000000
    40  Na    c     6.748489    1.911098    4.544842    0.000000    1.000000
    41  Na    c    -2.129331   -2.599642    0.013093    0.000000    1.000000
    42  Na    c     6.637118   -2.599642    0.013093    0.000000    1.000000
    43  Na    c    -2.339026    0.017394   -1.865317    0.000000    1.000000
    44  Na    c     6.846813    0.017394   -1.865317    0.000000    1.000000
    45  Na    c    -2.498799    4.555824    2.642613    0.000000    1.000000
    46  Na    c     7.006586    4.555824    2.642613    0.000000    1.000000
    47  O     c     2.253894    6.841268    2.193453    0.000000    0.183000
    48  O     c    -2.205026    2.272087   -2.198783    0.000000    0.183000
    49  O     c     6.712814    2.272087   -2.198783    0.000000    0.183000
    50  Na    c     4.521430    2.339273    6.823043    0.000000    1.000000
    51  Na    c    -0.013643    2.339273    6.823043    0.000000    1.000000
    52  Cl    c     4.532112   -4.557317   -0.052779    0.000000    1.485000
    53  Cl    c    -0.024325   -4.557317   -0.052779    0.000000    1.485000
    54  Na    c     2.253894    2.456235   -4.484421    0.000000    1.000000
    55  Na    c     2.253894    7.230559   -0.028266    0.000000    1.000000
    56  O     c     2.253894   -2.233890    6.716709    0.000000    0.183000
    57  Cl    c     4.514736   -0.107821   -4.596140    0.000000    1.485000
    58  Cl    c    -0.006949   -0.107821   -4.596140    0.000000    1.485000
    59  Na    c    -2.359343   -1.866432    4.505380    0.000000    1.000000
    60  Na    c     6.867130   -1.866432    4.505380    0.000000    1.000000
    61  Na    c     4.524462    6.675660    2.172888    0.000000    1.000000
    62  Na    c    -0.016675    6.675660    2.172888    0.000000    1.000000
    63  Na    c     2.253894    4.450852    6.227851    0.000000    1.000000
    64  Na    c     2.253894   -4.469785   -2.450689    0.000000    1.000000
    65  O     c    -2.259084   -2.241500   -2.235344    0.000000    0.183000
    66  O     c     6.766871   -2.241500   -2.235344    0.000000    0.183000
    67  Cl    c     4.568777   -4.562448    4.548028    0.000000    1.485000
    68  Cl    c    -0.060990   -4.562448    4.548028    0.000000    1.485000
    69  Na    c     2.253894    6.812194    4.455344    0.000000    1.000000
    70  Na    c     4.512580   -2.299459    6.595556    0.000000    1.000000
    71  Na    c    -0.004793   -2.299459    6.595556    0.000000    1.000000
    72  Na    c     2.253894   -2.068163   -4.485113    0.000000    1.000000
    73  Na    c    -2.111891    4.501755   -2.615649    0.000000    1.000000
    74  Na    c     6.619679    4.501755   -2.615649    0.000000    1.000000
    75  O     c     2.253894    6.749021   -2.231227    0.000000    0.183000
    76  Cl    c     9.028375    0.068707    0.052944    0.000000    1.485000
    77  Cl    c    -4.520587    0.068707    0.052944    0.000000    1.485000
    78  Na    c     9.007238    2.016739    2.313261    0.000000    1.000000
    79  Na    c    -4.499450    2.016739    2.313261    0.000000    1.000000
    80  Na    c     6.591510    0.004323    7.117716    0.000000    1.000000
    81  Na    c    -2.083723    0.004323    7.117716    0.000000    1.000000
    82  Na    c    -2.288587   -4.444552    2.597926    0.000000    1.000000
    83  Na    c     6.796374   -4.444552    2.597926    0.000000    1.000000
    84  O     c    -2.274249    2.246997    6.787324    0.000000    0.183000
    85  O     c     6.782037    2.246997    6.787324    0.000000    0.183000
    86  Cl    c     4.562869    4.573159   -4.610412    0.000000    1.485000
    87  Cl    c    -0.055082    4.573159   -4.610412    0.000000    1.485000
    88  Na    c     4.508649    6.746981   -2.170142    0.000000    1.000000
    89  Na    c    -0.000862    6.746981   -2.170142    0.000000    1.000000
    90  O     c    -2.278595    6.790608    2.269213    0.000000    0.183000
    91  O     c     6.786382    6.790608    2.269213    0.000000    0.183000
    92  Na    c    -2.354625    6.434180    0.013547    0.000000    1.000000
    93  Na    c     6.862412    6.434180    0.013547    0.000000    1.000000
    94  Cl    c     9.065817    0.030421    4.523698    0.000000    1.485000
    95  Cl    c    -4.558030    0.030421    4.523698    0.000000    1.485000
    96  Na    c     6.531495    1.919849   -4.451406    0.000000    1.000000
    97  Na    c    -2.023708    1.919849   -4.451406    0.000000    1.000000
    98  Na    c     9.001007   -2.062119    2.068585    0.000000    1.000000
    99  Na    c    -4.493220   -2.062119    2.068585    0.000000    1.000000
   100  Na    c     2.253894   -4.477071    6.307463    0.000000    1.000000
   101  O     c    -2.265960   -2.235235    6.761709    0.000000    0.183000
   102  O     c     6.773748   -2.235235    6.761709    0.000000    0.183000
   103  O     c     2.253894   -6.716816    2.257312    0.000000    0.183000
   104  Na    c     2.253894    2.699619    9.032919    0.000000    1.000000
   105  Cl    c     9.075699    4.520400    0.005590    0.000000    1.485000
   106  Cl    c    -4.567911    4.520400    0.005590    0.000000    1.485000
   107  Na    c     2.253894   -6.378888    0.016309    0.000000    1.000000
   108  Na    c     8.974736    2.371820   -2.372016    0.000000    1.000000
   109  Na    c    -4.466949    2.371820   -2.372016    0.000000    1.000000
   110  Na    c    -2.395028    4.508655    6.466245    0.000000    1.000000
   111  Na    c     6.902815    4.508655    6.466245    0.000000    1.000000
   112  Na    c    -2.131509   -4.482515   -2.589717    0.000000    1.000000
   113  Na    c     6.639296   -4.482515   -2.589717    0.000000    1.000000
   114  O     c     2.253894    6.678127    6.725625    0.000000    0.183000
   115  Cl    c     4.520109   -0.006727    9.090900    0.000000    1.485000
   116  Cl    c    -0.012321   -0.006727    9.090900    0.000000    1.485000
   117  Na    c    -2.071819    7.055864    4.516874    0.000000    1.000000
   118  Na    c     6.579606    7.055864    4.516874    0.000000    1.000000
   119  Na    c     6.819479   -1.903047   -4.492380    0.000000    1.000000
   120  Na    c    -2.311691   -1.903047   -4.492380    0.000000    1.000000
   121  Na    c     4.507328   -6.637876    2.188239    0.000000    1.000000
[...]
    321 y          4.507787      4.529583     0.021796    Cartesian    0.48
    321 z          4.507787      4.544257     0.036470    Cartesian    0.81
    322 x          2.253894      2.253894     0.000000    Cartesian    0.00
    322 y         -6.761681     -6.742159     0.019522    Cartesian   -0.29
    322 z         -2.253894     -2.222188     0.031706    Cartesian   -1.41
    323 x          4.507787      4.512763     0.004976    Cartesian    0.11
    323 y          9.015574      9.079799     0.064225    Cartesian    0.71
    323 z          0.000000     -0.024619    -0.024619    Cartesian    0.00
    324 x          2.253894      2.253894     0.000000    Cartesian    0.00
    324 y         -2.253894     -2.250800     0.003094    Cartesian   -0.14
    324 z         -6.761681     -6.734713     0.026968    Cartesian   -0.40
    325 x          4.507787      4.555132     0.047345    Cartesian    1.05
    325 y          4.507787      4.523174     0.015386    Cartesian    0.34
    325 z          9.015574      9.089246     0.073672    Cartesian    0.82
    326 x          9.015574      9.056722     0.041148    Cartesian    0.46
    326 y         -4.507787     -4.473202     0.034585    Cartesian   -0.77
    326 z          0.000000      0.013293     0.013293    Cartesian    0.00
    327 x          6.761681      6.759528    -0.002153    Cartesian   -0.03
    327 y         -6.761681     -6.721529     0.040152    Cartesian   -0.59
    327 z          2.253894      2.263731     0.009837    Cartesian    0.44
    328 x          4.507787      4.461528    -0.046259    Cartesian   -1.03
    328 y          9.015574      9.069656     0.054082    Cartesian    0.60
    328 z          4.507787      4.481208    -0.026579    Cartesian   -0.59
    329 x          9.015574      9.066655     0.051081    Cartesian    0.57
    329 y          0.000000      0.032382     0.032382    Cartesian    0.00
    329 z         -4.507787     -4.502046     0.005741    Cartesian   -0.13
    330 x          6.761681      6.781599     0.019918    Cartesian    0.29
    330 y          6.761681      6.774484     0.012803    Cartesian    0.19
    330 z          6.761681      6.762044     0.000364    Cartesian    0.01
    331 x         11.269468     11.260520    -0.008948    Cartesian   -0.08
    331 y          2.253894      2.264197     0.010304    Cartesian    0.46
    331 z          2.253894      2.254721     0.000827    Cartesian    0.04
    332 x          9.015574      9.081563     0.065989    Cartesian    0.73
    332 y         -4.507787     -4.547253    -0.039466    Cartesian    0.88
    332 z          4.507787      4.503880    -0.003907    Cartesian   -0.09
    333 x          2.253894      2.253894     0.000000    Cartesian    0.00
    333 y         -6.761681     -6.722579     0.039102    Cartesian   -0.58
    333 z          6.761681      6.742580    -0.019100    Cartesian   -0.28
    334 x          6.761681      6.752800    -0.008881    Cartesian   -0.13
    334 y          2.253894      2.240841    -0.013052    Cartesian   -0.58
    334 z         -6.761681     -6.718812     0.042869    Cartesian   -0.63
    335 x         11.269468     11.265438    -0.004030    Cartesian   -0.04
    335 y         -2.253894     -2.242592     0.011301    Cartesian   -0.50
    335 z          2.253894      2.249335    -0.004559    Cartesian   -0.20
    336 x          6.761681      6.767528     0.005847    Cartesian    0.09
    336 y         -6.761681     -6.730382     0.031299    Cartesian   -0.46
    336 z         -2.253894     -2.252975     0.000919    Cartesian   -0.04
    337 x          4.507787      4.519893     0.012105    Cartesian    0.27
    337 y         -4.507787     -4.550341    -0.042554    Cartesian    0.94
    337 z          9.015574      9.072464     0.056889    Cartesian    0.63
    338 x          9.015574      9.051712     0.036138    Cartesian    0.40
    338 y          4.507787      4.531220     0.023432    Cartesian    0.52
    338 z         -4.507787     -4.485150     0.022637    Cartesian   -0.50
    339 x         11.269468     11.247993    -0.021475    Cartesian   -0.19
    339 y          2.253894      2.249204    -0.004690    Cartesian   -0.21
    339 z         -2.253894     -2.253150     0.000744    Cartesian   -0.03
    340 x          6.761681      6.771674     0.009993    Cartesian    0.15
    340 y         -2.253894     -2.244822     0.009072    Cartesian   -0.40
    340 z         -6.761681     -6.754077     0.007604    Cartesian   -0.11
    341 x          2.253894      2.253894     0.000000    Cartesian    0.00
    341 y          2.253894      2.255934     0.002040    Cartesian    0.09
    341 z         11.269468     11.257890    -0.011578    Cartesian   -0.10
    342 x          2.253894      2.253894     0.000000    Cartesian    0.00
    342 y          6.761681      6.735633    -0.026048    Cartesian   -0.39
    342 z         -6.761681     -6.747395     0.014286    Cartesian   -0.21
    343 x         11.269468     11.266485    -0.002983    Cartesian   -0.03
    343 y         -2.253894     -2.249407     0.004486    Cartesian   -0.20
    343 z         -2.253894     -2.243993     0.009901    Cartesian   -0.44
    344 x          4.507787      4.513685     0.005898    Cartesian    0.13
    344 y          9.015574      9.080243     0.064669    Cartesian    0.72
    344 z         -4.507787     -4.523091    -0.015304    Cartesian    0.34
    345 x          9.015574      9.037920     0.022346    Cartesian    0.25
    345 y          0.000000      0.010159     0.010159    Cartesian    0.00
    345 z          9.015574      9.026864     0.011290    Cartesian    0.13
    346 x          4.507787      4.524244     0.016457    Cartesian    0.37
    346 y         -9.015574     -9.076240    -0.060665    Cartesian    0.67
    346 z          0.000000     -0.011571    -0.011571    Cartesian    0.00
    347 x          2.253894      2.253894     0.000000    Cartesian    0.00
    347 y         -2.253894     -2.249299     0.004595    Cartesian   -0.20
    347 z         11.269468     11.230068    -0.039400    Cartesian   -0.35
    348 x          6.761681      6.767058     0.005378    Cartesian    0.08
    348 y         -6.761681     -6.753111     0.008569    Cartesian   -0.13
    348 z          6.761681      6.744118    -0.017563    Cartesian   -0.26
    349 x          2.253894      2.253894     0.000000    Cartesian    0.00
    349 y         11.269468     11.293188     0.023720    Cartesian    0.21
    349 z          2.253894      2.243862    -0.010031    Cartesian   -0.45
    350 x          9.015574      9.051256     0.035681    Cartesian    0.40
    350 y         -4.507787     -4.519300    -0.011513    Cartesian    0.26
    350 z         -4.507787     -4.487001     0.020786    Cartesian   -0.46
    351 x         11.269468     11.283614     0.014146    Cartesian    0.13
    351 y          2.253894      2.248741    -0.005152    Cartesian   -0.23
    351 z          6.761681      6.763274     0.001593    Cartesian    0.02
    352 x          4.507787      4.521360     0.013573    Cartesian    0.30
    352 y         -9.015574     -9.030747    -0.015173    Cartesian    0.17
    352 z          4.507787      4.521837     0.014049    Cartesian    0.31
    353 x          9.015574      9.024378     0.008804    Cartesian    0.10
    353 y          9.015574      9.044940     0.029366    Cartesian    0.33
    353 z          0.000000      0.020677     0.020677    Cartesian    0.00
    354 x          4.507787      4.491930    -0.015857    Cartesian   -0.35
    354 y          0.000000      0.027417     0.027417    Cartesian    0.00
    354 z         -9.015574     -9.029073    -0.013499    Cartesian    0.15
    355 x         11.269468     11.265679    -0.003789    Cartesian   -0.03
    355 y          6.761681      6.765398     0.003717    Cartesian    0.05
    355 z          2.253894      2.254789     0.000895    Cartesian    0.04
    356 x          9.015574      9.051415     0.035841    Cartesian    0.40
    356 y          4.507787      4.505296    -0.002491    Cartesian   -0.06
    356 z          9.015574      9.068985     0.053411    Cartesian    0.59
    357 x         11.269468     11.262527    -0.006941    Cartesian   -0.06
    357 y         -2.253894     -2.245049     0.008844    Cartesian   -0.39
    357 z          6.761681      6.758785    -0.002896    Cartesian   -0.04
    358 x         -2.253894     -2.261250    -0.007356    Cartesian    0.33
    358 y          6.761681      6.775779     0.014098    Cartesian    0.21
    358 z         -6.761681     -6.738075     0.023606    Cartesian   -0.35
    359 x          6.761681      6.765566     0.003885    Cartesian    0.06
    359 y          2.253894      2.268314     0.014420    Cartesian    0.64
    359 z         11.269468     11.268468    -0.001000    Cartesian   -0.01
    360 x          2.253894      2.253894     0.000000    Cartesian    0.00
    360 y         11.269468     11.253128    -0.016340    Cartesian   -0.14
    360 z         -2.253894     -2.283500    -0.029606    Cartesian    1.31
    361 x          9.015574      9.061664     0.046089    Cartesian    0.51
    361 y          9.015574      9.037377     0.021802    Cartesian    0.24
    361 z          4.507787      4.527939     0.020152    Cartesian    0.45
    362 x          2.253894      2.253894     0.000000    Cartesian    0.00
    362 y         -6.761681     -6.756431     0.005249    Cartesian   -0.08
    362 z         -6.761681     -6.750893     0.010787    Cartesian   -0.16
    363 x          4.507787      4.533707     0.025919    Cartesian    0.57
    363 y          4.507787      4.499074    -0.008713    Cartesian   -0.19
    363 z         -9.015574     -9.046278    -0.030704    Cartesian    0.34
    364 x          6.761681      6.753348    -0.008333    Cartesian   -0.12
    364 y         -2.253894     -2.270250    -0.016356    Cartesian    0.73
    364 z         11.269468     11.257165    -0.012303    Cartesian   -0.11
    365 x         11.269468     11.270790     0.001321    Cartesian    0.01
    365 y          6.761681      6.748917    -0.012764    Cartesian   -0.19
    365 z         -2.253894     -2.259586    -0.005692    Cartesian    0.25
    366 x         -2.253894     -2.250019     0.003874    Cartesian   -0.17
    366 y         11.269468     11.266588    -0.002880    Cartesian   -0.03
    366 z          2.253894      2.237147    -0.016747    Cartesian   -0.74
    367 x          4.507787      4.519669     0.011881    Cartesian    0.26
    367 y          9.015574      9.054201     0.038626    Cartesian    0.43
    367 z          9.015574      9.032051     0.016476    Cartesian    0.18
    368 x         13.523362     13.538710     0.015348    Cartesian    0.11
    368 y          0.000000      0.003972     0.003972    Cartesian    0.00
    368 z          0.000000     -0.040499    -0.040499    Cartesian    0.00
    369 x          2.253894      2.253894     0.000000    Cartesian    0.00
    369 y          6.761681      6.733011    -0.028670    Cartesian   -0.42
    369 z         11.269468     11.257338    -0.012130    Cartesian   -0.11
    370 x          9.015574      9.023308     0.007733    Cartesian    0.09
    370 y         -4.507787     -4.499755     0.008033    Cartesian   -0.18
    370 z          9.015574      9.048040     0.032466    Cartesian    0.36
    371 x          2.253894      2.253894     0.000000    Cartesian    0.00
    371 y         11.269468     11.259457    -0.010011    Cartesian   -0.09
    371 z          6.761681      6.759209    -0.002472    Cartesian   -0.04
    372 x         13.523362     13.530620     0.007259    Cartesian    0.05
    372 y          0.000000     -0.039322    -0.039322    Cartesian    0.00
    372 z          4.507787      4.508916     0.001129    Cartesian    0.03
    373 x          4.507787      4.538254     0.030466    Cartesian    0.68
    373 y         -9.015574     -9.017268    -0.001693    Cartesian    0.02
    373 z         -4.507787     -4.540322    -0.032535    Cartesian    0.72
    374 x         11.269468     11.264479    -0.004989    Cartesian   -0.04
    374 y         -6.761681     -6.758500     0.003181    Cartesian   -0.05
    374 z          2.253894      2.257287     0.003394    Cartesian    0.15
    375 x         -2.253894     -2.264906    -0.011012    Cartesian    0.49
    375 y         11.269468     11.258772    -0.010696    Cartesian   -0.09
    375 z         -2.253894     -2.231689     0.022205    Cartesian   -0.99
    376 x         13.523362     13.591838     0.068477    Cartesian    0.51
    376 y          4.507787      4.510552     0.002765    Cartesian    0.06
    376 z          0.000000      0.014674     0.014674    Cartesian    0.00
    377 x          4.507787      4.530547     0.022760    Cartesian    0.50
    377 y         -4.507787     -4.519350    -0.011563    Cartesian    0.26
    377 z         -9.015574     -9.083910    -0.068335    Cartesian    0.76
    378 x         11.269468     11.274238     0.004770    Cartesian    0.04
    378 y          6.761681      6.765072     0.003391    Cartesian    0.05
    378 z          6.761681      6.761547    -0.000134    Cartesian   -0.00
    379 x          6.761681      6.765749     0.004069    Cartesian    0.06
    379 y         -6.761681     -6.768413    -0.006733    Cartesian    0.10
    379 z         -6.761681     -6.743662     0.018018    Cartesian   -0.27
    380 x          9.015574      8.992358    -0.023217    Cartesian   -0.26
    380 y         -9.015574     -9.085652    -0.070077    Cartesian    0.78
    380 z          0.000000      0.014336     0.014336    Cartesian    0.00
    381 x          9.015574      9.065410     0.049835    Cartesian    0.55
    381 y          9.015574      9.019287     0.003713    Cartesian    0.04
    381 z         -4.507787     -4.516267    -0.008480    Cartesian    0.19
    382 x         11.269468     11.270826     0.001358    Cartesian    0.01
    382 y          2.253894      2.243696    -0.010197    Cartesian   -0.45
    382 z         -6.761681     -6.751203     0.010478    Cartesian   -0.15
    383 x          2.253894      2.253894     0.000000    Cartesian    0.00
    383 y        -11.269468    -11.250920     0.018548    Cartesian   -0.16
    383 z          2.253894      2.236221    -0.017673    Cartesian   -0.78
    384 x         13.523362     13.589743     0.066381    Cartesian    0.49
    384 y          4.507787      4.511053     0.003266    Cartesian    0.07
    384 z          4.507787      4.506375    -0.001412    Cartesian   -0.03
    385 x          6.761681      6.766332     0.004651    Cartesian    0.07
    385 y          6.761681      6.757882    -0.003799    Cartesian   -0.06
    385 z         11.269468     11.272084     0.002616    Cartesian    0.02
    386 x         11.269468     11.275718     0.006250    Cartesian    0.06
    386 y         -6.761681     -6.754659     0.007022    Cartesian   -0.10
    386 z         -2.253894     -2.258756    -0.004863    Cartesian    0.22
    387 x          4.507787      4.456656    -0.051131    Cartesian   -1.13
    387 y          0.000000     -0.007080    -0.007080    Cartesian    0.00
    387 z         13.523362     13.593084     0.069723    Cartesian    0.52
    388 x          9.015574      9.068387     0.052813    Cartesian    0.59
    388 y         -9.015574     -8.990908     0.024667    Cartesian   -0.27
    388 z          4.507787      4.518624     0.010837    Cartesian    0.24
    389 x          9.015574      9.076379     0.060804    Cartesian    0.67
    389 y          0.000000     -0.021717    -0.021717    Cartesian    0.00
    389 z         -9.015574     -9.007776     0.007798    Cartesian   -0.09
    390 x         11.269468     11.268725    -0.000743    Cartesian   -0.01
    390 y         -2.253894     -2.253166     0.000728    Cartesian   -0.03
    390 z         -6.761681     -6.767243    -0.005562    Cartesian    0.08
    391 x          2.253894      2.253894     0.000000    Cartesian    0.00
    391 y         -6.761681     -6.749958     0.011723    Cartesian   -0.17
    391 z         11.269468     11.264715    -0.004753    Cartesian   -0.04
    392 x          6.761681      6.762055     0.000374    Cartesian    0.01
    392 y         11.269468     11.256919    -0.012549    Cartesian   -0.11
    392 z          6.761681      6.772019     0.010338    Cartesian    0.15
    393 x         13.523362     13.527815     0.004454    Cartesian    0.03
    393 y         -4.507787     -4.519199    -0.011412    Cartesian    0.25
    393 z          0.000000     -0.013727    -0.013727    Cartesian    0.00
    394 x          2.253894      2.253894     0.000000    Cartesian    0.00
    394 y          2.253894      2.243198    -0.010696    Cartesian   -0.47
    394 z        -11.269468    -11.273930    -0.004462    Cartesian    0.04
    395 x          2.253894      2.253894     0.000000    Cartesian    0.00
    395 y        -11.269468    -11.264146     0.005322    Cartesian   -0.05
    395 z         -2.253894     -2.250169     0.003724    Cartesian   -0.17
    396 x          4.507787      4.508423     0.000636    Cartesian    0.01
    396 y         -9.015574     -9.088335    -0.072761    Cartesian    0.81
    396 z          9.015574      9.017040     0.001466    Cartesian    0.02
    397 x         13.523362     13.575030     0.051668    Cartesian    0.38
    397 y          0.000000      0.001387     0.001387    Cartesian    0.00
    397 z         -4.507787     -4.515430    -0.007643    Cartesian    0.17
    398 x          4.507787      4.562878     0.055091    Cartesian    1.22
    398 y         13.523362     13.580541     0.057179    Cartesian    0.42
    398 z          0.000000      0.008220     0.008220    Cartesian    0.00
    399 x         13.523362     13.609581     0.086219    Cartesian    0.64
    399 y         -4.507787     -4.508299    -0.000511    Cartesian    0.01
    399 z          4.507787      4.505435    -0.002353    Cartesian   -0.05
    400 x          4.507787      4.539857     0.032070    Cartesian    0.71
    400 y          4.507787      4.538207     0.030420    Cartesian    0.67
    400 z         13.523362     13.554498     0.031136    Cartesian    0.23
    401 x          9.015574      8.987192    -0.028383    Cartesian   -0.31
    401 y          4.507787      4.523706     0.015919    Cartesian    0.35
    401 z         -9.015574     -9.088467    -0.072893    Cartesian    0.81
--------------------------------------------------------------------------------


  Time to end of optimisation  =      410.2553 seconds


  Peak dynamic memory used =     148.80 MB 


  Timing analysis for GULP :

--------------------------------------------------------------------------------
  Task / Subroutine                                          Time (Seconds)
--------------------------------------------------------------------------------
  Calculation of reciprocal space energy and derivatives          0.0006
  Calculation of reciprocal space energy using symmetry           0.0009
  Calculation of real space energy and derivatives                0.0035
  Calculation of real space energy using symmetry                 0.0088
  Calculation for region 1 energy and derivatives (2-b)         139.2883
  Calculation for region 2a energy                              257.3459
  Calculation for region 2b energy                                0.0352
  Calculation and manipulation of Hessian matrix                  0.6634
  Calculation of matrix inversion                                12.0976
  Symmetry generation of equivalent positions                     0.0041
--------------------------------------------------------------------------------
  Total CPU time                                                410.2554
--------------------------------------------------------------------------------


  Dump file written as Na3OCl.grs


  Job Finished at 14:29.38  3rd December   2020                               

