********************************************************************************
*                       GENERAL UTILITY LATTICE PROGRAM                        *
*                                 Julian Gale                                  *
*                       Curtin Institute for Computation                       *
*                    School of Molecular and Life Sciences                     *
*                    Curtin University, Western Australia                      *
********************************************************************************
* Version = 5.2.0 * Last modified =  10th September 2020                       *
********************************************************************************
*  optimise     - perform optimisation run                                     *
*  conp         - constant pressure calculation                                *
*  property     - calculate properties for final geometry                      *
*  defect       - perform defect calculation after bulk run                    *
*  compare      - compare initial and final structures                         *
********************************************************************************

  Job Started  at 14:24.23  3rd December   2020                               

  Number of CPUs =     1


  Total number of configurations input =      1

********************************************************************************
*  Input for Configuration =   1                                               *
********************************************************************************

  Formula = ClONa3                                                      

  Number of irreducible atoms/shells =       5


  Total number atoms/shells =       7

  Dimensionality = 3               :  Bulk   


  Symmetry :

  Crystal family                   :  Cubic       
  Crystal class  (Groth - 1921)    :  Cubic Hexakisoctahedral              

  Space group (centrosymmetric)    :  P M 3 M         

  Patterson group                  :  P m -3 m 

  Cartesian lattice vectors (Angstroms) :

        4.504000    0.000000    0.000000
        0.000000    4.504000    0.000000
        0.000000    0.000000    4.504000

  Cell parameters (Angstroms/Degrees):

  a =       4.5040    alpha =  90.0000
  b =       4.5040    beta  =  90.0000
  c =       4.5040    gamma =  90.0000

  Initial cell volume =          91.368216 Angs**3

  Temperature of configuration =   0.00     K 

  Pressure of configuration =         0.000 GPa 

  Fractional coordinates of asymmetric unit :

--------------------------------------------------------------------------------
   No.  Atomic       x           y          z         Charge      Occupancy
        Label      (Frac)      (Frac)     (Frac)        (e)         (Frac)  
--------------------------------------------------------------------------------
      1 Cl    c    0.000000    0.000000    0.000000     1.48500    1.000000    
      2 O     c    0.500000    0.500000    0.500000     0.18300    1.000000    
      3 Na    c    0.500000    0.500000    0.000000     1.00000    1.000000    
      4 Cl    s    0.000000    0.000000    0.000000    -2.48500    1.000000    
      5 O     s    0.500000    0.500000    0.500000    -2.18300    1.000000    
--------------------------------------------------------------------------------


  Constraints : 

--------------------------------------------------------------------------------
  Constraint no.      Unconstrained     Constrained    Coefficient    Offset
                         Variable         Variable
--------------------------------------------------------------------------------
           1              Strain 1        Strain 2       1.00000      0.0000
           2              Strain 1        Strain 3       1.00000      0.0000
--------------------------------------------------------------------------------


********************************************************************************
*  General input information                                                   *
********************************************************************************

  Species output for all configurations : 

--------------------------------------------------------------------------------
  Species    Type    Atomic    Atomic    Charge       Radii (Angs)     Library
                     Number     Mass       (e)     Cova   Ionic  VDW   Symbol
--------------------------------------------------------------------------------
    Na       Core       11      22.99   1.000000   0.970  0.000  2.300          
    O        Core        8      16.00   0.183000   0.730  0.000  1.360          
    O        Shell       8       0.00  -2.183000   0.730  0.000  0.000          
    Cl       Core       17      35.45   1.485000   0.990  0.000  1.650          
    Cl       Shell      17       0.00  -2.485000   0.990  0.000  0.000          
    Mg       Core       12      24.31   0.415000   1.100  0.000  0.000          
    Mg       Shell      12       0.00   1.585000   1.100  0.000  0.000          
    Ca       Core       20      40.08  -1.135000   0.990  0.000  0.000          
    Ca       Shell      20       0.00   3.135000   0.990  0.000  0.000          
    Sr       Core       38      87.62  -1.251000   1.120  0.000  0.000          
    Sr       Shell      38       0.00   3.251000   1.120  0.000  0.000          
    Ba       Core       56     137.33  -7.203000   1.340  0.000  0.000          
    Ba       Shell      56       0.00   9.203000   1.340  0.000  0.000          
--------------------------------------------------------------------------------


  Lattice summation method               =    Ewald          (3-D)
                                         =    Parry          (2-D)
                                         =    Saunders et al (1-D)
  Accuracy factor for lattice sums       =   12.000


  Analytic derivatives to be used

  Time limit = Infinity

  Maximum range for interatomic potentials =    100000.000000 Angstroms

  General interatomic potentials :

--------------------------------------------------------------------------------
Atom  Types   Potential      Parameter       Value         Units   Cutoffs(Ang)
  1     2                                                            Min /  Max 
--------------------------------------------------------------------------------
O    c O    s Spring (c-s)  Spring k 2       593.71600    eV*Ang^-2 0.000  0.800
                            Spring k 4       0.0000000    eV*Ang^-4 
--------------------------------------------------------------------------------
Cl   c Cl   s Spring (c-s)  Spring k 2       29.380000    eV*Ang^-2 0.000  0.800
                            Spring k 4       0.0000000    eV*Ang^-4 
--------------------------------------------------------------------------------
Mg   c Mg   s Spring (c-s)  Spring k 2       361.60000    eV*Ang^-2 0.000  0.800
                            Spring k 4       0.0000000    eV*Ang^-4 
--------------------------------------------------------------------------------
Ca   c Ca   s Spring (c-s)  Spring k 2       110.20000    eV*Ang^-2 0.000  0.800
                            Spring k 4       0.0000000    eV*Ang^-4 
--------------------------------------------------------------------------------
Sr   c Sr   s Spring (c-s)  Spring k 2       71.700000    eV*Ang^-2 0.000  0.800
                            Spring k 4       0.0000000    eV*Ang^-4 
--------------------------------------------------------------------------------
Ba   c Ba   s Spring (c-s)  Spring k 2       495.20000    eV*Ang^-2 0.000  0.800
                            Spring k 4       0.0000000    eV*Ang^-4 
--------------------------------------------------------------------------------
Na   c Na   c Buckingham    Buckingham A     1788.1900    eV        0.000 12.000
                            Buckingham rho  0.15900000    Ang       
                            Buckingham C     0.0000000    eV*Ang^6  
--------------------------------------------------------------------------------
Na   c O    s Buckingham    Buckingham A     1226.8400    eV        0.000 12.000
                            Buckingham rho  0.30700000    Ang       
                            Buckingham C     0.0000000    eV*Ang^6  
--------------------------------------------------------------------------------
Na   c Cl   s Buckingham    Buckingham A     2314.7000    eV        0.000 12.000
                            Buckingham rho  0.29000000    Ang       
                            Buckingham C     0.0000000    eV*Ang^6  
--------------------------------------------------------------------------------
O    s O    s Buckingham    Buckingham A     22764.300    eV        0.000 12.000
                            Buckingham rho  0.14900000    Ang       
                            Buckingham C     13.190000    eV*Ang^6  
--------------------------------------------------------------------------------
O    s Cl   s Buckingham    Buckingham A     8286.9100    eV        0.000 12.000
                            Buckingham rho  0.25900000    Ang       
                            Buckingham C     62.200000    eV*Ang^6  
--------------------------------------------------------------------------------
Cl   s Cl   s Buckingham    Buckingham A     1227.2000    eV        0.000 12.000
                            Buckingham rho  0.32100000    Ang       
                            Buckingham C     14.530000    eV*Ang^6  
--------------------------------------------------------------------------------
O    s Mg   s Buckingham    Buckingham A     1428.5000    eV        0.000 12.000
                            Buckingham rho  0.29450000    Ang       
                            Buckingham C     0.0000000    eV*Ang^6  
--------------------------------------------------------------------------------
Mg   s Cl   s Buckingham    Buckingham A     4914.5400    eV        0.000 12.000
                            Buckingham rho  0.25700000    Ang       
                            Buckingham C     0.0000000    eV*Ang^6  
--------------------------------------------------------------------------------
O    s Ca   s Buckingham    Buckingham A     1090.4000    eV        0.000 12.000
                            Buckingham rho  0.34370000    Ang       
                            Buckingham C     0.0000000    eV*Ang^6  
--------------------------------------------------------------------------------
Cl   s Ca   s Buckingham    Buckingham A     2302.0000    eV        0.000 12.000
                            Buckingham rho  0.34020000    Ang       
                            Buckingham C     0.0000000    eV*Ang^6  
--------------------------------------------------------------------------------
O    s Sr   s Buckingham    Buckingham A     959.10000    eV        0.000 12.000
                            Buckingham rho  0.37210000    Ang       
                            Buckingham C     0.0000000    eV*Ang^6  
--------------------------------------------------------------------------------
Cl   s Sr   s Buckingham    Buckingham A     2191.0900    eV        0.000 12.000
                            Buckingham rho  0.34570000    Ang       
                            Buckingham C     0.0000000    eV*Ang^6  
--------------------------------------------------------------------------------
O    s Ba   s Buckingham    Buckingham A     905.70000    eV        0.000 12.000
                            Buckingham rho  0.39760000    Ang       
                            Buckingham C     0.0000000    eV*Ang^6  
--------------------------------------------------------------------------------
Cl   s Ba   s Buckingham    Buckingham A     2704.5500    eV        0.000 12.000
                            Buckingham rho  0.35280000    Ang       
                            Buckingham C     0.0000000    eV*Ang^6  
--------------------------------------------------------------------------------

********************************************************************************
*  Output for configuration   1                                                *
********************************************************************************


  Components of energy : 

--------------------------------------------------------------------------------
  Interatomic potentials     =           5.13022605 eV    
  Monopole - monopole (real) =         -10.03624526 eV    
  Monopole - monopole (recip)=         -29.53581274 eV    
  Monopole - monopole (total)=         -39.57205800 eV    
--------------------------------------------------------------------------------
  Total lattice energy       =         -34.44183194 eV    
--------------------------------------------------------------------------------
  Total lattice energy       =           -3323.1103 kJ/(mole unit cells)
--------------------------------------------------------------------------------


  Number of variables =        1

  Maximum number of calculations  =          1000
  Maximum Hessian update interval =            10
  Maximum step size               =   1.000000000
  Maximum parameter tolerance     =   0.000010000
  Maximum function  tolerance     =   0.000010000
  Maximum gradient  tolerance     =   0.001000000
  Maximum gradient  component     =   0.010000000

  Symmetry constrained optimisation

  Symmetry used for second derivatives

  Cell parameters to be optimised using strains

  Newton-Raphson optimiser to be used

  BFGS hessian update to be used

  Lower half triangular hessian to be used

  Start of bulk optimisation :

  Cycle:      0 Energy:       -34.441832  Gnorm:      0.196570  CPU:    0.015
  ** Hessian calculated **
  Cycle:      1 Energy:       -34.441914  Gnorm:      0.000103  CPU:    0.018


  **** Optimisation achieved ****


  Final energy =     -34.44191447 eV
  Final Gnorm  =       0.00000000

  Components of energy : 

--------------------------------------------------------------------------------
  Interatomic potentials     =           5.09689708 eV    
  Monopole - monopole (real) =         -10.02781331 eV    
  Monopole - monopole (recip)=         -29.51099824 eV    
  Monopole - monopole (total)=         -39.53881155 eV    
--------------------------------------------------------------------------------
  Total lattice energy       =         -34.44191447 eV    
--------------------------------------------------------------------------------
  Total lattice energy       =           -3323.1183 kJ/(mole unit cells)
--------------------------------------------------------------------------------

  Final asymmetric unit coordinates :

--------------------------------------------------------------------------------
   No.  Atomic        x           y           z         Radius
        Label       (Frac)      (Frac)      (Frac)       (Angs) 
--------------------------------------------------------------------------------
     1  Cl    c     0.000000    0.000000    0.000000    0.000000
     2  O     c     0.500000    0.500000    0.500000    0.000000
     3  Na    c     0.500000    0.500000    0.000000    0.000000
     4  Cl    s     0.000000    0.000000    0.000000    0.000000
     5  O     s     0.500000    0.500000    0.500000    0.000000
--------------------------------------------------------------------------------

  Final Cartesian lattice vectors (Angstroms) :

        4.507787    0.000000    0.000000
        0.000000    4.507787    0.000000
        0.000000    0.000000    4.507787


  Final cell parameters and derivatives :

--------------------------------------------------------------------------------
       a            4.507787 Angstrom     dE/de1(xx)     0.000000 eV/strain
       b            4.507787 Angstrom     dE/de2(yy)     0.000000 eV/strain
       c            4.507787 Angstrom     dE/de3(zz)     0.000000 eV/strain
       alpha       90.000000 Degrees      dE/de4(yz)     0.000000 eV/strain
       beta        90.000000 Degrees      dE/de5(xz)     0.000000 eV/strain
       gamma       90.000000 Degrees      dE/de6(xy)     0.000000 eV/strain
--------------------------------------------------------------------------------

  Primitive cell volume =            91.598892 Angs**3

  Density of cell =      2.183054 g/cm**3

  Non-primitive cell volume =            91.598892 Angs**3


  Final internal derivatives :

--------------------------------------------------------------------------------
   No.  Atomic          a             b             c           Radius
        Label          (eV)          (eV)          (eV)        (eV/Angs)
--------------------------------------------------------------------------------
      1 Cl    c       0.000000      0.000000      0.000000      0.000000
      2 O     c       0.000000      0.000000      0.000000      0.000000
      3 Na    c       0.000000      0.000000      0.000000      0.000000
      4 Cl    s       0.000000      0.000000      0.000000      0.000000
      5 O     s       0.000000      0.000000      0.000000      0.000000
--------------------------------------------------------------------------------
  Maximum abs         0.000000      0.000000      0.000000      0.000000
--------------------------------------------------------------------------------

  Comparison of initial and final structures : 

--------------------------------------------------------------------------------
  Parameter   Initial value   Final value   Difference    Units      Percent
--------------------------------------------------------------------------------
    Volume        91.368216     91.598892     0.230676    Angs**3      0.25
    a              4.504000      4.507787     0.003787    Angstroms    0.08
    b              4.504000      4.507787     0.003787    Angstroms    0.08
    c              4.504000      4.507787     0.003787    Angstroms    0.08
    alpha         90.000000     90.000000     0.000000    Degrees      0.00
    beta          90.000000     90.000000     0.000000    Degrees      0.00
    gamma         90.000000     90.000000     0.000000    Degrees      0.00
      1 x          0.000000      0.000000     0.000000    Fractional   0.00
      1 y          0.000000      0.000000     0.000000    Fractional   0.00
      1 z          0.000000      0.000000     0.000000    Fractional   0.00
      2 x          0.500000      0.500000     0.000000    Fractional   0.00
      2 y          0.500000      0.500000     0.000000    Fractional   0.00
      2 z          0.500000      0.500000     0.000000    Fractional   0.00
      3 x          0.500000      0.500000     0.000000    Fractional   0.00
      3 y          0.500000      0.500000     0.000000    Fractional   0.00
      3 z          0.000000      0.000000     0.000000    Fractional   0.00
      4 x          0.000000      0.000000     0.000000    Fractional   0.00
      4 y          0.000000      0.000000     0.000000    Fractional   0.00
      4 z          0.000000      0.000000     0.000000    Fractional   0.00
      5 x          0.500000      0.500000     0.000000    Fractional   0.00
      5 y          0.500000      0.500000     0.000000    Fractional   0.00
      5 z          0.500000      0.500000     0.000000    Fractional   0.00
--------------------------------------------------------------------------------


  Born effective charge tensors : 

-------------------------------------------------------------------------------
  Atom             x           y             z
-------------------------------------------------------------------------------
    1 Cl    x      -1.0181     -0.0000      0.0000
            y      -0.0000     -1.0181      0.0000
            z       0.0000      0.0000     -1.0181
-------------------------------------------------------------------------------
    2 O     x      -2.2647      0.0000     -0.0000
            y       0.0000     -2.2647     -0.0000
            z      -0.0000     -0.0000     -2.2647
-------------------------------------------------------------------------------
    3 Na    x       1.2258     -0.0000      0.0000
            y      -0.0000      1.2258     -0.0000
            z       0.0000     -0.0000      0.8313
-------------------------------------------------------------------------------




  Elastic Constant Matrix: (Units=GPa)

-------------------------------------------------------------------------------
  Indices      1         2         3         4         5         6    
-------------------------------------------------------------------------------
       1     95.8177   20.0737   20.0737   -0.0000   -0.0000    0.0000
       2     20.0737   95.8177   20.0737   -0.0000   -0.0000    0.0000
       3     20.0737   20.0737   95.8177   -0.0000   -0.0000    0.0000
       4     -0.0000   -0.0000   -0.0000   20.0737   -0.0000    0.0000
       5     -0.0000   -0.0000   -0.0000   -0.0000   20.0737    0.0000
       6      0.0000    0.0000    0.0000    0.0000    0.0000   20.0737
-------------------------------------------------------------------------------


  Elastic Compliance Matrix: (Units=1/GPa)

-------------------------------------------------------------------------------
  Indices      1         2         3         4         5         6    
-------------------------------------------------------------------------------
       1    0.011253 -0.001949 -0.001949  0.000000  0.000000 -0.000000
       2   -0.001949  0.011253 -0.001949  0.000000  0.000000  0.000000
       3   -0.001949 -0.001949  0.011253  0.000000  0.000000 -0.000000
       4    0.000000  0.000000  0.000000  0.049816  0.000000 -0.000000
       5    0.000000  0.000000  0.000000  0.000000  0.049816 -0.000000
       6   -0.000000  0.000000 -0.000000 -0.000000 -0.000000  0.049816
-------------------------------------------------------------------------------

  Mechanical properties :

-------------------------------------------------------------------------------
  Convention :                    Reuss         Voigt         Hill
-------------------------------------------------------------------------------
  Bulk  Modulus (GPa)     =      45.32174      45.32174      45.32174
  Shear Modulus (GPa)     =      24.72085      27.19304      25.95695
-------------------------------------------------------------------------------
  Velocity S-wave (km/s)  =       3.36511       3.52937       3.44822
  Velocity P-wave (km/s)  =       5.98827       6.11304       6.05098
-------------------------------------------------------------------------------
  Compressibility (1/GPa) =    0.02206447
-------------------------------------------------------------------------------
  Stress axis :                     x             y             z
-------------------------------------------------------------------------------
  Youngs Moduli (GPa)     =      88.86373      88.86373      88.86373
-------------------------------------------------------------------------------
  Poissons Ratio (x)      =                     0.17321       0.17321
  Poissons Ratio (y)      =       0.17321                     0.17321
  Poissons Ratio (z)      =       0.17321       0.17321
-------------------------------------------------------------------------------


  Piezoelectric Strain Matrix: (Units=C/m**2)

-------------------------------------------------------------------------------
  Indices      1         2         3         4         5         6    
-------------------------------------------------------------------------------
       x    -0.00000  -0.00000  -0.00000   0.00000  -0.00000  -0.00000
       y    -0.00000  -0.00000   0.00000  -0.00000   0.00000   0.00000
       z    -0.00000  -0.00000  -0.00000  -0.00000   0.00000   0.00000
-------------------------------------------------------------------------------


  Piezoelectric Stress Matrix: (Units=10**-11 C/N)

-------------------------------------------------------------------------------
  Indices      1         2         3         4         5         6    
-------------------------------------------------------------------------------
       x    -0.00000   0.00000   0.00000   0.00000  -0.00000  -0.00000
       y    -0.00000  -0.00000   0.00000  -0.00000   0.00000   0.00000
       z     0.00000   0.00000  -0.00000  -0.00000   0.00000   0.00000
-------------------------------------------------------------------------------


  Static dielectric constant tensor : 

-------------------------------------------------------------------------------
              x         y         z
-------------------------------------------------------------------------------
       x    22.84729   0.00000   0.00000
       y     0.00000  22.84729  -0.00000
       z     0.00000  -0.00000  22.84729
--------------------------------------------------------------------------------

  High frequency dielectric constant tensor : 

-------------------------------------------------------------------------------
              x         y         z
-------------------------------------------------------------------------------
       x     1.47557   0.00000  -0.00000
       y     0.00000   1.47557  -0.00000
       z    -0.00000  -0.00000   1.47557
-------------------------------------------------------------------------------

  Static refractive indices : 

-------------------------------------------------------------------------------
    1 =    4.77988      2 =    4.77988      3 =    4.77988
-------------------------------------------------------------------------------

  High frequency refractive indices : 

-------------------------------------------------------------------------------
    1 =    1.21473      2 =    1.21473      3 =    1.21473
-------------------------------------------------------------------------------


  Time to end of optimisation =       0.0274 seconds

********************************************************************************
*  Defect calculation for configuration   1 :                                  *
********************************************************************************

  Total number of defects =      3

  Total charge on defect  =  -1.00

  Defect centre is at   0.5000   0.2200   0.2800  Frac

  Region 1 radius =  13.0000      Number of ions =    699

  Number of symmetry inequivalent region 1 ions  =    403

  Region 2 radius =  21.0000      Number of ions =   2252

  Number of symmetry inequivalent region 2a ions =   1209

  Region 2a mode = 4 : screened electrostatics due to region 1 
                       neglect correction to region 1 forces from 2a
                       region 2a displacements based on defects only

  Region 2a ions will only interact with defects in region 1

  Vacancies:

--------------------------------------------------------------------------------
    Specification type     Symbol/Number         x          y          z
--------------------------------------------------------------------------------
    Fractional                               0.500000   0.500000   0.000000
    Fractional                               0.500000   0.000000   0.500000
--------------------------------------------------------------------------------

  Interstitials:

--------------------------------------------------------------------------------
    Specification type     Symbol/Number         x          y          z
--------------------------------------------------------------------------------
    Atom/Fractional         Na               0.500000   0.220000   0.280000
--------------------------------------------------------------------------------


  Symmetry reduced region 1 (Relative to defect centre) :

--------------------------------------------------------------------------------
   No.   Atomic       x            y             z       Radius  Multiplicity   
         Label      (Angs)       (Angs)        (Angs)    (Angs)     
--------------------------------------------------------------------------------
     1  Na    c      0.0000       0.0000       0.0000    0.0000     1    Defect
     2  O     c      0.0000       1.2622 *     0.9917 *  0.0000     1          
     3  Na    c      2.2539 *     1.2622 *     0.9917 *  0.0000     2          
     4  Cl    c      2.2539 *    -0.9917 *    -1.2622 *  0.0000     2          
     5  O     c      0.0000      -3.2456 *     0.9917 *  0.0000     1          
     6  Na    c      0.0000       1.2622 *     3.2456 *  0.0000     1          
     7  Na    c      0.0000      -3.2456 *    -1.2622 *  0.0000     1          
     8  Na    c      0.0000       3.5161 *     0.9917 *  0.0000     1          
     9  Na    c      0.0000      -0.9917 *    -3.5161 *  0.0000     1          
    10  O     c      0.0000       1.2622 *    -3.5161 *  0.0000     1          
    11  Na    c      2.2539 *    -3.2456 *     0.9917 *  0.0000     2          
    12  Cl    c      2.2539 *    -0.9917 *     3.2456 *  0.0000     2          
    13  Cl    c      2.2539 *     3.5161 *    -1.2622 *  0.0000     2          
    14  Na    c      2.2539 *     1.2622 *    -3.5161 *  0.0000     2          
    15  Na    c      0.0000      -3.2456 *     3.2456 *  0.0000     1          
    16  Na    c     -4.5078 *    -0.9917 *     0.9917 *  0.0000     2          
    17  O     c      0.0000      -3.2456 *    -3.5161 *  0.0000     1          
    18  O     c     -4.5078 *     1.2622 *     0.9917 *  0.0000     2          
    19  Na    c     -4.5078 *     1.2622 *    -1.2622 *  0.0000     2          
    20  Na    c      0.0000       3.5161 *    -3.5161 *  0.0000     1          
    21  Cl    c      2.2539 *     3.5161 *     3.2456 *  0.0000     2          
    22  Na    c      2.2539 *    -3.2456 *    -3.5161 *  0.0000     2          
    23  Na    c      0.0000      -0.9917 *     5.4995 *  0.0000     1          
    24  Na    c      0.0000      -5.4995 *     0.9917 *  0.0000     1          
    25  O     c      0.0000       1.2622 *     5.4995 *  0.0000     1          
    26  O     c     -4.5078 *    -3.2456 *     0.9917 *  0.0000     2          
    27  Na    c     -4.5078 *     1.2622 *     3.2456 *  0.0000     2          
    28  Na    c     -4.5078 *    -3.2456 *    -1.2622 *  0.0000     2          
    29  Na    c     -4.5078 *    -0.9917 *    -3.5161 *  0.0000     2          
    30  Na    c     -4.5078 *     3.5161 *     0.9917 *  0.0000     2          
    31  O     c      0.0000       5.7700 *     0.9917 *  0.0000     1          
    32  O     c     -4.5078 *     1.2622 *    -3.5161 *  0.0000     2          
    33  Na    c      0.0000       1.2622 *    -5.7700 *  0.0000     1          
    34  Na    c      0.0000       5.7700 *    -1.2622 *  0.0000     1          
    35  Na    c      2.2539 *     1.2622 *     5.4995 *  0.0000     2          
    36  Cl    c      2.2539 *    -5.4995 *    -1.2622 *  0.0000     2          
    37  Cl    c      2.2539 *    -0.9917 *    -5.7700 *  0.0000     2          
    38  Na    c      2.2539 *     5.7700 *     0.9917 *  0.0000     2          
    39  O     c      0.0000      -3.2456 *     5.4995 *  0.0000     1          
    40  Na    c      4.5078 *    -3.2456 *     3.2456 *  0.0000     2          
    41  Na    c      0.0000       3.5161 *     5.4995 *  0.0000     1          
    42  Na    c      0.0000      -5.4995 *    -3.5161 *  0.0000     1          
    43  O     c     -4.5078 *    -3.2456 *    -3.5161 *  0.0000     2          
    44  Na    c      0.0000       5.7700 *     3.2456 *  0.0000     1          
    45  Na    c      0.0000      -3.2456 *    -5.7700 *  0.0000     1          
    46  Na    c      4.5078 *     3.5161 *    -3.5161 *  0.0000     2          
    47  O     c      0.0000       5.7700 *    -3.5161 *  0.0000     1          
    48  Na    c      2.2539 *    -3.2456 *     5.4995 *  0.0000     2          
    49  Cl    c      2.2539 *    -5.4995 *     3.2456 *  0.0000     2          
    50  Cl    c      6.7617 *    -0.9917 *    -1.2622 *  0.0000     2          
    51  Na    c      6.7617 *     1.2622 *     0.9917 *  0.0000     2          
    52  Cl    c      2.2539 *     3.5161 *    -5.7700 *  0.0000     2          
    53  Na    c      2.2539 *     5.7700 *    -3.5161 *  0.0000     2          
    54  Na    c     -4.5078 *    -0.9917 *     5.4995 *  0.0000     2          
    55  Na    c      4.5078 *    -5.4995 *     0.9917 *  0.0000     2          
    56  O     c      4.5078 *     1.2622 *     5.4995 *  0.0000     2          
    57  O     c     -4.5078 *     5.7700 *     0.9917 *  0.0000     2          
    58  Na    c     -4.5078 *     5.7700 *    -1.2622 *  0.0000     2          
    59  Na    c      4.5078 *     1.2622 *    -5.7700 *  0.0000     2          
    60  Na    c      6.7617 *    -3.2456 *     0.9917 *  0.0000     2          
    61  Cl    c      6.7617 *    -0.9917 *     3.2456 *  0.0000     2          
    62  Cl    c      6.7617 *     3.5161 *    -1.2622 *  0.0000     2          
    63  Na    c      6.7617 *     1.2622 *    -3.5161 *  0.0000     2          
    64  Na    c      0.0000      -5.4995 *     5.4995 *  0.0000     1          
    65  O     c     -4.5078 *    -3.2456 *     5.4995 *  0.0000     2          
    66  O     c      0.0000      -7.7534 *     0.9917 *  0.0000     1          
    67  Na    c      0.0000       1.2622 *     7.7534 *  0.0000     1          
    68  Na    c      0.0000      -7.7534 *    -1.2622 *  0.0000     1          
    69  Na    c     -4.5078 *     3.5161 *     5.4995 *  0.0000     2          
    70  Na    c      4.5078 *    -5.4995 *    -3.5161 *  0.0000     2          
    71  O     c      0.0000       5.7700 *     5.4995 *  0.0000     1          
    72  Na    c     -4.5078 *     5.7700 *     3.2456 *  0.0000     2          
    73  Na    c      4.5078 *    -3.2456 *    -5.7700 *  0.0000     2          
    74  Na    c      0.0000      -0.9917 *    -8.0239 *  0.0000     1          
    75  Na    c      0.0000       8.0239 *     0.9917 *  0.0000     1          
    76  O     c      0.0000       1.2622 *    -8.0239 *  0.0000     1          
    77  O     c     -4.5078 *     5.7700 *    -3.5161 *  0.0000     2          
    78  Cl    c      2.2539 *    -0.9917 *     7.7534 *  0.0000     2          
    79  Na    c      2.2539 *    -7.7534 *     0.9917 *  0.0000     2          
    80  Na    c      0.0000       5.7700 *    -5.7700 *  0.0000     1          
    81  Na    c      2.2539 *     5.7700 *     5.4995 *  0.0000     2          
    82  Cl    c      2.2539 *    -5.4995 *    -5.7700 *  0.0000     2          
    83  Cl    c      6.7617 *     3.5161 *     3.2456 *  0.0000     2          
    84  Na    c      6.7617 *    -3.2456 *    -3.5161 *  0.0000     2          
    85  Na    c      0.0000      -3.2456 *     7.7534 *  0.0000     1          
    86  Na    c      0.0000      -7.7534 *     3.2456 *  0.0000     1          
    87  Cl    c      2.2539 *     8.0239 *    -1.2622 *  0.0000     2          
    88  Na    c      2.2539 *     1.2622 *    -8.0239 *  0.0000     2          
    89  O     c      0.0000      -7.7534 *    -3.5161 *  0.0000     1          
    90  O     c      0.0000      -3.2456 *    -8.0239 *  0.0000     1          
    91  Na    c      0.0000       3.5161 *    -8.0239 *  0.0000     1          
    92  Na    c      0.0000       8.0239 *    -3.5161 *  0.0000     1          
    93  Cl    c      2.2539 *     3.5161 *     7.7534 *  0.0000     2          
    94  Cl    c      6.7617 *    -5.4995 *    -1.2622 *  0.0000     2          
    95  Na    c      2.2539 *    -7.7534 *    -3.5161 *  0.0000     2          
    96  Na    c      6.7617 *     1.2622 *     5.4995 *  0.0000     2          
    97  Cl    c      2.2539 *     8.0239 *     3.2456 *  0.0000     2          
    98  Na    c      2.2539 *    -3.2456 *    -8.0239 *  0.0000     2          
    99  Cl    c      6.7617 *    -0.9917 *    -5.7700 *  0.0000     2          
   100  Na    c      6.7617 *     5.7700 *     0.9917 *  0.0000     2          
   101  Na    c      4.5078 *    -5.4995 *     5.4995 *  0.0000     2          
   102  O     c      4.5078 *    -7.7534 *     0.9917 *  0.0000     2          
   103  Na    c     -4.5078 *     1.2622 *     7.7534 *  0.0000     2          
   104  Na    c      4.5078 *    -7.7534 *    -1.2622 *  0.0000     2          
   105  Na    c      9.0156 *    -0.9917 *     0.9917 *  0.0000     2          
   106  O     c      9.0156 *     1.2622 *     0.9917 *  0.0000     2          
   107  O     c     -4.5078 *     5.7700 *     5.4995 *  0.0000     2          
   108  Na    c      9.0156 *     1.2622 *    -1.2622 *  0.0000     2          
   109  Na    c     -4.5078 *     8.0239 *     0.9917 *  0.0000     2          
   110  Na    c      4.5078 *    -0.9917 *    -8.0239 *  0.0000     2          
   111  O     c      4.5078 *     1.2622 *    -8.0239 *  0.0000     2          
   112  Cl    c      6.7617 *    -5.4995 *     3.2456 *  0.0000     2          
   113  Na    c      6.7617 *    -3.2456 *     5.4995 *  0.0000     2          
   114  Na    c     -4.5078 *     5.7700 *    -5.7700 *  0.0000     2          
   115  O     c      0.0000      -7.7534 *     5.4995 *  0.0000     1          
   116  Na    c      4.5078 *    -7.7534 *     3.2456 *  0.0000     2          
   117  Na    c     -4.5078 *    -3.2456 *     7.7534 *  0.0000     2          
   118  Cl    c      6.7617 *     3.5161 *    -5.7700 *  0.0000     2          
   119  Na    c      6.7617 *     5.7700 *    -3.5161 *  0.0000     2          
   120  O     c      9.0156 *    -3.2456 *     0.9917 *  0.0000     2          
   121  O     c      4.5078 *    -7.7534 *    -3.5161 *  0.0000     2          
   122  Na    c      9.0156 *     1.2622 *     3.2456 *  0.0000     2          
   123  Na    c      0.0000       5.7700 *     7.7534 *  0.0000     1          
   124  Na    c      0.0000      -7.7534 *    -5.7700 *  0.0000     1          
   125  Na    c      9.0156 *    -3.2456 *    -1.2622 *  0.0000     2          
   126  Na    c      0.0000       8.0239 *     5.4995 *  0.0000     1          
   127  Na    c      0.0000      -5.4995 *    -8.0239 *  0.0000     1          
   128  Na    c      9.0156 *    -0.9917 *    -3.5161 *  0.0000     2          
   129  Na    c      9.0156 *     3.5161 *     0.9917 *  0.0000     2          
   130  O     c      4.5078 *    -3.2456 *    -8.0239 *  0.0000     2          
   131  O     c      9.0156 *     1.2622 *    -3.5161 *  0.0000     2          
   132  Cl    c      2.2539 *    -5.4995 *     7.7534 *  0.0000     2          
   133  Na    c      2.2539 *    -7.7534 *     5.4995 *  0.0000     2          
   134  Na    c      4.5078 *     3.5161 *    -8.0239 *  0.0000     2          
   135  Na    c     -4.5078 *     8.0239 *    -3.5161 *  0.0000     2          
   136  O     c      0.0000       5.7700 *    -8.0239 *  0.0000     1          
   137  Na    c      0.0000      -0.9917 *    10.0073 *  0.0000     1          
   138  Na    c      0.0000     -10.0073 *     0.9917 *  0.0000     1          
   139  O     c      0.0000       1.2622 *    10.0073 *  0.0000     1          
   140  Na    c      9.0156 *    -3.2456 *     3.2456 *  0.0000     2          
   141  Cl    c      2.2539 *     8.0239 *    -5.7700 *  0.0000     2          
   142  Na    c      2.2539 *     5.7700 *    -8.0239 *  0.0000     2          
   143  O     c      9.0156 *    -3.2456 *    -3.5161 *  0.0000     2          
   144  Na    c      9.0156 *     3.5161 *    -3.5161 *  0.0000     2          
   145  O     c      0.0000      10.2778 *     0.9917 *  0.0000     1          
   146  Na    c      6.7617 *    -7.7534 *     0.9917 *  0.0000     2          
   147  Cl    c      2.2539 *   -10.0073 *    -1.2622 *  0.0000     2          
   148  Cl    c      6.7617 *    -0.9917 *     7.7534 *  0.0000     2          
   149  Na    c      2.2539 *     1.2622 *    10.0073 *  0.0000     2          
   150  Na    c      0.0000       1.2622 *   -10.2778 *  0.0000     1          
   151  Na    c      0.0000      10.2778 *    -1.2622 *  0.0000     1          
   152  Cl    c      6.7617 *    -5.4995 *    -5.7700 *  0.0000     2          
   153  Na    c      6.7617 *     5.7700 *     5.4995 *  0.0000     2          
   154  O     c      0.0000      -3.2456 *    10.0073 *  0.0000     1          
   155  O     c      4.5078 *    -7.7534 *     5.4995 *  0.0000     2          
   156  Na    c      6.7617 *     1.2622 *    -8.0239 *  0.0000     2          
   157  Cl    c      2.2539 *    -0.9917 *   -10.2778 *  0.0000     2          
   158  Cl    c      6.7617 *     8.0239 *    -1.2622 *  0.0000     2          
   159  Na    c      2.2539 *    10.2778 *     0.9917 *  0.0000     2          
   160  Na    c      9.0156 *    -0.9917 *     5.4995 *  0.0000     2          
   161  Na    c      9.0156 *    -5.4995 *     0.9917 *  0.0000     2          
   162  Na    c      0.0000       3.5161 *    10.0073 *  0.0000     1          
   163  Na    c      0.0000     -10.0073 *    -3.5161 *  0.0000     1          
   164  O     c      9.0156 *     1.2622 *     5.4995 *  0.0000     2          
   165  Na    c      4.5078 *     5.7700 *     7.7534 *  0.0000     2          
   166  Na    c      4.5078 *    -7.7534 *    -5.7700 *  0.0000     2          
   167  Na    c     -4.5078 *     8.0239 *     5.4995 *  0.0000     2          
   168  Na    c      4.5078 *    -5.4995 *    -8.0239 *  0.0000     2          
   169  O     c      9.0156 *     5.7700 *     0.9917 *  0.0000     2          
   170  Cl    c      2.2539 *   -10.0073 *     3.2456 *  0.0000     2          
   171  Na    c      2.2539 *    -3.2456 *    10.0073 *  0.0000     2          
   172  Na    c      9.0156 *     1.2622 *    -5.7700 *  0.0000     2          
   173  Na    c      0.0000      10.2778 *     3.2456 *  0.0000     1          
   174  Na    c      0.0000      -3.2456 *   -10.2778 *  0.0000     1          
   175  Na    c      9.0156 *     5.7700 *    -1.2622 *  0.0000     2          
   176  O     c     -4.5078 *     5.7700 *    -8.0239 *  0.0000     2          
   177  O     c      0.0000      10.2778 *    -3.5161 *  0.0000     1          
   178  Cl    c      6.7617 *     3.5161 *     7.7534 *  0.0000     2          
   179  Na    c      6.7617 *    -7.7534 *    -3.5161 *  0.0000     2          
   180  Na    c      0.0000      -7.7534 *     7.7534 *  0.0000     1          
   181  Cl    c      6.7617 *     8.0239 *     3.2456 *  0.0000     2          
   182  Na    c      6.7617 *    -3.2456 *    -8.0239 *  0.0000     2          
   183  Na    c     -4.5078 *   -10.0073 *     0.9917 *  0.0000     2          
   184  Na    c      4.5078 *    -0.9917 *    10.0073 *  0.0000     2          
   185  O     c      9.0156 *    -3.2456 *     5.4995 *  0.0000     2          
   186  O     c      4.5078 *     1.2622 *    10.0073 *  0.0000     2          
   187  Cl    c      2.2539 *     3.5161 *   -10.2778 *  0.0000     2          
   188  Na    c      2.2539 *    10.2778 *    -3.5161 *  0.0000     2          
   189  Na    c      9.0156 *     3.5161 *     5.4995 *  0.0000     2          
   190  Na    c      9.0156 *    -5.4995 *    -3.5161 *  0.0000     2          
   191  O     c      0.0000      -7.7534 *    -8.0239 *  0.0000     1          
   192  Na    c      9.0156 *     5.7700 *     3.2456 *  0.0000     2          
   193  Na    c      9.0156 *    -3.2456 *    -5.7700 *  0.0000     2          
   194  O     c      9.0156 *     5.7700 *    -3.5161 *  0.0000     2          
   195  O     c     -4.5078 *    10.2778 *     0.9917 *  0.0000     2          
   196  Na    c      4.5078 *     1.2622 *   -10.2778 *  0.0000     2          
   197  Na    c     -4.5078 *    10.2778 *    -1.2622 *  0.0000     2          
   198  Na    c      0.0000       8.0239 *    -8.0239 *  0.0000     1          
   199  Cl    c     11.2695 *    -0.9917 *    -1.2622 *  0.0000     2          
   200  Cl    c      2.2539 *     8.0239 *     7.7534 *  0.0000     2          
   201  Na    c      2.2539 *    -7.7534 *    -8.0239 *  0.0000     2          
   202  Na    c     11.2695 *     1.2622 *     0.9917 *  0.0000     2          
   203  Na    c      0.0000      -5.4995 *    10.0073 *  0.0000     1          
   204  Na    c      0.0000     -10.0073 *     5.4995 *  0.0000     1          
   205  O     c      4.5078 *    -3.2456 *    10.0073 *  0.0000     2          
   206  Na    c      4.5078 *     3.5161 *    10.0073 *  0.0000     2          
   207  Na    c      4.5078 *   -10.0073 *    -3.5161 *  0.0000     2          
   208  O     c      0.0000       5.7700 *    10.0073 *  0.0000     1          
   209  O     c      0.0000      10.2778 *     5.4995 *  0.0000     1          
   210  Cl    c      6.7617 *    -5.4995 *     7.7534 *  0.0000     2          
   211  Na    c      6.7617 *    -7.7534 *     5.4995 *  0.0000     2          
   212  Na    c      4.5078 *    10.2778 *     3.2456 *  0.0000     2          
   213  Na    c      4.5078 *    -3.2456 *   -10.2778 *  0.0000     2          
   214  O     c      4.5078 *    10.2778 *    -3.5161 *  0.0000     2          
   215  Cl    c     11.2695 *    -0.9917 *     3.2456 *  0.0000     2          
   216  Cl    c      2.2539 *   -10.0073 *    -5.7700 *  0.0000     2          
   217  Na    c      2.2539 *     5.7700 *    10.0073 *  0.0000     2          
   218  Na    c     11.2695 *    -3.2456 *     0.9917 *  0.0000     2          
   219  Na    c      0.0000       5.7700 *   -10.2778 *  0.0000     1          
   220  Na    c      0.0000      10.2778 *    -5.7700 *  0.0000     1          
   221  Na    c      4.5078 *    -7.7534 *     7.7534 *  0.0000     2          
   222  Cl    c     11.2695 *     3.5161 *    -1.2622 *  0.0000     2          
   223  Na    c      2.2539 *    10.2778 *     5.4995 *  0.0000     2          
   224  Na    c     11.2695 *     1.2622 *    -3.5161 *  0.0000     2          
   225  Cl    c      2.2539 *    -5.4995 *   -10.2778 *  0.0000     2          
   226  Na    c      9.0156 *    -5.4995 *     5.4995 *  0.0000     2          
   227  O     c      9.0156 *    -7.7534 *     0.9917 *  0.0000     2          
   228  Na    c      9.0156 *     1.2622 *     7.7534 *  0.0000     2          
   229  Na    c      9.0156 *    -7.7534 *    -1.2622 *  0.0000     2          
   230  Cl    c      6.7617 *     8.0239 *    -5.7700 *  0.0000     2          
   231  Na    c      6.7617 *     5.7700 *    -8.0239 *  0.0000     2          
   232  O     c      4.5078 *    -7.7534 *    -8.0239 *  0.0000     2          
   233  O     c      9.0156 *     5.7700 *     5.4995 *  0.0000     2          
   234  Na    c      9.0156 *    -0.9917 *    -8.0239 *  0.0000     2          
   235  Na    c      9.0156 *     8.0239 *     0.9917 *  0.0000     2          
   236  O     c      9.0156 *     1.2622 *    -8.0239 *  0.0000     2          
   237  Na    c      6.7617 *     1.2622 *    10.0073 *  0.0000     2          
   238  Cl    c      6.7617 *   -10.0073 *    -1.2622 *  0.0000     2          
   239  Na    c      9.0156 *     5.7700 *    -5.7700 *  0.0000     2          
   240  Na    c      4.5078 *     8.0239 *    -8.0239 *  0.0000     2          
   241  Cl    c     11.2695 *     3.5161 *     3.2456 *  0.0000     2          
   242  Na    c     11.2695 *    -3.2456 *    -3.5161 *  0.0000     2          
   243  Na    c      4.5078 *    -5.4995 *    10.0073 *  0.0000     2          
   244  Na    c      4.5078 *   -10.0073 *     5.4995 *  0.0000     2          
   245  O     c      0.0000     -12.2612 *     0.9917 *  0.0000     1          
   246  Na    c      0.0000     -12.2612 *    -1.2622 *  0.0000     1          
   247  Na    c      9.0156 *    -3.2456 *     7.7534 *  0.0000     2          
   248  Na    c      9.0156 *    -7.7534 *     3.2456 *  0.0000     2          
   249  Na    c      0.0000       1.2622 *    12.2612 *  0.0000     1          
   250  Cl    c      6.7617 *    -0.9917 *   -10.2778 *  0.0000     2          
   251  Na    c      6.7617 *    10.2778 *     0.9917 *  0.0000     2          
   252  O     c      9.0156 *    -7.7534 *    -3.5161 *  0.0000     2          
   253  O     c     -4.5078 *     5.7700 *    10.0073 *  0.0000     2          
   254  O     c      9.0156 *    -3.2456 *    -8.0239 *  0.0000     2          
   255  O     c      4.5078 *    10.2778 *     5.4995 *  0.0000     2          
   256  Na    c      2.2539 *   -12.2612 *     0.9917 *  0.0000     2          
   257  Na    c      6.7617 *    -3.2456 *    10.0073 *  0.0000     2          
   258  Cl    c      2.2539 *    -0.9917 *    12.2612 *  0.0000     2          
   259  Cl    c      6.7617 *   -10.0073 *     3.2456 *  0.0000     2          
   260  Na    c      0.0000      -0.9917 *   -12.5316 *  0.0000     1          
   261  Na    c      0.0000      12.5316 *     0.9917 *  0.0000     1          
   262  Na    c      9.0156 *     3.5161 *    -8.0239 *  0.0000     2          
   263  Na    c      9.0156 *     8.0239 *    -3.5161 *  0.0000     2          
   264  O     c      0.0000       1.2622 *   -12.5316 *  0.0000     1          
   265  Cl    c     11.2695 *    -5.4995 *    -1.2622 *  0.0000     2          
   266  Na    c     11.2695 *     1.2622 *     5.4995 *  0.0000     2          
   267  Na    c     -4.5078 *     5.7700 *   -10.2778 *  0.0000     2          
   268  Na    c     -4.5078 *    10.2778 *    -5.7700 *  0.0000     2          
   269  O     c      0.0000      -7.7534 *    10.0073 *  0.0000     1          
   270  Na    c      0.0000     -12.2612 *     3.2456 *  0.0000     1          
   271  Na    c      0.0000      -3.2456 *    12.2612 *  0.0000     1          
   272  Cl    c     11.2695 *    -0.9917 *    -5.7700 *  0.0000     2          
   273  Na    c     11.2695 *     5.7700 *     0.9917 *  0.0000     2          
   274  O     c      0.0000     -12.2612 *    -3.5161 *  0.0000     1          
   275  Cl    c      2.2539 *    12.5316 *    -1.2622 *  0.0000     2          
   276  Na    c      2.2539 *     1.2622 *   -12.5316 *  0.0000     2          
   277  Cl    c      6.7617 *     3.5161 *   -10.2778 *  0.0000     2          
   278  Na    c      6.7617 *    10.2778 *    -3.5161 *  0.0000     2          
   279  Na    c      0.0000       8.0239 *    10.0073 *  0.0000     1          
   280  Na    c      0.0000     -10.0073 *    -8.0239 *  0.0000     1          
   281  Cl    c      2.2539 *   -10.0073 *     7.7534 *  0.0000     2          
   282  Na    c      2.2539 *    -7.7534 *    10.0073 *  0.0000     2          
   283  Na    c      0.0000      10.2778 *     7.7534 *  0.0000     1          
   284  Na    c      0.0000      -7.7534 *   -10.2778 *  0.0000     1          
   285  O     c      0.0000      -3.2456 *   -12.5316 *  0.0000     1          
   286  Cl    c     11.2695 *    -5.4995 *     3.2456 *  0.0000     2          
   287  Na    c      2.2539 *   -12.2612 *    -3.5161 *  0.0000     2          
   288  Na    c     11.2695 *    -3.2456 *     5.4995 *  0.0000     2          
   289  Cl    c      2.2539 *     3.5161 *    12.2612 *  0.0000     2          
   290  O     s      0.0000       1.2622 *     0.9917 *  0.0000     1          
   291  Cl    s      2.2539 *    -0.9917 *    -1.2622 *  0.0000     2          
   292  O     s      0.0000      -3.2456 *     0.9917 *  0.0000     1          
   293  O     s      0.0000       1.2622 *    -3.5161 *  0.0000     1          
   294  Cl    s      2.2539 *    -0.9917 *     3.2456 *  0.0000     2          
   295  Cl    s      2.2539 *     3.5161 *    -1.2622 *  0.0000     2          
   296  O     s      0.0000      -3.2456 *    -3.5161 *  0.0000     1          
   297  O     s     -4.5078 *     1.2622 *     0.9917 *  0.0000     2          
   298  Cl    s      2.2539 *     3.5161 *     3.2456 *  0.0000     2          
   299  O     s      0.0000       1.2622 *     5.4995 *  0.0000     1          
   300  O     s     -4.5078 *    -3.2456 *     0.9917 *  0.0000     2          
   301  O     s      0.0000       5.7700 *     0.9917 *  0.0000     1          
   302  O     s     -4.5078 *     1.2622 *    -3.5161 *  0.0000     2          
   303  Cl    s      2.2539 *    -5.4995 *    -1.2622 *  0.0000     2          
   304  Cl    s      2.2539 *    -0.9917 *    -5.7700 *  0.0000     2          
   305  O     s      0.0000      -3.2456 *     5.4995 *  0.0000     1          
   306  O     s     -4.5078 *    -3.2456 *    -3.5161 *  0.0000     2          
   307  O     s      0.0000       5.7700 *    -3.5161 *  0.0000     1          
   308  Cl    s      2.2539 *    -5.4995 *     3.2456 *  0.0000     2          
   309  Cl    s      6.7617 *    -0.9917 *    -1.2622 *  0.0000     2          
   310  Cl    s      2.2539 *     3.5161 *    -5.7700 *  0.0000     2          
   311  O     s      4.5078 *     1.2622 *     5.4995 *  0.0000     2          
   312  O     s     -4.5078 *     5.7700 *     0.9917 *  0.0000     2          
   313  Cl    s      6.7617 *    -0.9917 *     3.2456 *  0.0000     2          
   314  Cl    s      6.7617 *     3.5161 *    -1.2622 *  0.0000     2          
   315  O     s     -4.5078 *    -3.2456 *     5.4995 *  0.0000     2          
   316  O     s      0.0000      -7.7534 *     0.9917 *  0.0000     1          
   317  O     s      0.0000       5.7700 *     5.4995 *  0.0000     1          
   318  O     s      0.0000       1.2622 *    -8.0239 *  0.0000     1          
   319  O     s     -4.5078 *     5.7700 *    -3.5161 *  0.0000     2          
   320  Cl    s      2.2539 *    -0.9917 *     7.7534 *  0.0000     2          
   321  Cl    s      2.2539 *    -5.4995 *    -5.7700 *  0.0000     2          
   322  Cl    s      6.7617 *     3.5161 *     3.2456 *  0.0000     2          
   323  Cl    s      2.2539 *     8.0239 *    -1.2622 *  0.0000     2          
   324  O     s      0.0000      -7.7534 *    -3.5161 *  0.0000     1          
   325  O     s      0.0000      -3.2456 *    -8.0239 *  0.0000     1          
   326  Cl    s      2.2539 *     3.5161 *     7.7534 *  0.0000     2          
   327  Cl    s      6.7617 *    -5.4995 *    -1.2622 *  0.0000     2          
   328  Cl    s      2.2539 *     8.0239 *     3.2456 *  0.0000     2          
   329  Cl    s      6.7617 *    -0.9917 *    -5.7700 *  0.0000     2          
   330  O     s      4.5078 *    -7.7534 *     0.9917 *  0.0000     2          
   331  O     s      9.0156 *     1.2622 *     0.9917 *  0.0000     2          
   332  O     s     -4.5078 *     5.7700 *     5.4995 *  0.0000     2          
   333  O     s      4.5078 *     1.2622 *    -8.0239 *  0.0000     2          
   334  Cl    s      6.7617 *    -5.4995 *     3.2456 *  0.0000     2          
   335  O     s      0.0000      -7.7534 *     5.4995 *  0.0000     1          
   336  Cl    s      6.7617 *     3.5161 *    -5.7700 *  0.0000     2          
   337  O     s      9.0156 *    -3.2456 *     0.9917 *  0.0000     2          
   338  O     s      4.5078 *    -7.7534 *    -3.5161 *  0.0000     2          
   339  O     s      4.5078 *    -3.2456 *    -8.0239 *  0.0000     2          
   340  O     s      9.0156 *     1.2622 *    -3.5161 *  0.0000     2          
   341  Cl    s      2.2539 *    -5.4995 *     7.7534 *  0.0000     2          
   342  O     s      0.0000       5.7700 *    -8.0239 *  0.0000     1          
   343  O     s      0.0000       1.2622 *    10.0073 *  0.0000     1          
   344  Cl    s      2.2539 *     8.0239 *    -5.7700 *  0.0000     2          
   345  O     s      9.0156 *    -3.2456 *    -3.5161 *  0.0000     2          
   346  O     s      0.0000      10.2778 *     0.9917 *  0.0000     1          
   347  Cl    s      2.2539 *   -10.0073 *    -1.2622 *  0.0000     2          
   348  Cl    s      6.7617 *    -0.9917 *     7.7534 *  0.0000     2          
   349  Cl    s      6.7617 *    -5.4995 *    -5.7700 *  0.0000     2          
   350  O     s      0.0000      -3.2456 *    10.0073 *  0.0000     1          
   351  O     s      4.5078 *    -7.7534 *     5.4995 *  0.0000     2          
   352  Cl    s      2.2539 *    -0.9917 *   -10.2778 *  0.0000     2          
   353  Cl    s      6.7617 *     8.0239 *    -1.2622 *  0.0000     2          
   354  O     s      9.0156 *     1.2622 *     5.4995 *  0.0000     2          
   355  O     s      9.0156 *     5.7700 *     0.9917 *  0.0000     2          
   356  Cl    s      2.2539 *   -10.0073 *     3.2456 *  0.0000     2          
   357  O     s     -4.5078 *     5.7700 *    -8.0239 *  0.0000     2          
   358  O     s      0.0000      10.2778 *    -3.5161 *  0.0000     1          
   359  Cl    s      6.7617 *     3.5161 *     7.7534 *  0.0000     2          
   360  Cl    s      6.7617 *     8.0239 *     3.2456 *  0.0000     2          
   361  O     s      9.0156 *    -3.2456 *     5.4995 *  0.0000     2          
   362  O     s      4.5078 *     1.2622 *    10.0073 *  0.0000     2          
   363  Cl    s      2.2539 *     3.5161 *   -10.2778 *  0.0000     2          
   364  O     s      0.0000      -7.7534 *    -8.0239 *  0.0000     1          
   365  O     s      9.0156 *     5.7700 *    -3.5161 *  0.0000     2          
   366  O     s     -4.5078 *    10.2778 *     0.9917 *  0.0000     2          
   367  Cl    s     11.2695 *    -0.9917 *    -1.2622 *  0.0000     2          
   368  Cl    s      2.2539 *     8.0239 *     7.7534 *  0.0000     2          
   369  O     s      4.5078 *    -3.2456 *    10.0073 *  0.0000     2          
   370  O     s      0.0000       5.7700 *    10.0073 *  0.0000     1          
   371  O     s      0.0000      10.2778 *     5.4995 *  0.0000     1          
   372  Cl    s      6.7617 *    -5.4995 *     7.7534 *  0.0000     2          
   373  O     s      4.5078 *    10.2778 *    -3.5161 *  0.0000     2          
   374  Cl    s     11.2695 *    -0.9917 *     3.2456 *  0.0000     2          
   375  Cl    s      2.2539 *   -10.0073 *    -5.7700 *  0.0000     2          
   376  Cl    s     11.2695 *     3.5161 *    -1.2622 *  0.0000     2          
   377  Cl    s      2.2539 *    -5.4995 *   -10.2778 *  0.0000     2          
   378  O     s      9.0156 *    -7.7534 *     0.9917 *  0.0000     2          
   379  Cl    s      6.7617 *     8.0239 *    -5.7700 *  0.0000     2          
   380  O     s      4.5078 *    -7.7534 *    -8.0239 *  0.0000     2          
   381  O     s      9.0156 *     5.7700 *     5.4995 *  0.0000     2          
   382  O     s      9.0156 *     1.2622 *    -8.0239 *  0.0000     2          
   383  Cl    s      6.7617 *   -10.0073 *    -1.2622 *  0.0000     2          
   384  Cl    s     11.2695 *     3.5161 *     3.2456 *  0.0000     2          
   385  O     s      0.0000     -12.2612 *     0.9917 *  0.0000     1          
   386  Cl    s      6.7617 *    -0.9917 *   -10.2778 *  0.0000     2          
   387  O     s      9.0156 *    -7.7534 *    -3.5161 *  0.0000     2          
   388  O     s     -4.5078 *     5.7700 *    10.0073 *  0.0000     2          
   389  O     s      9.0156 *    -3.2456 *    -8.0239 *  0.0000     2          
   390  O     s      4.5078 *    10.2778 *     5.4995 *  0.0000     2          
   391  Cl    s      2.2539 *    -0.9917 *    12.2612 *  0.0000     2          
   392  Cl    s      6.7617 *   -10.0073 *     3.2456 *  0.0000     2          
   393  O     s      0.0000       1.2622 *   -12.5316 *  0.0000     1          
   394  Cl    s     11.2695 *    -5.4995 *    -1.2622 *  0.0000     2          
   395  O     s      0.0000      -7.7534 *    10.0073 *  0.0000     1          
   396  Cl    s     11.2695 *    -0.9917 *    -5.7700 *  0.0000     2          
   397  O     s      0.0000     -12.2612 *    -3.5161 *  0.0000     1          
   398  Cl    s      2.2539 *    12.5316 *    -1.2622 *  0.0000     2          
   399  Cl    s      6.7617 *     3.5161 *   -10.2778 *  0.0000     2          
   400  Cl    s      2.2539 *   -10.0073 *     7.7534 *  0.0000     2          
   401  O     s      0.0000      -3.2456 *   -12.5316 *  0.0000     1          
   402  Cl    s     11.2695 *    -5.4995 *     3.2456 *  0.0000     2          
   403  Cl    s      2.2539 *     3.5161 *    12.2612 *  0.0000     2          
--------------------------------------------------------------------------------

  Components of defect energy : 

--------------------------------------------------------------------------------
  Region 1 - region 1                   =     10.26462350 eV
  Region 1 - region 2a (unrelaxed)      =      0.35405726 eV
  Region 1 - 2a (relaxed - correction)  =     -0.40154345 eV
  Region 1 (Total)                      =     10.21713732 eV
  Region 2a                             =      0.20070802 eV
  Region 2b                             =     -0.32821424 eV
--------------------------------------------------------------------------------
  Total defect energy                   =     10.08963110 eV
--------------------------------------------------------------------------------

  Largest displacement in region 2 =   0.0199 Angstroms


  Number of variables =     1100

  Maximum number of calculations  =        1000
  Maximum Hessian update interval =          10
  Maximum step size               =   1.0000000
  Maximum parameter tolerance     =   0.0000100
  Maximum function  tolerance     =   0.0000100
  Maximum gradient  tolerance     =   0.0010000

  Symmetry adapted optimisation

  Symmetry to be used for second derivatives

  Newton-Raphson optimiser to be used

  BFGS hessian update to be used

  Lower half triangular hessian to be used

  Start of defect optimisation :

  Cycle:      0 Defect Energy:  10.089631  Gnorm:     0.018729  CPU:   10.064
  ** Hessian calculated **
  Cycle:      1 Defect Energy:   8.528583  Gnorm:     0.010762  CPU:   23.277
  Cycle:      2 Defect Energy:   7.968328  Gnorm:     0.009795  CPU:   34.113
  Cycle:      3 Defect Energy:   7.708564  Gnorm:     0.008139  CPU:   46.700
  Cycle:      4 Defect Energy:   7.262007  Gnorm:     0.008427  CPU:   60.806
  Cycle:      5 Defect Energy:   6.819676  Gnorm:     0.005859  CPU:   71.453
  Cycle:      6 Defect Energy:   6.345482  Gnorm:     0.006623  CPU:   86.396
  Cycle:      7 Defect Energy:   5.931380  Gnorm:     0.006187  CPU:   95.733
  Cycle:      8 Defect Energy:   5.603795  Gnorm:     0.003756  CPU:  106.501
  Cycle:      9 Defect Energy:   5.472442  Gnorm:     0.003642  CPU:  119.378
  Cycle:     10 Defect Energy:   5.377463  Gnorm:     0.002147  CPU:  128.960
  ** Hessian calculated **
  Cycle:     11 Defect Energy:   5.354020  Gnorm:     0.001575  CPU:  135.007
  Cycle:     12 Defect Energy:   5.335734  Gnorm:     0.001486  CPU:  137.208
  Cycle:     13 Defect Energy:   5.313322  Gnorm:     0.001457  CPU:  139.585
  Cycle:     14 Defect Energy:   5.285312  Gnorm:     0.001424  CPU:  141.690
  Cycle:     15 Defect Energy:   5.260061  Gnorm:     0.001374  CPU:  143.854
  Cycle:     16 Defect Energy:   5.241138  Gnorm:     0.001321  CPU:  149.700
  Cycle:     17 Defect Energy:   5.224939  Gnorm:     0.001275  CPU:  152.704
  Cycle:     18 Defect Energy:   5.210822  Gnorm:     0.001216  CPU:  155.450
  Cycle:     19 Defect Energy:   5.196043  Gnorm:     0.001160  CPU:  158.127
  Cycle:     20 Defect Energy:   5.180483  Gnorm:     0.001107  CPU:  160.773
  ** Hessian calculated **
  Cycle:     21 Defect Energy:   5.159089  Gnorm:     0.001048  CPU:  166.828
  Cycle:     22 Defect Energy:   5.152858  Gnorm:     0.001025  CPU:  169.179
  ** Hessian calculated **
  Cycle:     23 Defect Energy:   5.149500  Gnorm:     0.000999  CPU:  174.893
  Cycle:     24 Defect Energy:   5.144913  Gnorm:     0.000990  CPU:  177.096
  Cycle:     25 Defect Energy:   5.138261  Gnorm:     0.000980  CPU:  179.250
  Cycle:     26 Defect Energy:   5.129081  Gnorm:     0.000969  CPU:  183.058
  Cycle:     27 Defect Energy:   5.116756  Gnorm:     0.000958  CPU:  187.868
  Cycle:     28 Defect Energy:   5.101706  Gnorm:     0.000953  CPU:  190.582
  Cycle:     29 Defect Energy:   5.091086  Gnorm:     0.000954  CPU:  193.342
  Cycle:     30 Defect Energy:   5.081864  Gnorm:     0.000956  CPU:  196.168
  Cycle:     31 Defect Energy:   5.071531  Gnorm:     0.000966  CPU:  198.553
  Cycle:     32 Defect Energy:   5.058638  Gnorm:     0.000979  CPU:  201.002
  ** Hessian calculated **
  Cycle:     33 Defect Energy:   5.039457  Gnorm:     0.000915  CPU:  206.910
  Cycle:     34 Defect Energy:   5.010601  Gnorm:     0.000829  CPU:  209.248
  Cycle:     35 Defect Energy:   5.005382  Gnorm:     0.000783  CPU:  211.571
  ** Hessian calculated **
  Cycle:     36 Defect Energy:   4.982273  Gnorm:     0.000699  CPU:  216.658
  Cycle:     37 Defect Energy:   4.975966  Gnorm:     0.000746  CPU:  223.226
  ** Hessian calculated **
  Cycle:     38 Defect Energy:   4.946502  Gnorm:     0.000527  CPU:  229.882
  Cycle:     39 Defect Energy:   4.929345  Gnorm:     0.000388  CPU:  232.554
  Cycle:     40 Defect Energy:   4.924692  Gnorm:     0.000355  CPU:  235.047
  ** Hessian calculated **
  Cycle:     41 Defect Energy:   4.909977  Gnorm:     0.000486  CPU:  240.965
  Cycle:     42 Defect Energy:   4.902403  Gnorm:     0.000430  CPU:  243.351
  ** Hessian calculated **
  Cycle:     43 Defect Energy:   4.884947  Gnorm:     0.000378  CPU:  249.031
  Cycle:     44 Defect Energy:   4.883700  Gnorm:     0.000604  CPU:  251.271
  ** Hessian calculated **
  Cycle:     45 Defect Energy:   4.862285  Gnorm:     0.000435  CPU:  260.984
  Cycle:     46 Defect Energy:   4.850175  Gnorm:     0.000320  CPU:  263.872
  Cycle:     47 Defect Energy:   4.842594  Gnorm:     0.000226  CPU:  266.604
  Cycle:     48 Defect Energy:   4.838051  Gnorm:     0.000163  CPU:  269.224
  Cycle:     49 Defect Energy:   4.835303  Gnorm:     0.000111  CPU:  271.683
  Cycle:     50 Defect Energy:   4.833684  Gnorm:     0.000084  CPU:  274.170
  Cycle:     51 Defect Energy:   4.832675  Gnorm:     0.000046  CPU:  276.523
  Cycle:     52 Defect Energy:   4.831979  Gnorm:     0.000044  CPU:  278.982
  Cycle:     53 Defect Energy:   4.831525  Gnorm:     0.000029  CPU:  281.239
  Cycle:     54 Defect Energy:   4.831014  Gnorm:     0.000038  CPU:  283.462
  ** Hessian calculated **
  Cycle:     55 Defect Energy:   4.830999  Gnorm:     0.000022  CPU:  292.935
  Cycle:     56 Defect Energy:   4.830978  Gnorm:     0.000016  CPU:  295.619
  Cycle:     57 Defect Energy:   4.830957  Gnorm:     0.000015  CPU:  298.432
  Cycle:     58 Defect Energy:   4.830921  Gnorm:     0.000018  CPU:  301.127
  Cycle:     59 Defect Energy:   4.830887  Gnorm:     0.000020  CPU:  303.724
  Cycle:     60 Defect Energy:   4.830843  Gnorm:     0.000025  CPU:  306.162
  Cycle:     61 Defect Energy:   4.830808  Gnorm:     0.000027  CPU:  308.661
  Cycle:     62 Defect Energy:   4.830755  Gnorm:     0.000029  CPU:  310.971
  Cycle:     63 Defect Energy:   4.830715  Gnorm:     0.000031  CPU:  313.388
  Cycle:     64 Defect Energy:   4.830656  Gnorm:     0.000032  CPU:  315.691
  ** Hessian calculated **


  **** Optimisation achieved ****


  Final defect energy  =        4.83064785
  Final defect Gnorm   =        0.00002942

  Components of defect energy : 

--------------------------------------------------------------------------------
  Region 1 - region 1                   =      5.84639950 eV
  Region 1 - region 2a (unrelaxed)      =     -0.51741951 eV
  Region 1 - 2a (relaxed - correction)  =     -0.34012924 eV
  Region 1 (Total)                      =      4.98885075 eV
  Region 2a                             =      0.16997170 eV
  Region 2b                             =     -0.32817460 eV
--------------------------------------------------------------------------------
  Total defect energy                   =      4.83064785 eV
--------------------------------------------------------------------------------

  Largest displacement in region 2 =   0.0199 Angstroms

  Final coordinates of region 1 :

--------------------------------------------------------------------------------
   No.  Atomic        x           y           z          Radius      Charge
        Label       (Angs)      (Angs)      (Angs)       (Angs)       (e) 
--------------------------------------------------------------------------------
     1  Na    c     2.253894    0.991713    1.262180    0.000000    1.000000
     2  O     c     2.253894    2.701770    2.473296    0.000000    0.183000
     3  Na    c     4.506465    2.797056    2.380489    0.000000    1.000000
     4  Na    c     0.001322    2.797056    2.380489    0.000000    1.000000
     5  Cl    c     4.554171   -0.057500   -0.022479    0.000000    1.485000
     6  Cl    c    -0.046384   -0.057500   -0.022479    0.000000    1.485000
     7  O     c     2.253894   -2.298026    2.306399    0.000000    0.183000
     8  Na    c     2.253894    2.232051    4.597313    0.000000    1.000000
     9  Na    c     2.253894   -2.388057    0.057895    0.000000    1.000000
    10  Na    c     2.253894    4.661982    1.534172    0.000000    1.000000
    11  Na    c     2.253894    0.065808   -2.031698    0.000000    1.000000
    12  O     c     2.253894    2.278920   -2.250395    0.000000    0.183000
    13  Na    c     4.464406   -2.215572    2.340500    0.000000    1.000000
    14  Na    c     0.043381   -2.215572    2.340500    0.000000    1.000000
    15  Cl    c     4.643037    0.052772    4.634375    0.000000    1.485000
    16  Cl    c    -0.135249    0.052772    4.634375    0.000000    1.485000
    17  Cl    c     4.657344    4.679150    0.003452    0.000000    1.485000
    18  Cl    c    -0.149557    4.679150    0.003452    0.000000    1.485000
    19  Na    c     4.436062    2.282698   -1.809917    0.000000    1.000000
    20  Na    c     0.071725    2.282698   -1.809917    0.000000    1.000000
    21  Na    c     2.253894   -1.543025    4.416813    0.000000    1.000000
    22  Na    c    -1.902854    0.073986    2.266922    0.000000    1.000000
    23  Na    c     6.410641    0.073986    2.266922    0.000000    1.000000
    24  O     c     2.253894   -2.215025   -2.246372    0.000000    0.183000
    25  O     c    -2.251463    2.322138    2.283128    0.000000    0.183000
    26  O     c     6.759250    2.322138    2.283128    0.000000    0.183000
    27  Na    c    -2.462740    2.212873    0.037523    0.000000    1.000000
    28  Na    c     6.970528    2.212873    0.037523    0.000000    1.000000
    29  Na    c     2.253894    4.478720   -1.877762    0.000000    1.000000
    30  Cl    c     4.665737    4.602377    4.671065    0.000000    1.485000
    31  Cl    c    -0.157950    4.602377    4.671065    0.000000    1.485000
    32  Na    c     4.503296   -2.227976   -2.315381    0.000000    1.000000
    33  Na    c     0.004491   -2.227976   -2.315381    0.000000    1.000000
    34  Na    c     2.253894   -0.012198    7.156470    0.000000    1.000000
    35  Na    c     2.253894   -4.485934    2.711980    0.000000    1.000000
    36  O     c     2.253894    2.235320    6.852852    0.000000    0.183000
    37  O     c    -2.239035   -2.193172    2.260312    0.000000    0.183000
    38  O     c     6.746822   -2.193172    2.260312    0.000000    0.183000
    39  Na    c    -2.175567    2.417514    4.543445    0.000000    1.000000
    40  Na    c     6.683354    2.417514    4.543445    0.000000    1.000000
    41  Na    c    -2.058281   -2.378240    0.012450    0.000000    1.000000
    42  Na    c     6.566068   -2.378240    0.012450    0.000000    1.000000
    43  Na    c    -2.214383    0.008288   -2.156931    0.000000    1.000000
    44  Na    c     6.722170    0.008288   -2.156931    0.000000    1.000000
    45  Na    c    -2.573184    4.559740    2.077345    0.000000    1.000000
    46  Na    c     7.080971    4.559740    2.077345    0.000000    1.000000
    47  O     c     2.253894    6.821689    2.217334    0.000000    0.183000
    48  O     c    -2.206385    2.265264   -2.210021    0.000000    0.183000
    49  O     c     6.714173    2.265264   -2.210021    0.000000    0.183000
    50  Na    c     2.253894    2.307629   -4.475831    0.000000    1.000000
    51  Na    c     2.253894    7.319314   -0.012535    0.000000    1.000000
    52  Na    c     4.513849    2.129875    6.813910    0.000000    1.000000
    53  Na    c    -0.006062    2.129875    6.813910    0.000000    1.000000
    54  Cl    c     4.565911   -4.539519   -0.048324    0.000000    1.485000
    55  Cl    c    -0.058123   -4.539519   -0.048324    0.000000    1.485000
    56  Cl    c     4.569645   -0.096532   -4.579704    0.000000    1.485000
    57  Cl    c    -0.061858   -0.096532   -4.579704    0.000000    1.485000
    58  Na    c     4.524797    6.696950    2.287678    0.000000    1.000000
    59  Na    c    -0.017010    6.696950    2.287678    0.000000    1.000000
    60  O     c     2.253894   -2.217385    6.670354    0.000000    0.183000
    61  Na    c     7.005868   -2.112727    4.500356    0.000000    1.000000
    62  Na    c    -2.498081   -2.112727    4.500356    0.000000    1.000000
    63  Na    c     2.253894    4.499913    6.887649    0.000000    1.000000
    64  Na    c     2.253894   -4.472389   -2.537087    0.000000    1.000000
    65  O     c    -2.258258   -2.250729   -2.243217    0.000000    0.183000
    66  O     c     6.766045   -2.250729   -2.243217    0.000000    0.183000
    67  Na    c     2.253894    6.225291    4.421053    0.000000    1.000000
    68  Na    c     2.253894   -1.905210   -4.486086    0.000000    1.000000
    69  Na    c     6.755719    4.519433   -2.128153    0.000000    1.000000
    70  Na    c    -2.247931    4.519433   -2.128153    0.000000    1.000000
    71  O     c     2.253894    6.763600   -2.229944    0.000000    0.183000
    72  Na    c     4.516363   -2.226760    6.512299    0.000000    1.000000
    73  Na    c    -0.008576   -2.226760    6.512299    0.000000    1.000000
    74  Cl    c     4.601766   -4.578891    4.530141    0.000000    1.485000
    75  Cl    c    -0.093979   -4.578891    4.530141    0.000000    1.485000
    76  Cl    c     9.013872    0.061791   -0.028018    0.000000    1.485000
    77  Cl    c    -4.506085    0.061791   -0.028018    0.000000    1.485000
    78  Na    c     9.002925    1.969818    2.476095    0.000000    1.000000
    79  Na    c    -4.495138    1.969818    2.476095    0.000000    1.000000
    80  Cl    c     4.565818    4.605233   -4.593875    0.000000    1.485000
    81  Cl    c    -0.058031    4.605233   -4.593875    0.000000    1.485000
    82  Na    c     4.506141    6.706483   -2.255912    0.000000    1.000000
    83  Na    c     0.001646    6.706483   -2.255912    0.000000    1.000000
    84  Na    c    -2.341770    0.015740    6.691060    0.000000    1.000000
    85  Na    c     6.849557    0.015740    6.691060    0.000000    1.000000
    86  Na    c     6.861688   -4.462612    2.445217    0.000000    1.000000
    87  Na    c    -2.353901   -4.462612    2.445217    0.000000    1.000000
    88  O     c     6.773191    2.275189    6.798079    0.000000    0.183000
    89  O     c    -2.265404    2.275189    6.798079    0.000000    0.183000
    90  O     c    -2.283933    6.797845    2.271504    0.000000    0.183000
    91  O     c     6.791721    6.797845    2.271504    0.000000    0.183000
    92  Na    c    -2.162820    6.950588    0.009309    0.000000    1.000000
    93  Na    c     6.670607    6.950588    0.009309    0.000000    1.000000
    94  Na    c     6.399158    2.263477   -4.458809    0.000000    1.000000
    95  Na    c    -1.891370    2.263477   -4.458809    0.000000    1.000000
    96  Na    c     8.998564   -1.991715    1.986650    0.000000    1.000000
    97  Na    c    -4.490777   -1.991715    1.986650    0.000000    1.000000
    98  Cl    c     9.038373    0.002745    4.549361    0.000000    1.485000
    99  Cl    c    -4.530586    0.002745    4.549361    0.000000    1.485000
   100  Cl    c     9.048870    4.529186   -0.031912    0.000000    1.485000
   101  Cl    c    -4.541083    4.529186   -0.031912    0.000000    1.485000
   102  Na    c     8.969990    2.258728   -2.519700    0.000000    1.000000
   103  Na    c    -4.462203    2.258728   -2.519700    0.000000    1.000000
   104  Na    c     2.253894   -4.469840    6.304831    0.000000    1.000000
   105  O     c    -2.268039   -2.250693    6.754882    0.000000    0.183000
   106  O     c     6.775826   -2.250693    6.754882    0.000000    0.183000
   107  O     c     2.253894   -6.728277    2.257829    0.000000    0.183000
   108  Na    c     2.253894    2.467009    9.070764    0.000000    1.000000
   109  Na    c     2.253894   -6.326396    0.018427    0.000000    1.000000
   110  Na    c    -2.059448    4.520382    6.968853    0.000000    1.000000
   111  Na    c     6.567235    4.520382    6.968853    0.000000    1.000000
   112  Na    c     6.731401   -4.495353   -2.456394    0.000000    1.000000
   113  Na    c    -2.223614   -4.495353   -2.456394    0.000000    1.000000
   114  O     c     2.253894    6.746382    6.675579    0.000000    0.183000
   115  Na    c    -2.353290    6.506982    4.520801    0.000000    1.000000
   116  Na    c     6.861078    6.506982    4.520801    0.000000    1.000000
   117  Na    c     6.893493   -2.084091   -4.495814    0.000000    1.000000
   118  Na    c    -2.385706   -2.084091   -4.495814    0.000000    1.000000
   119  Na    c     2.253894    0.001311   -6.885515    0.000000    1.000000
   120  Na    c     2.253894    9.028204    2.665870    0.000000    1.000000
   121  O     c     2.253894    2.256656   -6.777529    0.000000    0.183000
   122  O     c    -2.257011    6.780159   -2.249366    0.000000    0.183000
   123  O     c     6.764799    6.780159   -2.249366    0.000000    0.183000
   124  Cl    c     4.517921    0.023781    9.069679    0.000000    1.485000
   125  Cl    c    -0.010133    0.023781    9.069679    0.000000    1.485000
   126  Na    c     4.510689   -6.641076    2.204314    0.000000    1.000000
   127  Na    c    -0.002902   -6.641076    2.204314    0.000000    1.000000
   128  Na    c     2.253894    6.419639   -4.480995    0.000000    1.000000
   129  Na    c     4.512172    6.852627    6.611143    0.000000    1.000000
   130  Na    c    -0.004384    6.852627    6.611143    0.000000    1.000000
   131  Cl    c     4.523327   -4.531352   -4.508268    0.000000    1.485000
   132  Cl    c    -0.015540   -4.531352   -4.508268    0.000000    1.485000
   133  Cl    c     9.071511    4.498330    4.509115    0.000000    1.485000
   134  Cl    c    -4.563724    4.498330    4.509115    0.000000    1.485000
   135  Na    c     9.013193   -2.286127   -2.037717    0.000000    1.000000
   136  Na    c    -4.505406   -2.286127   -2.037717    0.000000    1.000000
   137  Na    c     2.253894   -2.584647    8.945701    0.000000    1.000000
   138  Na    c     2.253894   -7.155863    4.491184    0.000000    1.000000
   139  Cl    c     4.555073    9.088985   -0.014951    0.000000    1.485000
   140  Cl    c    -0.047286    9.088985   -0.014951    0.000000    1.485000
   141  Na    c     4.494677    2.261639   -6.876434    0.000000    1.000000
   142  Na    c     0.013110    2.261639   -6.876434    0.000000    1.000000
   143  O     c     2.253894   -6.735727   -2.221616    0.000000    0.183000
   144  O     c     2.253894   -2.256528   -6.721448    0.000000    0.183000
   145  Na    c     2.253894    4.504339   -6.873832    0.000000    1.000000
   146  Na    c     2.253894    9.001252   -2.634985    0.000000    1.000000
   147  Cl    c     4.470417    4.500017    9.067841    0.000000    1.485000
   148  Cl    c     0.037371    4.500017    9.067841    0.000000    1.485000
   149  Cl    c     9.049053   -4.492888    0.010756    0.000000    1.485000
   150  Cl    c    -4.541265   -4.492888    0.010756    0.000000    1.485000
   151  Na    c     4.509932   -6.732416   -2.167141    0.000000    1.000000
   152  Na    c    -0.002145   -6.732416   -2.167141    0.000000    1.000000
[...]
    323 y          9.015574      9.090742     0.075168    Cartesian    0.83
    323 z          0.000000     -0.016704    -0.016704    Cartesian    0.00
    324 x          2.253894      2.253894     0.000000    Cartesian    0.00
    324 y         -6.761681     -6.735722     0.025959    Cartesian   -0.38
    324 z         -2.253894     -2.221630     0.032264    Cartesian   -1.43
    325 x          2.253894      2.253894     0.000000    Cartesian    0.00
    325 y         -2.253894     -2.256501    -0.002607    Cartesian    0.12
    325 z         -6.761681     -6.721409     0.040272    Cartesian   -0.60
    326 x          4.507787      4.468631    -0.039156    Cartesian   -0.87
    326 y          4.507787      4.494884    -0.012903    Cartesian   -0.29
    326 z          9.015574      9.067018     0.051444    Cartesian    0.57
    327 x          9.015574      9.051345     0.035770    Cartesian    0.40
    327 y         -4.507787     -4.493798     0.013989    Cartesian   -0.31
    327 z          0.000000      0.010776     0.010776    Cartesian    0.00
    328 x          4.507787      4.549167     0.041380    Cartesian    0.92
    328 y          9.015574      9.096798     0.081224    Cartesian    0.90
    328 z          4.507787      4.539345     0.031558    Cartesian    0.70
    329 x          9.015574      9.067538     0.051964    Cartesian    0.58
    329 y          0.000000     -0.005485    -0.005485    Cartesian    0.00
    329 z         -4.507787     -4.518648    -0.010861    Cartesian    0.24
    330 x          6.761681      6.765818     0.004137    Cartesian    0.06
    330 y         -6.761681     -6.738866     0.022815    Cartesian   -0.34
    330 z          2.253894      2.251245    -0.002649    Cartesian   -0.12
    331 x         11.269468     11.249032    -0.020436    Cartesian   -0.18
    331 y          2.253894      2.252640    -0.001253    Cartesian   -0.06
    331 z          2.253894      2.257414     0.003520    Cartesian    0.16
    332 x         -2.253894     -2.266991    -0.013097    Cartesian    0.58
    332 y          6.761681      6.768678     0.006997    Cartesian    0.10
    332 z          6.761681      6.774203     0.012522    Cartesian    0.19
    333 x          6.761681      6.742357    -0.019324    Cartesian   -0.29
    333 y          2.253894      2.252787    -0.001106    Cartesian   -0.05
    333 z         -6.761681     -6.729515     0.032166    Cartesian   -0.48
    334 x          9.015574      9.032272     0.016698    Cartesian    0.19
    334 y         -4.507787     -4.527556    -0.019769    Cartesian    0.44
    334 z          4.507787      4.521721     0.013934    Cartesian    0.31
    335 x          2.253894      2.253894     0.000000    Cartesian    0.00
    335 y         -6.761681     -6.734933     0.026748    Cartesian   -0.40
    335 z          6.761681      6.731657    -0.030024    Cartesian   -0.44
    336 x          9.015574      9.054792     0.039217    Cartesian    0.43
    336 y          4.507787      4.537357     0.029569    Cartesian    0.66
    336 z         -4.507787     -4.509579    -0.001791    Cartesian    0.04
    337 x         11.269468     11.258269    -0.011199    Cartesian   -0.10
    337 y         -2.253894     -2.235840     0.018054    Cartesian   -0.80
    337 z          2.253894      2.250316    -0.003578    Cartesian   -0.16
    338 x          6.761681      6.768798     0.007117    Cartesian    0.11
    338 y         -6.761681     -6.749966     0.011715    Cartesian   -0.17
    338 z         -2.253894     -2.251974     0.001920    Cartesian   -0.09
    339 x          6.761681      6.774553     0.012873    Cartesian    0.19
    339 y         -2.253894     -2.258199    -0.004305    Cartesian    0.19
    339 z         -6.761681     -6.754623     0.007057    Cartesian   -0.10
    340 x         11.269468     11.238333    -0.031135    Cartesian   -0.28
    340 y          2.253894      2.255140     0.001246    Cartesian    0.06
    340 z         -2.253894     -2.261105    -0.007211    Cartesian    0.32
    341 x          4.507787      4.510540     0.002753    Cartesian    0.06
    341 y         -4.507787     -4.536637    -0.028850    Cartesian    0.64
    341 z          9.015574      9.070877     0.055303    Cartesian    0.61
    342 x          2.253894      2.253894     0.000000    Cartesian    0.00
    342 y          6.761681      6.750368    -0.011313    Cartesian   -0.17
    342 z         -6.761681     -6.733143     0.028538    Cartesian   -0.42
    343 x          2.253894      2.253894     0.000000    Cartesian    0.00
    343 y          2.253894      2.247920    -0.005973    Cartesian   -0.27
    343 z         11.269468     11.286607     0.017139    Cartesian    0.15
    344 x          4.507787      4.518125     0.010338    Cartesian    0.23
    344 y          9.015574      9.089883     0.074309    Cartesian    0.82
    344 z         -4.507787     -4.512117    -0.004329    Cartesian    0.10
    345 x         11.269468     11.271210     0.001742    Cartesian    0.02
    345 y         -2.253894     -2.251320     0.002573    Cartesian   -0.11
    345 z         -2.253894     -2.238462     0.015432    Cartesian   -0.68
    346 x          2.253894      2.253894     0.000000    Cartesian    0.00
    346 y         11.269468     11.265286    -0.004182    Cartesian   -0.04
    346 z          2.253894      2.243187    -0.010707    Cartesian   -0.48
    347 x          4.507787      4.519574     0.011787    Cartesian    0.26
    347 y         -9.015574     -9.091296    -0.075722    Cartesian    0.84
    347 z          0.000000     -0.013581    -0.013581    Cartesian    0.00
    348 x          9.015574      9.032878     0.017303    Cartesian    0.19
    348 y          0.000000     -0.001829    -0.001829    Cartesian    0.00
    348 z          9.015574      9.052102     0.036528    Cartesian    0.41
    349 x          9.015574      9.042688     0.027113    Cartesian    0.30
    349 y         -4.507787     -4.531098    -0.023311    Cartesian    0.52
    349 z         -4.507787     -4.504305     0.003482    Cartesian   -0.08
    350 x          2.253894      2.253894     0.000000    Cartesian    0.00
    350 y         -2.253894     -2.259763    -0.005870    Cartesian    0.26
    350 z         11.269468     11.237320    -0.032148    Cartesian   -0.29
    351 x          6.761681      6.757991    -0.003690    Cartesian   -0.05
    351 y         -6.761681     -6.762767    -0.001086    Cartesian    0.02
    351 z          6.761681      6.757195    -0.004485    Cartesian   -0.07
    352 x          4.507787      4.503419    -0.004369    Cartesian   -0.10
    352 y          0.000000      0.046092     0.046092    Cartesian    0.00
    352 z         -9.015574     -9.014311     0.001264    Cartesian   -0.01
    353 x          9.015574      9.057603     0.042029    Cartesian    0.47
    353 y          9.015574      9.022863     0.007289    Cartesian    0.08
    353 z          0.000000     -0.010060    -0.010060    Cartesian    0.00
    354 x         11.269468     11.279486     0.010018    Cartesian    0.09
    354 y          2.253894      2.262274     0.008380    Cartesian    0.37
    354 z          6.761681      6.752052    -0.009629    Cartesian   -0.14
    355 x         11.269468     11.258897    -0.010571    Cartesian   -0.09
    355 y          6.761681      6.767316     0.005635    Cartesian    0.08
    355 z          2.253894      2.253890    -0.000004    Cartesian   -0.00
    356 x          4.507787      4.532678     0.024891    Cartesian    0.55
    356 y         -9.015574     -9.029634    -0.014059    Cartesian    0.16
    356 z          4.507787      4.518956     0.011168    Cartesian    0.25
    357 x         -2.253894     -2.265625    -0.011732    Cartesian    0.52
    357 y          6.761681      6.761520    -0.000161    Cartesian   -0.00
    357 z         -6.761681     -6.756227     0.005454    Cartesian   -0.08
    358 x          2.253894      2.253894     0.000000    Cartesian    0.00
    358 y         11.269468     11.249304    -0.020164    Cartesian   -0.18
    358 z         -2.253894     -2.269284    -0.015391    Cartesian    0.68
    359 x          9.015574      9.074535     0.058960    Cartesian    0.65
    359 y          4.507787      4.502694    -0.005093    Cartesian   -0.11
    359 z          9.015574      9.030605     0.015031    Cartesian    0.17
    360 x          9.015574      9.039039     0.023465    Cartesian    0.26
    360 y          9.015574      9.051105     0.035531    Cartesian    0.39
    360 z          4.507787      4.487122    -0.020666    Cartesian   -0.46
    361 x         11.269468     11.240860    -0.028608    Cartesian   -0.25
    361 y         -2.253894     -2.253192     0.000701    Cartesian   -0.03
    361 z          6.761681      6.765979     0.004298    Cartesian    0.06
    362 x          6.761681      6.774997     0.013316    Cartesian    0.20
    362 y          2.253894      2.245988    -0.007906    Cartesian   -0.35
    362 z         11.269468     11.277230     0.007762    Cartesian    0.07
    363 x          4.507787      4.484948    -0.022839    Cartesian   -0.51
    363 y          4.507787      4.477046    -0.030741    Cartesian   -0.68
    363 z         -9.015574     -9.021081    -0.005506    Cartesian    0.06
    364 x          2.253894      2.253894     0.000000    Cartesian    0.00
    364 y         -6.761681     -6.758550     0.003131    Cartesian   -0.05
    364 z         -6.761681     -6.733815     0.027866    Cartesian   -0.41
    365 x         11.269468     11.273837     0.004369    Cartesian    0.04
    365 y          6.761681      6.760300    -0.001381    Cartesian   -0.02
    365 z         -2.253894     -2.243023     0.010871    Cartesian   -0.48
    366 x         -2.253894     -2.244552     0.009342    Cartesian   -0.41
    366 y         11.269468     11.272496     0.003028    Cartesian    0.03
    366 z          2.253894      2.266129     0.012235    Cartesian    0.54
    367 x         13.523362     13.530380     0.007018    Cartesian    0.05
    367 y          0.000000      0.031237     0.031237    Cartesian    0.00
    367 z          0.000000     -0.013646    -0.013646    Cartesian    0.00
    368 x          4.507787      4.520157     0.012370    Cartesian    0.27
    368 y          9.015574      9.024950     0.009375    Cartesian    0.10
    368 z          9.015574      9.063045     0.047470    Cartesian    0.53
    369 x          6.761681      6.742807    -0.018874    Cartesian   -0.28
    369 y         -2.253894     -2.255972    -0.002078    Cartesian    0.09
    369 z         11.269468     11.260402    -0.009066    Cartesian   -0.08
    370 x          2.253894      2.253894     0.000000    Cartesian    0.00
    370 y          6.761681      6.768575     0.006894    Cartesian    0.10
    370 z         11.269468     11.259861    -0.009607    Cartesian   -0.09
    371 x          2.253894      2.253894     0.000000    Cartesian    0.00
    371 y         11.269468     11.260605    -0.008863    Cartesian   -0.08
    371 z          6.761681      6.731414    -0.030267    Cartesian   -0.45
    372 x          9.015574      9.042544     0.026969    Cartesian    0.30
    372 y         -4.507787     -4.523184    -0.015396    Cartesian    0.34
    372 z          9.015574      9.032940     0.017365    Cartesian    0.19
    373 x          6.761681      6.766434     0.004753    Cartesian    0.07
    373 y         11.269468     11.271936     0.002468    Cartesian    0.02
    373 z         -2.253894     -2.256856    -0.002963    Cartesian    0.13
    374 x         13.523362     13.553099     0.029738    Cartesian    0.22
    374 y          0.000000     -0.023163    -0.023163    Cartesian    0.00
    374 z          4.507787      4.535925     0.028138    Cartesian    0.62
    375 x          4.507787      4.534572     0.026785    Cartesian    0.59
    375 y         -9.015574     -9.014392     0.001182    Cartesian   -0.01
    375 z         -4.507787     -4.539728    -0.031941    Cartesian    0.71
    376 x         13.523362     13.608577     0.085215    Cartesian    0.63
    376 y          4.507787      4.512756     0.004968    Cartesian    0.11
    376 z          0.000000      0.020526     0.020526    Cartesian    0.00
    377 x          4.507787      4.502816    -0.004971    Cartesian   -0.11
    377 y         -4.507787     -4.515770    -0.007982    Cartesian    0.18
    377 z         -9.015574     -9.080381    -0.064807    Cartesian    0.72
    378 x         11.269468     11.260273    -0.009195    Cartesian   -0.08
    378 y         -6.761681     -6.757886     0.003795    Cartesian   -0.06
    378 z          2.253894      2.257259     0.003365    Cartesian    0.15
    379 x          9.015574      9.031494     0.015920    Cartesian    0.18
    379 y          9.015574      9.051968     0.036394    Cartesian    0.40
    379 z         -4.507787     -4.510229    -0.002442    Cartesian    0.05
    380 x          6.761681      6.763136     0.001455    Cartesian    0.02
    380 y         -6.761681     -6.768573    -0.006892    Cartesian    0.10
    380 z         -6.761681     -6.754755     0.006926    Cartesian   -0.10
    381 x         11.269468     11.275659     0.006191    Cartesian    0.05
    381 y          6.761681      6.753867    -0.007814    Cartesian   -0.12
    381 z          6.761681      6.772764     0.011083    Cartesian    0.16
    382 x         11.269468     11.271361     0.001893    Cartesian    0.02
    382 y          2.253894      2.250307    -0.003586    Cartesian   -0.16
    382 z         -6.761681     -6.746612     0.015069    Cartesian   -0.22
    383 x          9.015574      9.014332    -0.001243    Cartesian   -0.01
    383 y         -9.015574     -9.064049    -0.048475    Cartesian    0.54
    383 z          0.000000      0.010663     0.010663    Cartesian    0.00
    384 x         13.523362     13.555983     0.032621    Cartesian    0.24
    384 y          4.507787      4.524856     0.017068    Cartesian    0.38
    384 z          4.507787      4.515268     0.007481    Cartesian    0.17
    385 x          2.253894      2.253894     0.000000    Cartesian    0.00
    385 y        -11.269468    -11.253376     0.016092    Cartesian   -0.14
    385 z          2.253894      2.233985    -0.019909    Cartesian   -0.88
    386 x          9.015574      9.036723     0.021149    Cartesian    0.23
    386 y          0.000000     -0.026780    -0.026780    Cartesian    0.00
    386 z         -9.015574     -9.041043    -0.025468    Cartesian    0.28
    387 x         11.269468     11.273307     0.003839    Cartesian    0.03
    387 y         -6.761681     -6.761099     0.000581    Cartesian   -0.01
    387 z         -2.253894     -2.257701    -0.003807    Cartesian    0.17
    388 x         -2.253894     -2.253700     0.000194    Cartesian   -0.01
    388 y          6.761681      6.770633     0.008952    Cartesian    0.13
    388 z         11.269468     11.261732    -0.007736    Cartesian   -0.07
    389 x         11.269468     11.262588    -0.006880    Cartesian   -0.06
    389 y         -2.253894     -2.255611    -0.001718    Cartesian    0.08
    389 z         -6.761681     -6.769649    -0.007968    Cartesian    0.12
    390 x          6.761681      6.768633     0.006953    Cartesian    0.10
    390 y         11.269468     11.275298     0.005830    Cartesian    0.05
    390 z          6.761681      6.758494    -0.003187    Cartesian   -0.05
    391 x          4.507787      4.509376     0.001589    Cartesian    0.04
    391 y          0.000000     -0.031724    -0.031724    Cartesian    0.00
    391 z         13.523362     13.578061     0.054699    Cartesian    0.40
    392 x          9.015574      9.069191     0.053617    Cartesian    0.59
    392 y         -9.015574     -8.999554     0.016021    Cartesian   -0.18
    392 z          4.507787      4.500627    -0.007160    Cartesian   -0.16
    393 x          2.253894      2.253894     0.000000    Cartesian    0.00
    393 y          2.253894      2.251184    -0.002709    Cartesian   -0.12
    393 z        -11.269468    -11.274150    -0.004682    Cartesian    0.04
    394 x         13.523362     13.536978     0.013616    Cartesian    0.10
    394 y         -4.507787     -4.513230    -0.005442    Cartesian    0.12
    394 z          0.000000     -0.002127    -0.002127    Cartesian    0.00
    395 x          2.253894      2.253894     0.000000    Cartesian    0.00
    395 y         -6.761681     -6.750621     0.011060    Cartesian   -0.16
    395 z         11.269468     11.263904    -0.005564    Cartesian   -0.05
    396 x         13.523362     13.566024     0.042662    Cartesian    0.32
    396 y          0.000000      0.008618     0.008618    Cartesian    0.00
    396 z         -4.507787     -4.523452    -0.015665    Cartesian    0.35
    397 x          2.253894      2.253894     0.000000    Cartesian    0.00
    397 y        -11.269468    -11.264471     0.004997    Cartesian   -0.04
    397 z         -2.253894     -2.246907     0.006987    Cartesian   -0.31
    398 x          4.507787      4.482808    -0.024980    Cartesian   -0.55
    398 y         13.523362     13.584350     0.060988    Cartesian    0.45
    398 z          0.000000      0.014696     0.014696    Cartesian    0.00
    399 x          9.015574      9.011744    -0.003831    Cartesian   -0.04
    399 y          4.507787      4.529180     0.021392    Cartesian    0.47
    399 z         -9.015574     -9.059941    -0.044366    Cartesian    0.49
    400 x          4.507787      4.503258    -0.004529    Cartesian   -0.10
    400 y         -9.015574     -9.080794    -0.065220    Cartesian    0.72
    400 z          9.015574      9.010333    -0.005241    Cartesian   -0.06
    401 x          2.253894      2.253894     0.000000    Cartesian    0.00
    401 y         -2.253894     -2.261240    -0.007347    Cartesian    0.33
    401 z        -11.269468    -11.259646     0.009822    Cartesian   -0.09
    402 x         13.523362     13.603811     0.080449    Cartesian    0.59
    402 y         -4.507787     -4.504878     0.002909    Cartesian   -0.06
    402 z          4.507787      4.516322     0.008535    Cartesian    0.19
    403 x          4.507787      4.505100    -0.002687    Cartesian   -0.06
    403 y          4.507787      4.530876     0.023088    Cartesian    0.51
    403 z         13.523362     13.546607     0.023245    Cartesian    0.17
--------------------------------------------------------------------------------


  Time to end of optimisation  =      321.3466 seconds


  Peak dynamic memory used =     149.72 MB 


  Timing analysis for GULP :

--------------------------------------------------------------------------------
  Task / Subroutine                                          Time (Seconds)
--------------------------------------------------------------------------------
  Calculation of reciprocal space energy and derivatives          0.0006
  Calculation of reciprocal space energy using symmetry           0.0009
  Calculation of real space energy and derivatives                0.0037
  Calculation of real space energy using symmetry                 0.0086
  Calculation for region 1 energy and derivatives (2-b)         108.7184
  Calculation for region 2a energy                              200.0028
  Calculation for region 2b energy                                0.0278
  Calculation and manipulation of Hessian matrix                  0.3662
  Calculation of matrix inversion                                11.5501
  Symmetry generation of equivalent positions                     0.0044
--------------------------------------------------------------------------------
  Total CPU time                                                321.3467
--------------------------------------------------------------------------------


  Dump file written as Na3OCl.grs


  Job Finished at 14:29.55  3rd December   2020                               

