********************************************************************************
*                       GENERAL UTILITY LATTICE PROGRAM                        *
*                                 Julian Gale                                  *
*                       Curtin Institute for Computation                       *
*                    School of Molecular and Life Sciences                     *
*                    Curtin University, Western Australia                      *
********************************************************************************
* Version = 5.2.0 * Last modified =  10th September 2020                       *
********************************************************************************
*  optimise     - perform optimisation run                                     *
*  conp         - constant pressure calculation                                *
*  property     - calculate properties for final geometry                      *
*  defect       - perform defect calculation after bulk run                    *
*  compare      - compare initial and final structures                         *
********************************************************************************

  Job Started  at 14:24.32  3rd December   2020                               

  Number of CPUs =     1


  Total number of configurations input =      1

********************************************************************************
*  Input for Configuration =   1                                               *
********************************************************************************

  Formula = ClONa3                                                      

  Number of irreducible atoms/shells =       5


  Total number atoms/shells =       7

  Dimensionality = 3               :  Bulk   


  Symmetry :

  Crystal family                   :  Cubic       
  Crystal class  (Groth - 1921)    :  Cubic Hexakisoctahedral              

  Space group (centrosymmetric)    :  P M 3 M         

  Patterson group                  :  P m -3 m 

  Cartesian lattice vectors (Angstroms) :

        4.504000    0.000000    0.000000
        0.000000    4.504000    0.000000
        0.000000    0.000000    4.504000

  Cell parameters (Angstroms/Degrees):

  a =       4.5040    alpha =  90.0000
  b =       4.5040    beta  =  90.0000
  c =       4.5040    gamma =  90.0000

  Initial cell volume =          91.368216 Angs**3

  Temperature of configuration =   0.00     K 

  Pressure of configuration =         0.000 GPa 

  Fractional coordinates of asymmetric unit :

--------------------------------------------------------------------------------
   No.  Atomic       x           y          z         Charge      Occupancy
        Label      (Frac)      (Frac)     (Frac)        (e)         (Frac)  
--------------------------------------------------------------------------------
      1 Cl    c    0.000000    0.000000    0.000000     1.48500    1.000000    
      2 O     c    0.500000    0.500000    0.500000     0.18300    1.000000    
      3 Na    c    0.500000    0.500000    0.000000     1.00000    1.000000    
      4 Cl    s    0.000000    0.000000    0.000000    -2.48500    1.000000    
      5 O     s    0.500000    0.500000    0.500000    -2.18300    1.000000    
--------------------------------------------------------------------------------


  Constraints : 

--------------------------------------------------------------------------------
  Constraint no.      Unconstrained     Constrained    Coefficient    Offset
                         Variable         Variable
--------------------------------------------------------------------------------
           1              Strain 1        Strain 2       1.00000      0.0000
           2              Strain 1        Strain 3       1.00000      0.0000
--------------------------------------------------------------------------------


********************************************************************************
*  General input information                                                   *
********************************************************************************

  Species output for all configurations : 

--------------------------------------------------------------------------------
  Species    Type    Atomic    Atomic    Charge       Radii (Angs)     Library
                     Number     Mass       (e)     Cova   Ionic  VDW   Symbol
--------------------------------------------------------------------------------
    Na       Core       11      22.99   1.000000   0.970  0.000  2.300          
    O        Core        8      16.00   0.183000   0.730  0.000  1.360          
    O        Shell       8       0.00  -2.183000   0.730  0.000  0.000          
    Cl       Core       17      35.45   1.485000   0.990  0.000  1.650          
    Cl       Shell      17       0.00  -2.485000   0.990  0.000  0.000          
    Mg       Core       12      24.31   0.415000   1.100  0.000  0.000          
    Mg       Shell      12       0.00   1.585000   1.100  0.000  0.000          
    Ca       Core       20      40.08  -1.135000   0.990  0.000  0.000          
    Ca       Shell      20       0.00   3.135000   0.990  0.000  0.000          
    Sr       Core       38      87.62  -1.251000   1.120  0.000  0.000          
    Sr       Shell      38       0.00   3.251000   1.120  0.000  0.000          
    Ba       Core       56     137.33  -7.203000   1.340  0.000  0.000          
    Ba       Shell      56       0.00   9.203000   1.340  0.000  0.000          
--------------------------------------------------------------------------------


  Lattice summation method               =    Ewald          (3-D)
                                         =    Parry          (2-D)
                                         =    Saunders et al (1-D)
  Accuracy factor for lattice sums       =   12.000


  Analytic derivatives to be used

  Time limit = Infinity

  Maximum range for interatomic potentials =    100000.000000 Angstroms

  General interatomic potentials :

--------------------------------------------------------------------------------
Atom  Types   Potential      Parameter       Value         Units   Cutoffs(Ang)
  1     2                                                            Min /  Max 
--------------------------------------------------------------------------------
O    c O    s Spring (c-s)  Spring k 2       593.71600    eV*Ang^-2 0.000  0.800
                            Spring k 4       0.0000000    eV*Ang^-4 
--------------------------------------------------------------------------------
Cl   c Cl   s Spring (c-s)  Spring k 2       29.380000    eV*Ang^-2 0.000  0.800
                            Spring k 4       0.0000000    eV*Ang^-4 
--------------------------------------------------------------------------------
Mg   c Mg   s Spring (c-s)  Spring k 2       361.60000    eV*Ang^-2 0.000  0.800
                            Spring k 4       0.0000000    eV*Ang^-4 
--------------------------------------------------------------------------------
Ca   c Ca   s Spring (c-s)  Spring k 2       110.20000    eV*Ang^-2 0.000  0.800
                            Spring k 4       0.0000000    eV*Ang^-4 
--------------------------------------------------------------------------------
Sr   c Sr   s Spring (c-s)  Spring k 2       71.700000    eV*Ang^-2 0.000  0.800
                            Spring k 4       0.0000000    eV*Ang^-4 
--------------------------------------------------------------------------------
Ba   c Ba   s Spring (c-s)  Spring k 2       495.20000    eV*Ang^-2 0.000  0.800
                            Spring k 4       0.0000000    eV*Ang^-4 
--------------------------------------------------------------------------------
Na   c Na   c Buckingham    Buckingham A     1788.1900    eV        0.000 12.000
                            Buckingham rho  0.15900000    Ang       
                            Buckingham C     0.0000000    eV*Ang^6  
--------------------------------------------------------------------------------
Na   c O    s Buckingham    Buckingham A     1226.8400    eV        0.000 12.000
                            Buckingham rho  0.30700000    Ang       
                            Buckingham C     0.0000000    eV*Ang^6  
--------------------------------------------------------------------------------
Na   c Cl   s Buckingham    Buckingham A     2314.7000    eV        0.000 12.000
                            Buckingham rho  0.29000000    Ang       
                            Buckingham C     0.0000000    eV*Ang^6  
--------------------------------------------------------------------------------
O    s O    s Buckingham    Buckingham A     22764.300    eV        0.000 12.000
                            Buckingham rho  0.14900000    Ang       
                            Buckingham C     13.190000    eV*Ang^6  
--------------------------------------------------------------------------------
O    s Cl   s Buckingham    Buckingham A     8286.9100    eV        0.000 12.000
                            Buckingham rho  0.25900000    Ang       
                            Buckingham C     62.200000    eV*Ang^6  
--------------------------------------------------------------------------------
Cl   s Cl   s Buckingham    Buckingham A     1227.2000    eV        0.000 12.000
                            Buckingham rho  0.32100000    Ang       
                            Buckingham C     14.530000    eV*Ang^6  
--------------------------------------------------------------------------------
O    s Mg   s Buckingham    Buckingham A     1428.5000    eV        0.000 12.000
                            Buckingham rho  0.29450000    Ang       
                            Buckingham C     0.0000000    eV*Ang^6  
--------------------------------------------------------------------------------
Mg   s Cl   s Buckingham    Buckingham A     4914.5400    eV        0.000 12.000
                            Buckingham rho  0.25700000    Ang       
                            Buckingham C     0.0000000    eV*Ang^6  
--------------------------------------------------------------------------------
O    s Ca   s Buckingham    Buckingham A     1090.4000    eV        0.000 12.000
                            Buckingham rho  0.34370000    Ang       
                            Buckingham C     0.0000000    eV*Ang^6  
--------------------------------------------------------------------------------
Cl   s Ca   s Buckingham    Buckingham A     2302.0000    eV        0.000 12.000
                            Buckingham rho  0.34020000    Ang       
                            Buckingham C     0.0000000    eV*Ang^6  
--------------------------------------------------------------------------------
O    s Sr   s Buckingham    Buckingham A     959.10000    eV        0.000 12.000
                            Buckingham rho  0.37210000    Ang       
                            Buckingham C     0.0000000    eV*Ang^6  
--------------------------------------------------------------------------------
Cl   s Sr   s Buckingham    Buckingham A     2191.0900    eV        0.000 12.000
                            Buckingham rho  0.34570000    Ang       
                            Buckingham C     0.0000000    eV*Ang^6  
--------------------------------------------------------------------------------
O    s Ba   s Buckingham    Buckingham A     905.70000    eV        0.000 12.000
                            Buckingham rho  0.39760000    Ang       
                            Buckingham C     0.0000000    eV*Ang^6  
--------------------------------------------------------------------------------
Cl   s Ba   s Buckingham    Buckingham A     2704.5500    eV        0.000 12.000
                            Buckingham rho  0.35280000    Ang       
                            Buckingham C     0.0000000    eV*Ang^6  
--------------------------------------------------------------------------------

********************************************************************************
*  Output for configuration   1                                                *
********************************************************************************


  Components of energy : 

--------------------------------------------------------------------------------
  Interatomic potentials     =           5.13022605 eV    
  Monopole - monopole (real) =         -10.03624526 eV    
  Monopole - monopole (recip)=         -29.53581274 eV    
  Monopole - monopole (total)=         -39.57205800 eV    
--------------------------------------------------------------------------------
  Total lattice energy       =         -34.44183194 eV    
--------------------------------------------------------------------------------
  Total lattice energy       =           -3323.1103 kJ/(mole unit cells)
--------------------------------------------------------------------------------


  Number of variables =        1

  Maximum number of calculations  =          1000
  Maximum Hessian update interval =            10
  Maximum step size               =   1.000000000
  Maximum parameter tolerance     =   0.000010000
  Maximum function  tolerance     =   0.000010000
  Maximum gradient  tolerance     =   0.001000000
  Maximum gradient  component     =   0.010000000

  Symmetry constrained optimisation

  Symmetry used for second derivatives

  Cell parameters to be optimised using strains

  Newton-Raphson optimiser to be used

  BFGS hessian update to be used

  Lower half triangular hessian to be used

  Start of bulk optimisation :

  Cycle:      0 Energy:       -34.441832  Gnorm:      0.196570  CPU:    0.018
  ** Hessian calculated **
  Cycle:      1 Energy:       -34.441914  Gnorm:      0.000103  CPU:    0.022


  **** Optimisation achieved ****


  Final energy =     -34.44191447 eV
  Final Gnorm  =       0.00000000

  Components of energy : 

--------------------------------------------------------------------------------
  Interatomic potentials     =           5.09689708 eV    
  Monopole - monopole (real) =         -10.02781331 eV    
  Monopole - monopole (recip)=         -29.51099824 eV    
  Monopole - monopole (total)=         -39.53881155 eV    
--------------------------------------------------------------------------------
  Total lattice energy       =         -34.44191447 eV    
--------------------------------------------------------------------------------
  Total lattice energy       =           -3323.1183 kJ/(mole unit cells)
--------------------------------------------------------------------------------

  Final asymmetric unit coordinates :

--------------------------------------------------------------------------------
   No.  Atomic        x           y           z         Radius
        Label       (Frac)      (Frac)      (Frac)       (Angs) 
--------------------------------------------------------------------------------
     1  Cl    c     0.000000    0.000000    0.000000    0.000000
     2  O     c     0.500000    0.500000    0.500000    0.000000
     3  Na    c     0.500000    0.500000    0.000000    0.000000
     4  Cl    s     0.000000    0.000000    0.000000    0.000000
     5  O     s     0.500000    0.500000    0.500000    0.000000
--------------------------------------------------------------------------------

  Final Cartesian lattice vectors (Angstroms) :

        4.507787    0.000000    0.000000
        0.000000    4.507787    0.000000
        0.000000    0.000000    4.507787


  Final cell parameters and derivatives :

--------------------------------------------------------------------------------
       a            4.507787 Angstrom     dE/de1(xx)     0.000000 eV/strain
       b            4.507787 Angstrom     dE/de2(yy)     0.000000 eV/strain
       c            4.507787 Angstrom     dE/de3(zz)     0.000000 eV/strain
       alpha       90.000000 Degrees      dE/de4(yz)     0.000000 eV/strain
       beta        90.000000 Degrees      dE/de5(xz)     0.000000 eV/strain
       gamma       90.000000 Degrees      dE/de6(xy)     0.000000 eV/strain
--------------------------------------------------------------------------------

  Primitive cell volume =            91.598892 Angs**3

  Density of cell =      2.183054 g/cm**3

  Non-primitive cell volume =            91.598892 Angs**3


  Final internal derivatives :

--------------------------------------------------------------------------------
   No.  Atomic          a             b             c           Radius
        Label          (eV)          (eV)          (eV)        (eV/Angs)
--------------------------------------------------------------------------------
      1 Cl    c       0.000000      0.000000      0.000000      0.000000
      2 O     c       0.000000      0.000000      0.000000      0.000000
      3 Na    c       0.000000      0.000000      0.000000      0.000000
      4 Cl    s       0.000000      0.000000      0.000000      0.000000
      5 O     s       0.000000      0.000000      0.000000      0.000000
--------------------------------------------------------------------------------
  Maximum abs         0.000000      0.000000      0.000000      0.000000
--------------------------------------------------------------------------------

  Comparison of initial and final structures : 

--------------------------------------------------------------------------------
  Parameter   Initial value   Final value   Difference    Units      Percent
--------------------------------------------------------------------------------
    Volume        91.368216     91.598892     0.230676    Angs**3      0.25
    a              4.504000      4.507787     0.003787    Angstroms    0.08
    b              4.504000      4.507787     0.003787    Angstroms    0.08
    c              4.504000      4.507787     0.003787    Angstroms    0.08
    alpha         90.000000     90.000000     0.000000    Degrees      0.00
    beta          90.000000     90.000000     0.000000    Degrees      0.00
    gamma         90.000000     90.000000     0.000000    Degrees      0.00
      1 x          0.000000      0.000000     0.000000    Fractional   0.00
      1 y          0.000000      0.000000     0.000000    Fractional   0.00
      1 z          0.000000      0.000000     0.000000    Fractional   0.00
      2 x          0.500000      0.500000     0.000000    Fractional   0.00
      2 y          0.500000      0.500000     0.000000    Fractional   0.00
      2 z          0.500000      0.500000     0.000000    Fractional   0.00
      3 x          0.500000      0.500000     0.000000    Fractional   0.00
      3 y          0.500000      0.500000     0.000000    Fractional   0.00
      3 z          0.000000      0.000000     0.000000    Fractional   0.00
      4 x          0.000000      0.000000     0.000000    Fractional   0.00
      4 y          0.000000      0.000000     0.000000    Fractional   0.00
      4 z          0.000000      0.000000     0.000000    Fractional   0.00
      5 x          0.500000      0.500000     0.000000    Fractional   0.00
      5 y          0.500000      0.500000     0.000000    Fractional   0.00
      5 z          0.500000      0.500000     0.000000    Fractional   0.00
--------------------------------------------------------------------------------


  Born effective charge tensors : 

-------------------------------------------------------------------------------
  Atom             x           y             z
-------------------------------------------------------------------------------
    1 Cl    x      -1.0181     -0.0000      0.0000
            y      -0.0000     -1.0181      0.0000
            z       0.0000      0.0000     -1.0181
-------------------------------------------------------------------------------
    2 O     x      -2.2647      0.0000     -0.0000
            y       0.0000     -2.2647     -0.0000
            z      -0.0000     -0.0000     -2.2647
-------------------------------------------------------------------------------
    3 Na    x       1.2258     -0.0000      0.0000
            y      -0.0000      1.2258     -0.0000
            z       0.0000     -0.0000      0.8313
-------------------------------------------------------------------------------




  Elastic Constant Matrix: (Units=GPa)

-------------------------------------------------------------------------------
  Indices      1         2         3         4         5         6    
-------------------------------------------------------------------------------
       1     95.8177   20.0737   20.0737   -0.0000   -0.0000    0.0000
       2     20.0737   95.8177   20.0737   -0.0000   -0.0000    0.0000
       3     20.0737   20.0737   95.8177   -0.0000   -0.0000    0.0000
       4     -0.0000   -0.0000   -0.0000   20.0737   -0.0000    0.0000
       5     -0.0000   -0.0000   -0.0000   -0.0000   20.0737    0.0000
       6      0.0000    0.0000    0.0000    0.0000    0.0000   20.0737
-------------------------------------------------------------------------------


  Elastic Compliance Matrix: (Units=1/GPa)

-------------------------------------------------------------------------------
  Indices      1         2         3         4         5         6    
-------------------------------------------------------------------------------
       1    0.011253 -0.001949 -0.001949  0.000000  0.000000 -0.000000
       2   -0.001949  0.011253 -0.001949  0.000000  0.000000  0.000000
       3   -0.001949 -0.001949  0.011253  0.000000  0.000000 -0.000000
       4    0.000000  0.000000  0.000000  0.049816  0.000000 -0.000000
       5    0.000000  0.000000  0.000000  0.000000  0.049816 -0.000000
       6   -0.000000  0.000000 -0.000000 -0.000000 -0.000000  0.049816
-------------------------------------------------------------------------------

  Mechanical properties :

-------------------------------------------------------------------------------
  Convention :                    Reuss         Voigt         Hill
-------------------------------------------------------------------------------
  Bulk  Modulus (GPa)     =      45.32174      45.32174      45.32174
  Shear Modulus (GPa)     =      24.72085      27.19304      25.95695
-------------------------------------------------------------------------------
  Velocity S-wave (km/s)  =       3.36511       3.52937       3.44822
  Velocity P-wave (km/s)  =       5.98827       6.11304       6.05098
-------------------------------------------------------------------------------
  Compressibility (1/GPa) =    0.02206447
-------------------------------------------------------------------------------
  Stress axis :                     x             y             z
-------------------------------------------------------------------------------
  Youngs Moduli (GPa)     =      88.86373      88.86373      88.86373
-------------------------------------------------------------------------------
  Poissons Ratio (x)      =                     0.17321       0.17321
  Poissons Ratio (y)      =       0.17321                     0.17321
  Poissons Ratio (z)      =       0.17321       0.17321
-------------------------------------------------------------------------------


  Piezoelectric Strain Matrix: (Units=C/m**2)

-------------------------------------------------------------------------------
  Indices      1         2         3         4         5         6    
-------------------------------------------------------------------------------
       x    -0.00000  -0.00000  -0.00000   0.00000  -0.00000  -0.00000
       y    -0.00000  -0.00000   0.00000  -0.00000   0.00000   0.00000
       z    -0.00000  -0.00000  -0.00000  -0.00000   0.00000   0.00000
-------------------------------------------------------------------------------


  Piezoelectric Stress Matrix: (Units=10**-11 C/N)

-------------------------------------------------------------------------------
  Indices      1         2         3         4         5         6    
-------------------------------------------------------------------------------
       x    -0.00000   0.00000   0.00000   0.00000  -0.00000  -0.00000
       y    -0.00000  -0.00000   0.00000  -0.00000   0.00000   0.00000
       z     0.00000   0.00000  -0.00000  -0.00000   0.00000   0.00000
-------------------------------------------------------------------------------


  Static dielectric constant tensor : 

-------------------------------------------------------------------------------
              x         y         z
-------------------------------------------------------------------------------
       x    22.84729   0.00000   0.00000
       y     0.00000  22.84729  -0.00000
       z     0.00000  -0.00000  22.84729
--------------------------------------------------------------------------------

  High frequency dielectric constant tensor : 

-------------------------------------------------------------------------------
              x         y         z
-------------------------------------------------------------------------------
       x     1.47557   0.00000  -0.00000
       y     0.00000   1.47557  -0.00000
       z    -0.00000  -0.00000   1.47557
-------------------------------------------------------------------------------

  Static refractive indices : 

-------------------------------------------------------------------------------
    1 =    4.77988      2 =    4.77988      3 =    4.77988
-------------------------------------------------------------------------------

  High frequency refractive indices : 

-------------------------------------------------------------------------------
    1 =    1.21473      2 =    1.21473      3 =    1.21473
-------------------------------------------------------------------------------


  Time to end of optimisation =       0.0333 seconds

********************************************************************************
*  Defect calculation for configuration   1 :                                  *
********************************************************************************

  Total number of defects =      3

  Total charge on defect  =  -1.00

  Defect centre is at   0.5000   0.2300   0.2700  Frac

  Region 1 radius =  13.0000      Number of ions =    703

  Number of symmetry inequivalent region 1 ions  =    407

  Region 2 radius =  21.0000      Number of ions =   2258

  Number of symmetry inequivalent region 2a ions =   1210

  Region 2a mode = 4 : screened electrostatics due to region 1 
                       neglect correction to region 1 forces from 2a
                       region 2a displacements based on defects only

  Region 2a ions will only interact with defects in region 1

  Vacancies:

--------------------------------------------------------------------------------
    Specification type     Symbol/Number         x          y          z
--------------------------------------------------------------------------------
    Fractional                               0.500000   0.500000   0.000000
    Fractional                               0.500000   0.000000   0.500000
--------------------------------------------------------------------------------

  Interstitials:

--------------------------------------------------------------------------------
    Specification type     Symbol/Number         x          y          z
--------------------------------------------------------------------------------
    Atom/Fractional         Na               0.500000   0.230000   0.270000
--------------------------------------------------------------------------------


  Symmetry reduced region 1 (Relative to defect centre) :

--------------------------------------------------------------------------------
   No.   Atomic       x            y             z       Radius  Multiplicity   
         Label      (Angs)       (Angs)        (Angs)    (Angs)     
--------------------------------------------------------------------------------
     1  Na    c      0.0000       0.0000       0.0000    0.0000     1    Defect
     2  O     c      0.0000       1.2171 *     1.0368 *  0.0000     1          
     3  Cl    c      2.2539 *    -1.0368 *    -1.2171 *  0.0000     2          
     4  Na    c      2.2539 *     1.2171 *     1.0368 *  0.0000     2          
     5  O     c      0.0000      -3.2907 *     1.0368 *  0.0000     1          
     6  Na    c      0.0000       1.2171 *     3.2907 *  0.0000     1          
     7  Na    c      0.0000      -3.2907 *    -1.2171 *  0.0000     1          
     8  Na    c      0.0000      -1.0368 *    -3.4710 *  0.0000     1          
     9  Na    c      0.0000       3.4710 *     1.0368 *  0.0000     1          
    10  O     c      0.0000       1.2171 *    -3.4710 *  0.0000     1          
    11  Na    c      2.2539 *    -3.2907 *     1.0368 *  0.0000     2          
    12  Cl    c      2.2539 *    -1.0368 *     3.2907 *  0.0000     2          
    13  Cl    c      2.2539 *     3.4710 *    -1.2171 *  0.0000     2          
    14  Na    c      2.2539 *     1.2171 *    -3.4710 *  0.0000     2          
    15  Na    c      0.0000      -3.2907 *     3.2907 *  0.0000     1          
    16  Na    c     -4.5078 *    -1.0368 *     1.0368 *  0.0000     2          
    17  O     c     -4.5078 *     1.2171 *     1.0368 *  0.0000     2          
    18  O     c      0.0000      -3.2907 *    -3.4710 *  0.0000     1          
    19  Na    c     -4.5078 *     1.2171 *    -1.2171 *  0.0000     2          
    20  Na    c      0.0000       3.4710 *    -3.4710 *  0.0000     1          
    21  Cl    c      2.2539 *     3.4710 *     3.2907 *  0.0000     2          
    22  Na    c      2.2539 *    -3.2907 *    -3.4710 *  0.0000     2          
    23  Na    c      0.0000      -1.0368 *     5.5446 *  0.0000     1          
    24  Na    c      0.0000      -5.5446 *     1.0368 *  0.0000     1          
    25  O     c      0.0000       1.2171 *     5.5446 *  0.0000     1          
    26  O     c     -4.5078 *    -3.2907 *     1.0368 *  0.0000     2          
    27  Na    c     -4.5078 *     1.2171 *     3.2907 *  0.0000     2          
    28  Na    c     -4.5078 *    -3.2907 *    -1.2171 *  0.0000     2          
    29  Na    c     -4.5078 *    -1.0368 *    -3.4710 *  0.0000     2          
    30  Na    c     -4.5078 *     3.4710 *     1.0368 *  0.0000     2          
    31  O     c      0.0000       5.7249 *     1.0368 *  0.0000     1          
    32  O     c     -4.5078 *     1.2171 *    -3.4710 *  0.0000     2          
    33  Na    c      0.0000       1.2171 *    -5.7249 *  0.0000     1          
    34  Na    c      0.0000       5.7249 *    -1.2171 *  0.0000     1          
    35  Cl    c      2.2539 *    -5.5446 *    -1.2171 *  0.0000     2          
    36  Na    c      2.2539 *     1.2171 *     5.5446 *  0.0000     2          
    37  Cl    c      2.2539 *    -1.0368 *    -5.7249 *  0.0000     2          
    38  Na    c      2.2539 *     5.7249 *     1.0368 *  0.0000     2          
    39  O     c      0.0000      -3.2907 *     5.5446 *  0.0000     1          
    40  Na    c     -4.5078 *    -3.2907 *     3.2907 *  0.0000     2          
    41  Na    c      0.0000       3.4710 *     5.5446 *  0.0000     1          
    42  Na    c      0.0000      -5.5446 *    -3.4710 *  0.0000     1          
    43  O     c     -4.5078 *    -3.2907 *    -3.4710 *  0.0000     2          
    44  Na    c      0.0000       5.7249 *     3.2907 *  0.0000     1          
    45  Na    c      0.0000      -3.2907 *    -5.7249 *  0.0000     1          
    46  Na    c     -4.5078 *     3.4710 *    -3.4710 *  0.0000     2          
    47  O     c      0.0000       5.7249 *    -3.4710 *  0.0000     1          
    48  Cl    c      2.2539 *    -5.5446 *     3.2907 *  0.0000     2          
    49  Na    c      2.2539 *    -3.2907 *     5.5446 *  0.0000     2          
    50  Cl    c      6.7617 *    -1.0368 *    -1.2171 *  0.0000     2          
    51  Na    c      6.7617 *     1.2171 *     1.0368 *  0.0000     2          
    52  Cl    c      2.2539 *     3.4710 *    -5.7249 *  0.0000     2          
    53  Na    c      2.2539 *     5.7249 *    -3.4710 *  0.0000     2          
    54  Na    c     -4.5078 *    -1.0368 *     5.5446 *  0.0000     2          
    55  Na    c     -4.5078 *    -5.5446 *     1.0368 *  0.0000     2          
    56  O     c     -4.5078 *     1.2171 *     5.5446 *  0.0000     2          
    57  O     c      4.5078 *     5.7249 *     1.0368 *  0.0000     2          
    58  Na    c     -4.5078 *     1.2171 *    -5.7249 *  0.0000     2          
    59  Na    c      4.5078 *     5.7249 *    -1.2171 *  0.0000     2          
    60  Cl    c      6.7617 *    -1.0368 *     3.2907 *  0.0000     2          
    61  Na    c      6.7617 *    -3.2907 *     1.0368 *  0.0000     2          
    62  Cl    c      6.7617 *     3.4710 *    -1.2171 *  0.0000     2          
    63  Na    c      6.7617 *     1.2171 *    -3.4710 *  0.0000     2          
    64  Na    c      0.0000      -5.5446 *     5.5446 *  0.0000     1          
    65  O     c      4.5078 *    -3.2907 *     5.5446 *  0.0000     2          
    66  O     c      0.0000      -7.7985 *     1.0368 *  0.0000     1          
    67  Na    c      0.0000       1.2171 *     7.7985 *  0.0000     1          
    68  Na    c      0.0000      -7.7985 *    -1.2171 *  0.0000     1          
    69  Na    c     -4.5078 *     3.4710 *     5.5446 *  0.0000     2          
    70  Na    c     -4.5078 *    -5.5446 *    -3.4710 *  0.0000     2          
    71  O     c      0.0000       5.7249 *     5.5446 *  0.0000     1          
    72  Na    c     -4.5078 *    -3.2907 *    -5.7249 *  0.0000     2          
    73  Na    c      4.5078 *     5.7249 *     3.2907 *  0.0000     2          
    74  Na    c      0.0000      -1.0368 *    -7.9788 *  0.0000     1          
    75  Na    c      0.0000       7.9788 *     1.0368 *  0.0000     1          
    76  O     c      0.0000       1.2171 *    -7.9788 *  0.0000     1          
    77  O     c      4.5078 *     5.7249 *    -3.4710 *  0.0000     2          
    78  Na    c      0.0000       5.7249 *    -5.7249 *  0.0000     1          
    79  Cl    c      2.2539 *    -1.0368 *     7.7985 *  0.0000     2          
    80  Na    c      2.2539 *    -7.7985 *     1.0368 *  0.0000     2          
    81  Cl    c      2.2539 *    -5.5446 *    -5.7249 *  0.0000     2          
    82  Cl    c      6.7617 *     3.4710 *     3.2907 *  0.0000     2          
    83  Na    c      2.2539 *     5.7249 *     5.5446 *  0.0000     2          
    84  Na    c      6.7617 *    -3.2907 *    -3.4710 *  0.0000     2          
    85  Cl    c      2.2539 *     7.9788 *    -1.2171 *  0.0000     2          
    86  Na    c      2.2539 *     1.2171 *    -7.9788 *  0.0000     2          
    87  Na    c      0.0000      -3.2907 *     7.7985 *  0.0000     1          
    88  Na    c      0.0000      -7.7985 *     3.2907 *  0.0000     1          
    89  O     c      0.0000      -7.7985 *    -3.4710 *  0.0000     1          
    90  O     c      0.0000      -3.2907 *    -7.9788 *  0.0000     1          
    91  Na    c      0.0000       3.4710 *    -7.9788 *  0.0000     1          
    92  Na    c      0.0000       7.9788 *    -3.4710 *  0.0000     1          
    93  Cl    c      2.2539 *     3.4710 *     7.7985 *  0.0000     2          
    94  Cl    c      6.7617 *    -5.5446 *    -1.2171 *  0.0000     2          
    95  Na    c      2.2539 *    -7.7985 *    -3.4710 *  0.0000     2          
    96  Na    c      6.7617 *     1.2171 *     5.5446 *  0.0000     2          
    97  Cl    c      2.2539 *     7.9788 *     3.2907 *  0.0000     2          
    98  Na    c      2.2539 *    -3.2907 *    -7.9788 *  0.0000     2          
    99  Na    c      6.7617 *     5.7249 *     1.0368 *  0.0000     2          
   100  Cl    c      6.7617 *    -1.0368 *    -5.7249 *  0.0000     2          
   101  Na    c     -4.5078 *    -5.5446 *     5.5446 *  0.0000     2          
   102  O     c     -4.5078 *    -7.7985 *     1.0368 *  0.0000     2          
   103  Na    c      4.5078 *     1.2171 *     7.7985 *  0.0000     2          
   104  Na    c     -4.5078 *    -7.7985 *    -1.2171 *  0.0000     2          
   105  Na    c      9.0156 *    -1.0368 *     1.0368 *  0.0000     2          
   106  O     c      4.5078 *     5.7249 *     5.5446 *  0.0000     2          
   107  O     c      9.0156 *     1.2171 *     1.0368 *  0.0000     2          
   108  Na    c      9.0156 *     1.2171 *    -1.2171 *  0.0000     2          
   109  Na    c      4.5078 *    -1.0368 *    -7.9788 *  0.0000     2          
   110  Na    c      4.5078 *     7.9788 *     1.0368 *  0.0000     2          
   111  O     c     -4.5078 *     1.2171 *    -7.9788 *  0.0000     2          
   112  Na    c      4.5078 *     5.7249 *    -5.7249 *  0.0000     2          
   113  Cl    c      6.7617 *    -5.5446 *     3.2907 *  0.0000     2          
   114  Na    c      6.7617 *    -3.2907 *     5.5446 *  0.0000     2          
   115  Cl    c      6.7617 *     3.4710 *    -5.7249 *  0.0000     2          
   116  Na    c      6.7617 *     5.7249 *    -3.4710 *  0.0000     2          
   117  O     c      0.0000      -7.7985 *     5.5446 *  0.0000     1          
   118  Na    c      4.5078 *    -3.2907 *     7.7985 *  0.0000     2          
   119  Na    c      4.5078 *    -7.7985 *     3.2907 *  0.0000     2          
   120  O     c      9.0156 *    -3.2907 *     1.0368 *  0.0000     2          
   121  O     c     -4.5078 *    -7.7985 *    -3.4710 *  0.0000     2          
   122  Na    c      0.0000       5.7249 *     7.7985 *  0.0000     1          
   123  Na    c      9.0156 *     1.2171 *     3.2907 *  0.0000     2          
   124  Na    c      9.0156 *    -3.2907 *    -1.2171 *  0.0000     2          
   125  Na    c      0.0000      -7.7985 *    -5.7249 *  0.0000     1          
   126  Na    c      0.0000       7.9788 *     5.5446 *  0.0000     1          
   127  Na    c      0.0000      -5.5446 *    -7.9788 *  0.0000     1          
   128  Na    c      9.0156 *    -1.0368 *    -3.4710 *  0.0000     2          
   129  Na    c      9.0156 *     3.4710 *     1.0368 *  0.0000     2          
   130  O     c     -4.5078 *    -3.2907 *    -7.9788 *  0.0000     2          
   131  O     c      9.0156 *     1.2171 *    -3.4710 *  0.0000     2          
   132  Na    c     -4.5078 *     3.4710 *    -7.9788 *  0.0000     2          
   133  Na    c      4.5078 *     7.9788 *    -3.4710 *  0.0000     2          
   134  O     c      0.0000       5.7249 *    -7.9788 *  0.0000     1          
   135  Cl    c      2.2539 *    -5.5446 *     7.7985 *  0.0000     2          
   136  Na    c      2.2539 *    -7.7985 *     5.5446 *  0.0000     2          
   137  Cl    c      2.2539 *     7.9788 *    -5.7249 *  0.0000     2          
   138  Na    c      2.2539 *     5.7249 *    -7.9788 *  0.0000     2          
   139  Na    c      0.0000      -1.0368 *    10.0524 *  0.0000     1          
   140  Na    c      0.0000     -10.0524 *     1.0368 *  0.0000     1          
   141  O     c      0.0000       1.2171 *    10.0524 *  0.0000     1          
   142  Na    c      9.0156 *    -3.2907 *     3.2907 *  0.0000     2          
   143  O     c      9.0156 *    -3.2907 *    -3.4710 *  0.0000     2          
   144  Na    c      9.0156 *     3.4710 *    -3.4710 *  0.0000     2          
   145  O     c      0.0000      10.2327 *     1.0368 *  0.0000     1          
   146  Na    c      0.0000       1.2171 *   -10.2327 *  0.0000     1          
   147  Na    c      0.0000      10.2327 *    -1.2171 *  0.0000     1          
   148  Cl    c      2.2539 *   -10.0524 *    -1.2171 *  0.0000     2          
   149  Cl    c      6.7617 *    -1.0368 *     7.7985 *  0.0000     2          
   150  Na    c      2.2539 *     1.2171 *    10.0524 *  0.0000     2          
   151  Na    c      6.7617 *    -7.7985 *     1.0368 *  0.0000     2          
   152  Cl    c      6.7617 *    -5.5446 *    -5.7249 *  0.0000     2          
   153  Na    c      6.7617 *     5.7249 *     5.5446 *  0.0000     2          
   154  Cl    c      6.7617 *     7.9788 *    -1.2171 *  0.0000     2          
   155  Na    c      6.7617 *     1.2171 *    -7.9788 *  0.0000     2          
   156  Cl    c      2.2539 *    -1.0368 *   -10.2327 *  0.0000     2          
   157  Na    c      2.2539 *    10.2327 *     1.0368 *  0.0000     2          
   158  O     c      0.0000      -3.2907 *    10.0524 *  0.0000     1          
   159  O     c     -4.5078 *    -7.7985 *     5.5446 *  0.0000     2          
   160  Na    c      9.0156 *    -1.0368 *     5.5446 *  0.0000     2          
   161  Na    c      9.0156 *    -5.5446 *     1.0368 *  0.0000     2          
   162  Na    c      0.0000       3.4710 *    10.0524 *  0.0000     1          
   163  Na    c      0.0000     -10.0524 *    -3.4710 *  0.0000     1          
   164  O     c      9.0156 *     1.2171 *     5.5446 *  0.0000     2          
   165  Na    c      4.5078 *     5.7249 *     7.7985 *  0.0000     2          
   166  Na    c      4.5078 *    -7.7985 *    -5.7249 *  0.0000     2          
   167  Na    c     -4.5078 *    -5.5446 *    -7.9788 *  0.0000     2          
   168  Na    c      4.5078 *     7.9788 *     5.5446 *  0.0000     2          
   169  O     c      9.0156 *     5.7249 *     1.0368 *  0.0000     2          
   170  Na    c      9.0156 *     1.2171 *    -5.7249 *  0.0000     2          
   171  Na    c      9.0156 *     5.7249 *    -1.2171 *  0.0000     2          
   172  Na    c      0.0000      10.2327 *     3.2907 *  0.0000     1          
   173  Na    c      0.0000      -3.2907 *   -10.2327 *  0.0000     1          
   174  O     c      4.5078 *     5.7249 *    -7.9788 *  0.0000     2          
   175  O     c      0.0000      10.2327 *    -3.4710 *  0.0000     1          
   176  Cl    c      2.2539 *   -10.0524 *     3.2907 *  0.0000     2          
   177  Na    c      2.2539 *    -3.2907 *    10.0524 *  0.0000     2          
   178  Cl    c      6.7617 *     3.4710 *     7.7985 *  0.0000     2          
   179  Na    c      6.7617 *    -7.7985 *    -3.4710 *  0.0000     2          
   180  Na    c      6.7617 *    -3.2907 *    -7.9788 *  0.0000     2          
   181  Cl    c      6.7617 *     7.9788 *     3.2907 *  0.0000     2          
   182  Na    c      0.0000      -7.7985 *     7.7985 *  0.0000     1          
   183  Cl    c      2.2539 *     3.4710 *   -10.2327 *  0.0000     2          
   184  Na    c      2.2539 *    10.2327 *    -3.4710 *  0.0000     2          
   185  Na    c      4.5078 *    -1.0368 *    10.0524 *  0.0000     2          
   186  Na    c     -4.5078 *   -10.0524 *     1.0368 *  0.0000     2          
   187  O     c      9.0156 *    -3.2907 *     5.5446 *  0.0000     2          
   188  O     c      4.5078 *     1.2171 *    10.0524 *  0.0000     2          
   189  Na    c      9.0156 *     3.4710 *     5.5446 *  0.0000     2          
   190  Na    c      9.0156 *    -5.5446 *    -3.4710 *  0.0000     2          
   191  O     c      0.0000      -7.7985 *    -7.9788 *  0.0000     1          
   192  Na    c      9.0156 *     5.7249 *     3.2907 *  0.0000     2          
   193  Na    c      9.0156 *    -3.2907 *    -5.7249 *  0.0000     2          
   194  O     c      9.0156 *     5.7249 *    -3.4710 *  0.0000     2          
   195  O     c     -4.5078 *    10.2327 *     1.0368 *  0.0000     2          
   196  Na    c     -4.5078 *     1.2171 *   -10.2327 *  0.0000     2          
   197  Na    c     -4.5078 *    10.2327 *    -1.2171 *  0.0000     2          
   198  Na    c      0.0000       7.9788 *    -7.9788 *  0.0000     1          
   199  Cl    c     11.2695 *    -1.0368 *    -1.2171 *  0.0000     2          
   200  Na    c     11.2695 *     1.2171 *     1.0368 *  0.0000     2          
   201  Cl    c      2.2539 *     7.9788 *     7.7985 *  0.0000     2          
   202  Na    c      2.2539 *    -7.7985 *    -7.9788 *  0.0000     2          
   203  Na    c      0.0000      -5.5446 *    10.0524 *  0.0000     1          
   204  Na    c      0.0000     -10.0524 *     5.5446 *  0.0000     1          
   205  O     c     -4.5078 *    -3.2907 *    10.0524 *  0.0000     2          
   206  Na    c     -4.5078 *     3.4710 *    10.0524 *  0.0000     2          
   207  Na    c     -4.5078 *   -10.0524 *    -3.4710 *  0.0000     2          
   208  O     c      0.0000       5.7249 *    10.0524 *  0.0000     1          
   209  O     c      0.0000      10.2327 *     5.5446 *  0.0000     1          
   210  Na    c      4.5078 *    10.2327 *     3.2907 *  0.0000     2          
   211  Na    c      4.5078 *    -3.2907 *   -10.2327 *  0.0000     2          
   212  O     c      4.5078 *    10.2327 *    -3.4710 *  0.0000     2          
   213  Cl    c      6.7617 *    -5.5446 *     7.7985 *  0.0000     2          
   214  Na    c      6.7617 *    -7.7985 *     5.5446 *  0.0000     2          
   215  Na    c      0.0000       5.7249 *   -10.2327 *  0.0000     1          
   216  Na    c      0.0000      10.2327 *    -5.7249 *  0.0000     1          
   217  Cl    c     11.2695 *    -1.0368 *     3.2907 *  0.0000     2          
   218  Na    c     11.2695 *    -3.2907 *     1.0368 *  0.0000     2          
   219  Cl    c      2.2539 *   -10.0524 *    -5.7249 *  0.0000     2          
   220  Na    c      2.2539 *     5.7249 *    10.0524 *  0.0000     2          
   221  Cl    c     11.2695 *     3.4710 *    -1.2171 *  0.0000     2          
   222  Na    c     11.2695 *     1.2171 *    -3.4710 *  0.0000     2          
   223  Cl    c      2.2539 *    -5.5446 *   -10.2327 *  0.0000     2          
   224  Na    c      2.2539 *    10.2327 *     5.5446 *  0.0000     2          
   225  Na    c      4.5078 *    -7.7985 *     7.7985 *  0.0000     2          
   226  Na    c      6.7617 *     5.7249 *    -7.9788 *  0.0000     2          
   227  Cl    c      6.7617 *     7.9788 *    -5.7249 *  0.0000     2          
   228  Na    c      9.0156 *    -5.5446 *     5.5446 *  0.0000     2          
   229  O     c      9.0156 *    -7.7985 *     1.0368 *  0.0000     2          
   230  Na    c      9.0156 *     1.2171 *     7.7985 *  0.0000     2          
   231  Na    c      9.0156 *    -7.7985 *    -1.2171 *  0.0000     2          
   232  O     c      9.0156 *     5.7249 *     5.5446 *  0.0000     2          
   233  O     c     -4.5078 *    -7.7985 *    -7.9788 *  0.0000     2          
   234  Na    c      9.0156 *    -1.0368 *    -7.9788 *  0.0000     2          
   235  Na    c      9.0156 *     7.9788 *     1.0368 *  0.0000     2          
   236  O     c      9.0156 *     1.2171 *    -7.9788 *  0.0000     2          
   237  Na    c      9.0156 *     5.7249 *    -5.7249 *  0.0000     2          
   238  Na    c      4.5078 *     7.9788 *    -7.9788 *  0.0000     2          
   239  Cl    c      6.7617 *   -10.0524 *    -1.2171 *  0.0000     2          
   240  Na    c      6.7617 *     1.2171 *    10.0524 *  0.0000     2          
   241  Cl    c     11.2695 *     3.4710 *     3.2907 *  0.0000     2          
   242  Na    c     11.2695 *    -3.2907 *    -3.4710 *  0.0000     2          
   243  Cl    c      6.7617 *    -1.0368 *   -10.2327 *  0.0000     2          
   244  Na    c      6.7617 *    10.2327 *     1.0368 *  0.0000     2          
   245  Na    c      4.5078 *    -5.5446 *    10.0524 *  0.0000     2          
   246  Na    c      4.5078 *   -10.0524 *     5.5446 *  0.0000     2          
   247  O     c      0.0000     -12.3063 *     1.0368 *  0.0000     1          
   248  Na    c      9.0156 *    -3.2907 *     7.7985 *  0.0000     2          
   249  Na    c      0.0000     -12.3063 *    -1.2171 *  0.0000     1          
   250  Na    c      9.0156 *    -7.7985 *     3.2907 *  0.0000     2          
   251  Na    c      0.0000       1.2171 *    12.3063 *  0.0000     1          
   252  O     c      9.0156 *    -7.7985 *    -3.4710 *  0.0000     2          
   253  O     c      4.5078 *     5.7249 *    10.0524 *  0.0000     2          
   254  O     c      9.0156 *    -3.2907 *    -7.9788 *  0.0000     2          
   255  O     c      4.5078 *    10.2327 *     5.5446 *  0.0000     2          
   256  Na    c      0.0000      -1.0368 *   -12.4866 *  0.0000     1          
   257  Na    c      0.0000      12.4866 *     1.0368 *  0.0000     1          
   258  Na    c      9.0156 *     3.4710 *    -7.9788 *  0.0000     2          
   259  Na    c      9.0156 *     7.9788 *    -3.4710 *  0.0000     2          
   260  O     c      0.0000       1.2171 *   -12.4866 *  0.0000     1          
   261  Na    c      2.2539 *   -12.3063 *     1.0368 *  0.0000     2          
   262  Cl    c      2.2539 *    -1.0368 *    12.3063 *  0.0000     2          
   263  Cl    c      6.7617 *   -10.0524 *     3.2907 *  0.0000     2          
   264  Na    c      6.7617 *    -3.2907 *    10.0524 *  0.0000     2          
   265  Na    c      4.5078 *     5.7249 *   -10.2327 *  0.0000     2          
   266  Na    c      4.5078 *    10.2327 *    -5.7249 *  0.0000     2          
   267  Cl    c     11.2695 *    -5.5446 *    -1.2171 *  0.0000     2          
   268  Na    c     11.2695 *     1.2171 *     5.5446 *  0.0000     2          
   269  Cl    c     11.2695 *    -1.0368 *    -5.7249 *  0.0000     2          
   270  Na    c     11.2695 *     5.7249 *     1.0368 *  0.0000     2          
   271  O     c      0.0000      -7.7985 *    10.0524 *  0.0000     1          
   272  Na    c      0.0000     -12.3063 *     3.2907 *  0.0000     1          
   273  Na    c      0.0000      -3.2907 *    12.3063 *  0.0000     1          
   274  Cl    c      2.2539 *    12.4866 *    -1.2171 *  0.0000     2          
   275  Na    c      2.2539 *     1.2171 *   -12.4866 *  0.0000     2          
   276  Cl    c      6.7617 *     3.4710 *   -10.2327 *  0.0000     2          
   277  Na    c      6.7617 *    10.2327 *    -3.4710 *  0.0000     2          
   278  O     c      0.0000     -12.3063 *    -3.4710 *  0.0000     1          
   279  Na    c      0.0000       7.9788 *    10.0524 *  0.0000     1          
   280  Na    c      0.0000     -10.0524 *    -7.9788 *  0.0000     1          
   281  Na    c      0.0000      10.2327 *     7.7985 *  0.0000     1          
   282  Na    c      0.0000      -7.7985 *   -10.2327 *  0.0000     1          
   283  O     c      0.0000      -3.2907 *   -12.4866 *  0.0000     1          
   284  Cl    c      2.2539 *   -10.0524 *     7.7985 *  0.0000     2          
   285  Na    c      2.2539 *    -7.7985 *    10.0524 *  0.0000     2          
   286  Na    c      0.0000       3.4710 *   -12.4866 *  0.0000     1          
   287  Na    c      0.0000      12.4866 *    -3.4710 *  0.0000     1          
   288  O     c      0.0000      10.2327 *    -7.9788 *  0.0000     1          
   289  Cl    c     11.2695 *    -5.5446 *     3.2907 *  0.0000     2          
   290  Na    c     11.2695 *    -3.2907 *     5.5446 *  0.0000     2          
   291  Na    c      2.2539 *   -12.3063 *    -3.4710 *  0.0000     2          
   292  Cl    c      2.2539 *     3.4710 *    12.3063 *  0.0000     2          
   293  O     s      0.0000       1.2171 *     1.0368 *  0.0000     1          
   294  Cl    s      2.2539 *    -1.0368 *    -1.2171 *  0.0000     2          
   295  O     s      0.0000      -3.2907 *     1.0368 *  0.0000     1          
   296  O     s      0.0000       1.2171 *    -3.4710 *  0.0000     1          
   297  Cl    s      2.2539 *    -1.0368 *     3.2907 *  0.0000     2          
   298  Cl    s      2.2539 *     3.4710 *    -1.2171 *  0.0000     2          
   299  O     s     -4.5078 *     1.2171 *     1.0368 *  0.0000     2          
   300  O     s      0.0000      -3.2907 *    -3.4710 *  0.0000     1          
   301  Cl    s      2.2539 *     3.4710 *     3.2907 *  0.0000     2          
   302  O     s      0.0000       1.2171 *     5.5446 *  0.0000     1          
   303  O     s     -4.5078 *    -3.2907 *     1.0368 *  0.0000     2          
   304  O     s      0.0000       5.7249 *     1.0368 *  0.0000     1          
   305  O     s     -4.5078 *     1.2171 *    -3.4710 *  0.0000     2          
   306  Cl    s      2.2539 *    -5.5446 *    -1.2171 *  0.0000     2          
   307  Cl    s      2.2539 *    -1.0368 *    -5.7249 *  0.0000     2          
   308  O     s      0.0000      -3.2907 *     5.5446 *  0.0000     1          
   309  O     s     -4.5078 *    -3.2907 *    -3.4710 *  0.0000     2          
   310  O     s      0.0000       5.7249 *    -3.4710 *  0.0000     1          
   311  Cl    s      2.2539 *    -5.5446 *     3.2907 *  0.0000     2          
   312  Cl    s      6.7617 *    -1.0368 *    -1.2171 *  0.0000     2          
   313  Cl    s      2.2539 *     3.4710 *    -5.7249 *  0.0000     2          
   314  O     s     -4.5078 *     1.2171 *     5.5446 *  0.0000     2          
   315  O     s      4.5078 *     5.7249 *     1.0368 *  0.0000     2          
   316  Cl    s      6.7617 *    -1.0368 *     3.2907 *  0.0000     2          
   317  Cl    s      6.7617 *     3.4710 *    -1.2171 *  0.0000     2          
   318  O     s      4.5078 *    -3.2907 *     5.5446 *  0.0000     2          
   319  O     s      0.0000      -7.7985 *     1.0368 *  0.0000     1          
   320  O     s      0.0000       5.7249 *     5.5446 *  0.0000     1          
   321  O     s      0.0000       1.2171 *    -7.9788 *  0.0000     1          
   322  O     s      4.5078 *     5.7249 *    -3.4710 *  0.0000     2          
   323  Cl    s      2.2539 *    -1.0368 *     7.7985 *  0.0000     2          
   324  Cl    s      2.2539 *    -5.5446 *    -5.7249 *  0.0000     2          
   325  Cl    s      6.7617 *     3.4710 *     3.2907 *  0.0000     2          
   326  Cl    s      2.2539 *     7.9788 *    -1.2171 *  0.0000     2          
   327  O     s      0.0000      -7.7985 *    -3.4710 *  0.0000     1          
   328  O     s      0.0000      -3.2907 *    -7.9788 *  0.0000     1          
   329  Cl    s      2.2539 *     3.4710 *     7.7985 *  0.0000     2          
   330  Cl    s      6.7617 *    -5.5446 *    -1.2171 *  0.0000     2          
   331  Cl    s      2.2539 *     7.9788 *     3.2907 *  0.0000     2          
   332  Cl    s      6.7617 *    -1.0368 *    -5.7249 *  0.0000     2          
   333  O     s     -4.5078 *    -7.7985 *     1.0368 *  0.0000     2          
   334  O     s      4.5078 *     5.7249 *     5.5446 *  0.0000     2          
   335  O     s      9.0156 *     1.2171 *     1.0368 *  0.0000     2          
   336  O     s     -4.5078 *     1.2171 *    -7.9788 *  0.0000     2          
   337  Cl    s      6.7617 *    -5.5446 *     3.2907 *  0.0000     2          
   338  Cl    s      6.7617 *     3.4710 *    -5.7249 *  0.0000     2          
   339  O     s      0.0000      -7.7985 *     5.5446 *  0.0000     1          
   340  O     s      9.0156 *    -3.2907 *     1.0368 *  0.0000     2          
   341  O     s     -4.5078 *    -7.7985 *    -3.4710 *  0.0000     2          
   342  O     s     -4.5078 *    -3.2907 *    -7.9788 *  0.0000     2          
   343  O     s      9.0156 *     1.2171 *    -3.4710 *  0.0000     2          
   344  O     s      0.0000       5.7249 *    -7.9788 *  0.0000     1          
   345  Cl    s      2.2539 *    -5.5446 *     7.7985 *  0.0000     2          
   346  Cl    s      2.2539 *     7.9788 *    -5.7249 *  0.0000     2          
   347  O     s      0.0000       1.2171 *    10.0524 *  0.0000     1          
   348  O     s      9.0156 *    -3.2907 *    -3.4710 *  0.0000     2          
   349  O     s      0.0000      10.2327 *     1.0368 *  0.0000     1          
   350  Cl    s      2.2539 *   -10.0524 *    -1.2171 *  0.0000     2          
   351  Cl    s      6.7617 *    -1.0368 *     7.7985 *  0.0000     2          
   352  Cl    s      6.7617 *    -5.5446 *    -5.7249 *  0.0000     2          
   353  Cl    s      6.7617 *     7.9788 *    -1.2171 *  0.0000     2          
   354  Cl    s      2.2539 *    -1.0368 *   -10.2327 *  0.0000     2          
   355  O     s      0.0000      -3.2907 *    10.0524 *  0.0000     1          
   356  O     s     -4.5078 *    -7.7985 *     5.5446 *  0.0000     2          
   357  O     s      9.0156 *     1.2171 *     5.5446 *  0.0000     2          
   358  O     s      9.0156 *     5.7249 *     1.0368 *  0.0000     2          
   359  O     s      4.5078 *     5.7249 *    -7.9788 *  0.0000     2          
   360  O     s      0.0000      10.2327 *    -3.4710 *  0.0000     1          
   361  Cl    s      2.2539 *   -10.0524 *     3.2907 *  0.0000     2          
   362  Cl    s      6.7617 *     3.4710 *     7.7985 *  0.0000     2          
   363  Cl    s      6.7617 *     7.9788 *     3.2907 *  0.0000     2          
   364  Cl    s      2.2539 *     3.4710 *   -10.2327 *  0.0000     2          
   365  O     s      9.0156 *    -3.2907 *     5.5446 *  0.0000     2          
   366  O     s      4.5078 *     1.2171 *    10.0524 *  0.0000     2          
   367  O     s      0.0000      -7.7985 *    -7.9788 *  0.0000     1          
   368  O     s      9.0156 *     5.7249 *    -3.4710 *  0.0000     2          
   369  O     s     -4.5078 *    10.2327 *     1.0368 *  0.0000     2          
   370  Cl    s     11.2695 *    -1.0368 *    -1.2171 *  0.0000     2          
   371  Cl    s      2.2539 *     7.9788 *     7.7985 *  0.0000     2          
   372  O     s     -4.5078 *    -3.2907 *    10.0524 *  0.0000     2          
   373  O     s      0.0000       5.7249 *    10.0524 *  0.0000     1          
   374  O     s      0.0000      10.2327 *     5.5446 *  0.0000     1          
   375  O     s      4.5078 *    10.2327 *    -3.4710 *  0.0000     2          
   376  Cl    s      6.7617 *    -5.5446 *     7.7985 *  0.0000     2          
   377  Cl    s     11.2695 *    -1.0368 *     3.2907 *  0.0000     2          
   378  Cl    s      2.2539 *   -10.0524 *    -5.7249 *  0.0000     2          
   379  Cl    s     11.2695 *     3.4710 *    -1.2171 *  0.0000     2          
   380  Cl    s      2.2539 *    -5.5446 *   -10.2327 *  0.0000     2          
   381  Cl    s      6.7617 *     7.9788 *    -5.7249 *  0.0000     2          
   382  O     s      9.0156 *    -7.7985 *     1.0368 *  0.0000     2          
   383  O     s      9.0156 *     5.7249 *     5.5446 *  0.0000     2          
   384  O     s     -4.5078 *    -7.7985 *    -7.9788 *  0.0000     2          
   385  O     s      9.0156 *     1.2171 *    -7.9788 *  0.0000     2          
   386  Cl    s      6.7617 *   -10.0524 *    -1.2171 *  0.0000     2          
   387  Cl    s     11.2695 *     3.4710 *     3.2907 *  0.0000     2          
   388  Cl    s      6.7617 *    -1.0368 *   -10.2327 *  0.0000     2          
   389  O     s      0.0000     -12.3063 *     1.0368 *  0.0000     1          
   390  O     s      9.0156 *    -7.7985 *    -3.4710 *  0.0000     2          
   391  O     s      4.5078 *     5.7249 *    10.0524 *  0.0000     2          
   392  O     s      9.0156 *    -3.2907 *    -7.9788 *  0.0000     2          
   393  O     s      4.5078 *    10.2327 *     5.5446 *  0.0000     2          
   394  O     s      0.0000       1.2171 *   -12.4866 *  0.0000     1          
   395  Cl    s      2.2539 *    -1.0368 *    12.3063 *  0.0000     2          
   396  Cl    s      6.7617 *   -10.0524 *     3.2907 *  0.0000     2          
   397  Cl    s     11.2695 *    -5.5446 *    -1.2171 *  0.0000     2          
   398  Cl    s     11.2695 *    -1.0368 *    -5.7249 *  0.0000     2          
   399  O     s      0.0000      -7.7985 *    10.0524 *  0.0000     1          
   400  Cl    s      2.2539 *    12.4866 *    -1.2171 *  0.0000     2          
   401  Cl    s      6.7617 *     3.4710 *   -10.2327 *  0.0000     2          
   402  O     s      0.0000     -12.3063 *    -3.4710 *  0.0000     1          
   403  O     s      0.0000      -3.2907 *   -12.4866 *  0.0000     1          
   404  Cl    s      2.2539 *   -10.0524 *     7.7985 *  0.0000     2          
   405  O     s      0.0000      10.2327 *    -7.9788 *  0.0000     1          
   406  Cl    s     11.2695 *    -5.5446 *     3.2907 *  0.0000     2          
   407  Cl    s      2.2539 *     3.4710 *    12.3063 *  0.0000     2          
--------------------------------------------------------------------------------

  Components of defect energy : 

--------------------------------------------------------------------------------
  Region 1 - region 1                   =     10.37573234 eV
  Region 1 - region 2a (unrelaxed)      =      0.32656699 eV
  Region 1 - 2a (relaxed - correction)  =     -0.40139326 eV
  Region 1 (Total)                      =     10.30090608 eV
  Region 2a                             =      0.20063273 eV
  Region 2b                             =     -0.32757882 eV
--------------------------------------------------------------------------------
  Total defect energy                   =     10.17395999 eV
--------------------------------------------------------------------------------

  Largest displacement in region 2 =   0.0197 Angstroms


  Number of variables =     1108

  Maximum number of calculations  =        1000
  Maximum Hessian update interval =          10
  Maximum step size               =   1.0000000
  Maximum parameter tolerance     =   0.0000100
  Maximum function  tolerance     =   0.0000100
  Maximum gradient  tolerance     =   0.0010000

  Symmetry adapted optimisation

  Symmetry to be used for second derivatives

  Newton-Raphson optimiser to be used

  BFGS hessian update to be used

  Lower half triangular hessian to be used

  Start of defect optimisation :

  Cycle:      0 Defect Energy:  10.173960  Gnorm:     0.018811  CPU:    7.410
  ** Hessian calculated **
  Cycle:      1 Defect Energy:   8.612773  Gnorm:     0.010909  CPU:   20.081
  Cycle:      2 Defect Energy:   8.045346  Gnorm:     0.009923  CPU:   32.376
  Cycle:      3 Defect Energy:   7.776001  Gnorm:     0.008236  CPU:   44.497
  Cycle:      4 Defect Energy:   7.310062  Gnorm:     0.008493  CPU:   57.933
  Cycle:      5 Defect Energy:   6.849741  Gnorm:     0.005913  CPU:   72.156
  Cycle:      6 Defect Energy:   6.357269  Gnorm:     0.006596  CPU:   84.496
  Cycle:      7 Defect Energy:   5.933193  Gnorm:     0.006263  CPU:   93.417
  Cycle:      8 Defect Energy:   5.597623  Gnorm:     0.003737  CPU:  107.853
  Cycle:      9 Defect Energy:   5.469926  Gnorm:     0.003542  CPU:  117.952
  Cycle:     10 Defect Energy:   5.426945  Gnorm:     0.002631  CPU:  120.440
  ** Hessian calculated **
  Cycle:     11 Defect Energy:   5.399701  Gnorm:     0.001825  CPU:  126.603
  Cycle:     12 Defect Energy:   5.376495  Gnorm:     0.001592  CPU:  128.873
  Cycle:     13 Defect Energy:   5.348945  Gnorm:     0.001563  CPU:  131.315
  Cycle:     14 Defect Energy:   5.319806  Gnorm:     0.001533  CPU:  133.553
  Cycle:     15 Defect Energy:   5.296507  Gnorm:     0.001517  CPU:  135.785
  Cycle:     16 Defect Energy:   5.277303  Gnorm:     0.001412  CPU:  142.090
  Cycle:     17 Defect Energy:   5.260895  Gnorm:     0.001410  CPU:  144.781
  Cycle:     18 Defect Energy:   5.244669  Gnorm:     0.001351  CPU:  147.569
  Cycle:     19 Defect Energy:   5.227523  Gnorm:     0.001241  CPU:  150.181
  Cycle:     20 Defect Energy:   5.210516  Gnorm:     0.001205  CPU:  152.786
  ** Hessian calculated **
  Cycle:     21 Defect Energy:   5.206190  Gnorm:     0.001155  CPU:  158.985
  Cycle:     22 Defect Energy:   5.200086  Gnorm:     0.001141  CPU:  161.397
  Cycle:     23 Defect Energy:   5.191431  Gnorm:     0.001135  CPU:  163.667
  Cycle:     24 Defect Energy:   5.179379  Gnorm:     0.001110  CPU:  165.954
  Cycle:     25 Defect Energy:   5.163670  Gnorm:     0.001096  CPU:  168.272
  Cycle:     26 Defect Energy:   5.145517  Gnorm:     0.001090  CPU:  170.438
  Cycle:     27 Defect Energy:   5.134287  Gnorm:     0.001098  CPU:  172.350
  Cycle:     28 Defect Energy:   5.124433  Gnorm:     0.001088  CPU:  178.600
  Cycle:     29 Defect Energy:   5.114102  Gnorm:     0.001082  CPU:  181.350
  Cycle:     30 Defect Energy:   5.100729  Gnorm:     0.001126  CPU:  184.137
  ** Hessian calculated **
  Cycle:     31 Defect Energy:   5.052066  Gnorm:     0.000994  CPU:  190.623
  Cycle:     32 Defect Energy:   4.992955  Gnorm:     0.000781  CPU:  193.165
  Cycle:     33 Defect Energy:   4.968870  Gnorm:     0.000632  CPU:  195.546
  ** Hessian calculated **
  Cycle:     34 Defect Energy:   4.947045  Gnorm:     0.000464  CPU:  201.328
  ** Hessian calculated **
  Cycle:     35 Defect Energy:   4.945637  Gnorm:     0.000417  CPU:  206.975
  Cycle:     36 Defect Energy:   4.943879  Gnorm:     0.000404  CPU:  213.081
  Cycle:     37 Defect Energy:   4.941595  Gnorm:     0.000394  CPU:  215.805
  Cycle:     38 Defect Energy:   4.938694  Gnorm:     0.000384  CPU:  218.670
  Cycle:     39 Defect Energy:   4.936022  Gnorm:     0.000372  CPU:  221.354
  Cycle:     40 Defect Energy:   4.934053  Gnorm:     0.000361  CPU:  223.992
  Cycle:     41 Defect Energy:   4.932165  Gnorm:     0.000364  CPU:  226.499
  Cycle:     42 Defect Energy:   4.929881  Gnorm:     0.000356  CPU:  229.034
  Cycle:     43 Defect Energy:   4.926598  Gnorm:     0.000367  CPU:  231.449
  Cycle:     44 Defect Energy:   4.921381  Gnorm:     0.000386  CPU:  233.848
  ** Hessian calculated **
  Cycle:     45 Defect Energy:   4.919787  Gnorm:     0.000369  CPU:  239.544
  Cycle:     46 Defect Energy:   4.917485  Gnorm:     0.000364  CPU:  241.788
  Cycle:     47 Defect Energy:   4.914282  Gnorm:     0.000361  CPU:  243.992
  Cycle:     48 Defect Energy:   4.909704  Gnorm:     0.000357  CPU:  250.137
  Cycle:     49 Defect Energy:   4.903525  Gnorm:     0.000361  CPU:  253.008
  Cycle:     50 Defect Energy:   4.895143  Gnorm:     0.000382  CPU:  256.002
  Cycle:     51 Defect Energy:   4.884731  Gnorm:     0.000445  CPU:  258.705
  Cycle:     52 Defect Energy:   4.874237  Gnorm:     0.000518  CPU:  261.183
  Cycle:     53 Defect Energy:   4.866828  Gnorm:     0.000579  CPU:  263.699
  Cycle:     54 Defect Energy:   4.858778  Gnorm:     0.000646  CPU:  266.031
  ** Hessian calculated **
  Cycle:     55 Defect Energy:   4.852263  Gnorm:     0.000602  CPU:  271.821
  Cycle:     56 Defect Energy:   4.843422  Gnorm:     0.000591  CPU:  274.164
  Cycle:     57 Defect Energy:   4.831069  Gnorm:     0.000577  CPU:  276.371
  Cycle:     58 Defect Energy:   4.814763  Gnorm:     0.000562  CPU:  281.261
  Cycle:     59 Defect Energy:   4.793830  Gnorm:     0.000569  CPU:  285.450
  Cycle:     60 Defect Energy:   4.769543  Gnorm:     0.000622  CPU:  288.171
  Cycle:     61 Defect Energy:   4.747325  Gnorm:     0.000684  CPU:  290.965
  Cycle:     62 Defect Energy:   4.727689  Gnorm:     0.000767  CPU:  293.631
  Cycle:     63 Defect Energy:   4.713021  Gnorm:     0.000804  CPU:  296.082
  Cycle:     64 Defect Energy:   4.701212  Gnorm:     0.000856  CPU:  298.582
  ** Hessian calculated **
  Cycle:     65 Defect Energy:   4.695114  Gnorm:     0.000824  CPU:  304.404
  Cycle:     66 Defect Energy:   4.686761  Gnorm:     0.000818  CPU:  306.613
  Cycle:     67 Defect Energy:   4.675300  Gnorm:     0.000799  CPU:  309.043
  Cycle:     68 Defect Energy:   4.660547  Gnorm:     0.000784  CPU:  311.277
  Cycle:     69 Defect Energy:   4.644103  Gnorm:     0.000775  CPU:  313.371
  Cycle:     70 Defect Energy:   4.635137  Gnorm:     0.000770  CPU:  319.707
  Cycle:     71 Defect Energy:   4.628884  Gnorm:     0.000776  CPU:  322.413
  Cycle:     72 Defect Energy:   4.623519  Gnorm:     0.000785  CPU:  325.329
  Cycle:     73 Defect Energy:   4.618249  Gnorm:     0.000790  CPU:  327.919
  Cycle:     74 Defect Energy:   4.612486  Gnorm:     0.000797  CPU:  330.670
  ** Hessian calculated **
  Cycle:     75 Defect Energy:   4.600814  Gnorm:     0.000770  CPU:  336.628
  Cycle:     76 Defect Energy:   4.571492  Gnorm:     0.000688  CPU:  338.988
  Cycle:     77 Defect Energy:   4.551483  Gnorm:     0.000626  CPU:  341.253
  Cycle:     78 Defect Energy:   4.525200  Gnorm:     0.000506  CPU:  343.581
  Cycle:     79 Defect Energy:   4.499320  Gnorm:     0.000340  CPU:  345.870
  Cycle:     80 Defect Energy:   4.488105  Gnorm:     0.000235  CPU:  348.107
  Cycle:     81 Defect Energy:   4.483118  Gnorm:     0.000151  CPU:  354.476
  Cycle:     82 Defect Energy:   4.480818  Gnorm:     0.000099  CPU:  356.717
  Cycle:     83 Defect Energy:   4.479808  Gnorm:     0.000060  CPU:  359.467
  Cycle:     84 Defect Energy:   4.479487  Gnorm:     0.000037  CPU:  362.204
  ** Hessian calculated **
  Cycle:     85 Defect Energy:   4.479371  Gnorm:     0.000026  CPU:  368.556
  Cycle:     86 Defect Energy:   4.479314  Gnorm:     0.000018  CPU:  370.986
  Cycle:     87 Defect Energy:   4.479287  Gnorm:     0.000013  CPU:  373.337
  Cycle:     88 Defect Energy:   4.479274  Gnorm:     0.000009  CPU:  375.639


  **** Optimisation achieved ****


  Final defect energy  =        4.47926779
  Final defect Gnorm   =        0.00000624

  Components of defect energy : 

--------------------------------------------------------------------------------
  Region 1 - region 1                   =      5.19360414 eV
  Region 1 - region 2a (unrelaxed)      =     -0.21697145 eV
  Region 1 - 2a (relaxed - correction)  =     -0.33928317 eV
  Region 1 (Total)                      =      4.63734952 eV
  Region 2a                             =      0.16947830 eV
  Region 2b                             =     -0.32756004 eV
--------------------------------------------------------------------------------
  Total defect energy                   =      4.47926779 eV
--------------------------------------------------------------------------------

  Largest displacement in region 2 =   0.0197 Angstroms

  Final coordinates of region 1 :

--------------------------------------------------------------------------------
   No.  Atomic        x           y           z          Radius      Charge
        Label       (Angs)      (Angs)      (Angs)       (Angs)       (e) 
--------------------------------------------------------------------------------
     1  Na    c     2.253894    1.036791    1.217103    0.000000    1.000000
     2  O     c     2.253894    2.600956    2.602421    0.000000    0.183000
     3  Cl    c     4.525804   -0.079405   -0.035808    0.000000    1.485000
     4  Cl    c    -0.018016   -0.079405   -0.035808    0.000000    1.485000
     5  Na    c     4.497231    2.696026    2.544604    0.000000    1.000000
     6  Na    c     0.010556    2.696026    2.544604    0.000000    1.000000
     7  O     c     2.253894   -2.237424    2.284296    0.000000    0.183000
     8  Na    c     2.253894    1.802494    4.624311    0.000000    1.000000
     9  Na    c     2.253894   -2.134246    0.048214    0.000000    1.000000
    10  Na    c     2.253894    0.067163   -2.416171    0.000000    1.000000
    11  Na    c     2.253894    4.630747    1.824065    0.000000    1.000000
    12  O     c     2.253894    2.296589   -2.304371    0.000000    0.183000
    13  Na    c     4.453800   -2.043625    2.295287    0.000000    1.000000
    14  Na    c     0.053987   -2.043625    2.295287    0.000000    1.000000
    15  Cl    c     4.599451    0.018714    4.668787    0.000000    1.485000
    16  Cl    c    -0.091663    0.018714    4.668787    0.000000    1.485000
    17  Cl    c     4.573517    4.608103    0.035269    0.000000    1.485000
    18  Cl    c    -0.065730    4.608103    0.035269    0.000000    1.485000
    19  Na    c     4.426579    2.239101   -1.880466    0.000000    1.000000
    20  Na    c     0.081209    2.239101   -1.880466    0.000000    1.000000
    21  Na    c     2.253894   -1.719269    4.463131    0.000000    1.000000
    22  Na    c    -2.092122    0.075563    1.889804    0.000000    1.000000
    23  Na    c     6.599910    0.075563    1.889804    0.000000    1.000000
    24  O     c    -2.241528    2.312904    2.312329    0.000000    0.183000
    25  O     c     6.749316    2.312904    2.312329    0.000000    0.183000
    26  O     c     2.253894   -2.220553   -2.248055    0.000000    0.183000
    27  Na    c    -2.277212    2.696340    0.059454    0.000000    1.000000
    28  Na    c     6.784999    2.696340    0.059454    0.000000    1.000000
    29  Na    c     2.253894    4.464947   -1.735926    0.000000    1.000000
    30  Cl    c     4.655556    4.739672    4.564050    0.000000    1.485000
    31  Cl    c    -0.147769    4.739672    4.564050    0.000000    1.485000
    32  Na    c     4.503140   -2.169633   -2.257527    0.000000    1.000000
    33  Na    c     0.004647   -2.169633   -2.257527    0.000000    1.000000
    34  Na    c     2.253894   -0.019222    7.271757    0.000000    1.000000
    35  Na    c     2.253894   -4.460662    2.454643    0.000000    1.000000
    36  O     c     2.253894    2.217610    6.852626    0.000000    0.183000
    37  O     c    -2.225968   -2.189413    2.257551    0.000000    0.183000
    38  O     c     6.733755   -2.189413    2.257551    0.000000    0.183000
    39  Na    c    -2.261434    1.886219    4.546258    0.000000    1.000000
    40  Na    c     6.769221    1.886219    4.546258    0.000000    1.000000
    41  Na    c    -2.147299   -2.610085    0.017600    0.000000    1.000000
    42  Na    c     6.655087   -2.610085    0.017600    0.000000    1.000000
    43  Na    c    -2.254219    0.016733   -1.854210    0.000000    1.000000
    44  Na    c     6.762006    0.016733   -1.854210    0.000000    1.000000
    45  Na    c    -2.458326    4.558950    2.651382    0.000000    1.000000
    46  Na    c     6.966113    4.558950    2.651382    0.000000    1.000000
    47  O     c     2.253894    6.852887    2.203114    0.000000    0.183000
    48  O     c    -2.208194    2.265814   -2.191648    0.000000    0.183000
    49  O     c     6.715981    2.265814   -2.191648    0.000000    0.183000
    50  Na    c     2.253894    2.634891   -4.492399    0.000000    1.000000
    51  Na    c     2.253894    7.236088   -0.028201    0.000000    1.000000
    52  Cl    c     4.495513   -4.552812   -0.071385    0.000000    1.485000
    53  Cl    c     0.012274   -4.552812   -0.071385    0.000000    1.485000
    54  Na    c     4.524285    2.130844    6.852449    0.000000    1.000000
    55  Na    c    -0.016498    2.130844    6.852449    0.000000    1.000000
    56  Cl    c     4.523184   -0.094122   -4.564692    0.000000    1.485000
    57  Cl    c    -0.015397   -0.094122   -4.564692    0.000000    1.485000
    58  Na    c     4.523355    6.713668    2.265112    0.000000    1.000000
    59  Na    c    -0.015568    6.713668    2.265112    0.000000    1.000000
    60  O     c     2.253894   -2.229282    6.738267    0.000000    0.183000
    61  Na    c    -2.302221   -1.860756    4.507748    0.000000    1.000000
    62  Na    c     6.810009   -1.860756    4.507748    0.000000    1.000000
    63  Na    c     2.253894    4.435100    6.391888    0.000000    1.000000
    64  Na    c     2.253894   -4.466598   -2.076726    0.000000    1.000000
    65  O     c    -2.257989   -2.234177   -2.232793    0.000000    0.183000
    66  O     c     6.765776   -2.234177   -2.232793    0.000000    0.183000
    67  Na    c     2.253894    6.614570    4.446509    0.000000    1.000000
    68  Na    c     2.253894   -2.481867   -4.496505    0.000000    1.000000
    69  Na    c    -2.174731    4.494307   -2.615905    0.000000    1.000000
    70  Na    c     6.682518    4.494307   -2.615905    0.000000    1.000000
    71  O     c     2.253894    6.743730   -2.246641    0.000000    0.183000
    72  Cl    c     4.548444   -4.585491    4.531163    0.000000    1.485000
    73  Cl    c    -0.040657   -4.585491    4.531163    0.000000    1.485000
    74  Na    c     4.514226   -2.164634    6.668831    0.000000    1.000000
    75  Na    c    -0.006438   -2.164634    6.668831    0.000000    1.000000
    76  Cl    c     9.013173    0.051928    0.044439    0.000000    1.485000
    77  Cl    c    -4.505385    0.051928    0.044439    0.000000    1.485000
    78  Na    c     9.007518    2.091847    2.286927    0.000000    1.000000
    79  Na    c    -4.499731    2.091847    2.286927    0.000000    1.000000
    80  Cl    c     4.560426    4.577762   -4.577771    0.000000    1.485000
    81  Cl    c    -0.052638    4.577762   -4.577771    0.000000    1.485000
    82  Na    c     4.507273    6.717821   -2.278146    0.000000    1.000000
    83  Na    c     0.000514    6.717821   -2.278146    0.000000    1.000000
    84  Na    c    -2.364324   -0.003086    7.117195    0.000000    1.000000
    85  Na    c     6.872112   -0.003086    7.117195    0.000000    1.000000
    86  Na    c    -2.243181   -4.450320    2.613373    0.000000    1.000000
    87  Na    c     6.750968   -4.450320    2.613373    0.000000    1.000000
    88  O     c    -2.273848    2.255410    6.784496    0.000000    0.183000
    89  O     c     6.781635    2.255410    6.784496    0.000000    0.183000
    90  O     c     6.790051    6.790606    2.254374    0.000000    0.183000
    91  O     c    -2.282264    6.790606    2.254374    0.000000    0.183000
    92  Na    c    -2.031610    1.930294   -4.449285    0.000000    1.000000
    93  Na    c     6.539397    1.930294   -4.449285    0.000000    1.000000
    94  Na    c     6.702513    6.442206    0.007954    0.000000    1.000000
    95  Na    c    -2.194726    6.442206    0.007954    0.000000    1.000000
    96  Cl    c     9.038378    0.033656    4.522479    0.000000    1.485000
    97  Cl    c    -4.530591    0.033656    4.522479    0.000000    1.485000
    98  Na    c     8.994428   -2.106666    2.153084    0.000000    1.000000
    99  Na    c    -4.486640   -2.106666    2.153084    0.000000    1.000000
   100  Cl    c     9.029218    4.563484    0.062378    0.000000    1.485000
   101  Cl    c    -4.521430    4.563484    0.062378    0.000000    1.485000
   102  Na    c     8.980778    2.250331   -2.319166    0.000000    1.000000
   103  Na    c    -4.472991    2.250331   -2.319166    0.000000    1.000000
   104  Na    c     2.253894   -4.473149    6.309395    0.000000    1.000000
   105  O     c     6.776501   -2.255002    6.755423    0.000000    0.183000
   106  O     c    -2.268714   -2.255002    6.755423    0.000000    0.183000
   107  O     c     2.253894   -6.752314    2.270868    0.000000    0.183000
   108  Na    c     2.253894    2.695299    9.044284    0.000000    1.000000
   109  Na    c     2.253894   -6.633629    0.021362    0.000000    1.000000
   110  Na    c    -2.178429    4.513734    6.480064    0.000000    1.000000
   111  Na    c     6.686216    4.513734    6.480064    0.000000    1.000000
   112  Na    c    -2.226930   -4.480227   -2.570155    0.000000    1.000000
   113  Na    c     6.734717   -4.480227   -2.570155    0.000000    1.000000
   114  O     c     2.253894    6.697401    6.716670    0.000000    0.183000
   115  Na    c    -2.253639   -1.923000   -4.490874    0.000000    1.000000
   116  Na    c     6.761426   -1.923000   -4.490874    0.000000    1.000000
   117  Na    c     6.756684    7.061217    4.511823    0.000000    1.000000
   118  Na    c    -2.248897    7.061217    4.511823    0.000000    1.000000
   119  Na    c     2.253894    0.016123   -6.401748    0.000000    1.000000
   120  Na    c     2.253894    9.054254    2.568306    0.000000    1.000000
   121  O     c     2.253894    2.262471   -6.763998    0.000000    0.183000
   122  O     c     6.770607    6.742656   -2.247791    0.000000    0.183000
   123  O     c    -2.262820    6.742656   -2.247791    0.000000    0.183000
   124  Na    c     2.253894    6.328027   -4.490082    0.000000    1.000000
[...]
    327 y         -6.761681     -6.730110     0.031570    Cartesian   -0.47
    327 z         -2.253894     -2.243843     0.010050    Cartesian   -0.45
    328 x          2.253894      2.253894     0.000000    Cartesian    0.00
    328 y         -2.253894     -2.235777     0.018116    Cartesian   -0.80
    328 z         -6.761681     -6.751509     0.010172    Cartesian   -0.15
    329 x          4.507787      4.548687     0.040900    Cartesian    0.91
    329 y          4.507787      4.508886     0.001099    Cartesian    0.02
    329 z          9.015574      9.097084     0.081509    Cartesian    0.90
    330 x          9.015574      9.041821     0.026246    Cartesian    0.29
    330 y         -4.507787     -4.511795    -0.004008    Cartesian    0.09
    330 z          0.000000      0.001066     0.001066    Cartesian    0.00
    331 x          4.507787      4.496498    -0.011289    Cartesian   -0.25
    331 y          9.015574      9.054781     0.039207    Cartesian    0.43
    331 z          4.507787      4.513260     0.005473    Cartesian    0.12
    332 x          9.015574      9.048062     0.032488    Cartesian    0.36
    332 y          0.000000      0.016146     0.016146    Cartesian    0.00
    332 z         -4.507787     -4.523665    -0.015878    Cartesian    0.35
    333 x         -2.253894     -2.258311    -0.004417    Cartesian    0.20
    333 y         -6.761681     -6.721054     0.040627    Cartesian   -0.60
    333 z          2.253894      2.256518     0.002624    Cartesian    0.12
    334 x          6.761681      6.781032     0.019351    Cartesian    0.29
    334 y          6.761681      6.769612     0.007932    Cartesian    0.12
    334 z          6.761681      6.769453     0.007772    Cartesian    0.11
    335 x         11.269468     11.265549    -0.003919    Cartesian   -0.03
    335 y          2.253894      2.248083    -0.005810    Cartesian   -0.26
    335 z          2.253894      2.245656    -0.008238    Cartesian   -0.37
    336 x         -2.253894     -2.250987     0.002906    Cartesian   -0.13
    336 y          2.253894      2.243628    -0.010266    Cartesian   -0.46
    336 z         -6.761681     -6.718848     0.042833    Cartesian   -0.63
    337 x          9.015574      9.042587     0.027012    Cartesian    0.30
    337 y         -4.507787     -4.535207    -0.027420    Cartesian    0.61
    337 z          4.507787      4.563561     0.055774    Cartesian    1.24
    338 x          9.015574      9.038999     0.023425    Cartesian    0.26
    338 y          4.507787      4.540479     0.032692    Cartesian    0.73
    338 z         -4.507787     -4.507582     0.000205    Cartesian   -0.00
    339 x          2.253894      2.253894     0.000000    Cartesian    0.00
    339 y         -6.761681     -6.735815     0.025866    Cartesian   -0.38
    339 z          6.761681      6.742612    -0.019068    Cartesian   -0.28
    340 x         11.269468     11.264161    -0.005307    Cartesian   -0.05
    340 y         -2.253894     -2.236525     0.017369    Cartesian   -0.77
    340 z          2.253894      2.241312    -0.012582    Cartesian   -0.56
    341 x         -2.253894     -2.258227    -0.004334    Cartesian    0.19
    341 y         -6.761681     -6.735020     0.026661    Cartesian   -0.39
    341 z         -2.253894     -2.252639     0.001254    Cartesian   -0.06
    342 x         -2.253894     -2.268209    -0.014315    Cartesian    0.64
    342 y         -2.253894     -2.243670     0.010224    Cartesian   -0.45
    342 z         -6.761681     -6.750209     0.011472    Cartesian   -0.17
    343 x         11.269468     11.253178    -0.016290    Cartesian   -0.14
    343 y          2.253894      2.253375    -0.000519    Cartesian   -0.02
    343 z         -2.253894     -2.237430     0.016464    Cartesian   -0.73
    344 x          2.253894      2.253894     0.000000    Cartesian    0.00
    344 y          6.761681      6.736848    -0.024833    Cartesian   -0.37
    344 z         -6.761681     -6.745917     0.015764    Cartesian   -0.23
    345 x          4.507787      4.538433     0.030646    Cartesian    0.68
    345 y         -4.507787     -4.539188    -0.031401    Cartesian    0.70
    345 z          9.015574      9.094725     0.079151    Cartesian    0.88
    346 x          4.507787      4.521348     0.013561    Cartesian    0.30
    346 y          9.015574      9.050394     0.034819    Cartesian    0.39
    346 z         -4.507787     -4.527576    -0.019789    Cartesian    0.44
    347 x          2.253894      2.253894     0.000000    Cartesian    0.00
    347 y          2.253894      2.252419    -0.001475    Cartesian   -0.07
    347 z         11.269468     11.260682    -0.008786    Cartesian   -0.08
    348 x         11.269468     11.267872    -0.001596    Cartesian   -0.01
    348 y         -2.253894     -2.246709     0.007185    Cartesian   -0.32
    348 z         -2.253894     -2.220950     0.032943    Cartesian   -1.46
    349 x          2.253894      2.253894     0.000000    Cartesian    0.00
    349 y         11.269468     11.279345     0.009876    Cartesian    0.09
    349 z          2.253894      2.244804    -0.009089    Cartesian   -0.40
    350 x          4.507787      4.527201     0.019414    Cartesian    0.43
    350 y         -9.015574     -9.079271    -0.063696    Cartesian    0.71
    350 z          0.000000      0.001164     0.001164    Cartesian    0.00
    351 x          9.015574      9.047356     0.031782    Cartesian    0.35
    351 y          0.000000     -0.001870    -0.001870    Cartesian    0.00
    351 z          9.015574      9.067670     0.052095    Cartesian    0.58
    352 x          9.015574      9.060768     0.045193    Cartesian    0.50
    352 y         -4.507787     -4.525726    -0.017939    Cartesian    0.40
    352 z         -4.507787     -4.516133    -0.008346    Cartesian    0.19
    353 x          9.015574      9.037590     0.022016    Cartesian    0.24
    353 y          9.015574      9.060122     0.044547    Cartesian    0.49
    353 z          0.000000      0.008091     0.008091    Cartesian    0.00
    354 x          4.507787      4.505361    -0.002427    Cartesian   -0.05
    354 y          0.000000      0.004105     0.004105    Cartesian    0.00
    354 z         -9.015574     -9.031647    -0.016072    Cartesian    0.18
    355 x          2.253894      2.253894     0.000000    Cartesian    0.00
    355 y         -2.253894     -2.255974    -0.002080    Cartesian    0.09
    355 z         11.269468     11.227109    -0.042359    Cartesian   -0.38
    356 x         -2.253894     -2.261243    -0.007349    Cartesian    0.33
    356 y         -6.761681     -6.756091     0.005590    Cartesian   -0.08
    356 z          6.761681      6.749349    -0.012332    Cartesian   -0.18
    357 x         11.269468     11.277642     0.008174    Cartesian    0.07
    357 y          2.253894      2.238502    -0.015392    Cartesian   -0.68
    357 z          6.761681      6.752105    -0.009576    Cartesian   -0.14
    358 x         11.269468     11.272970     0.003502    Cartesian    0.03
    358 y          6.761681      6.744773    -0.016908    Cartesian   -0.25
    358 z          2.253894      2.258022     0.004128    Cartesian    0.18
    359 x          6.761681      6.771359     0.009678    Cartesian    0.14
    359 y          6.761681      6.770162     0.008481    Cartesian    0.13
    359 z         -6.761681     -6.741205     0.020476    Cartesian   -0.30
    360 x          2.253894      2.253894     0.000000    Cartesian    0.00
    360 y         11.269468     11.236499    -0.032969    Cartesian   -0.29
    360 z         -2.253894     -2.262393    -0.008500    Cartesian    0.38
    361 x          4.507787      4.512520     0.004733    Cartesian    0.10
    361 y         -9.015574     -8.998341     0.017234    Cartesian   -0.19
    361 z          4.507787      4.509664     0.001877    Cartesian    0.04
    362 x          9.015574      9.042140     0.026566    Cartesian    0.29
    362 y          4.507787      4.504177    -0.003610    Cartesian   -0.08
    362 z          9.015574      9.063467     0.047893    Cartesian    0.53
    363 x          9.015574      9.084131     0.068557    Cartesian    0.76
    363 y          9.015574      9.039926     0.024351    Cartesian    0.27
    363 z          4.507787      4.513102     0.005315    Cartesian    0.12
    364 x          4.507787      4.549637     0.041850    Cartesian    0.93
    364 y          4.507787      4.494780    -0.013007    Cartesian   -0.29
    364 z         -9.015574     -9.058251    -0.042677    Cartesian    0.47
    365 x         11.269468     11.262867    -0.006601    Cartesian   -0.06
    365 y         -2.253894     -2.240109     0.013785    Cartesian   -0.61
    365 z          6.761681      6.751528    -0.010153    Cartesian   -0.15
    366 x          6.761681      6.763632     0.001951    Cartesian    0.03
    366 y          2.253894      2.263559     0.009666    Cartesian    0.43
    366 z         11.269468     11.269663     0.000195    Cartesian    0.00
    367 x          2.253894      2.253894     0.000000    Cartesian    0.00
    367 y         -6.761681     -6.737505     0.024176    Cartesian   -0.36
    367 z         -6.761681     -6.769558    -0.007877    Cartesian    0.12
    368 x         11.269468     11.271644     0.002176    Cartesian    0.02
    368 y          6.761681      6.727305    -0.034376    Cartesian   -0.51
    368 z         -2.253894     -2.251151     0.002743    Cartesian   -0.12
    369 x         -2.253894     -2.254847    -0.000953    Cartesian    0.04
    369 y         11.269468     11.270283     0.000815    Cartesian    0.01
    369 z          2.253894      2.239522    -0.014371    Cartesian   -0.64
    370 x         13.523362     13.577563     0.054202    Cartesian    0.40
    370 y          0.000000      0.006272     0.006272    Cartesian    0.00
    370 z          0.000000     -0.025108    -0.025108    Cartesian    0.00
    371 x          4.507787      4.531723     0.023936    Cartesian    0.53
    371 y          9.015574      9.046290     0.030716    Cartesian    0.34
    371 z          9.015574      9.028837     0.013263    Cartesian    0.15
    372 x         -2.253894     -2.249242     0.004652    Cartesian   -0.21
    372 y         -2.253894     -2.266613    -0.012720    Cartesian    0.56
    372 z         11.269468     11.259525    -0.009943    Cartesian   -0.09
    373 x          2.253894      2.253894     0.000000    Cartesian    0.00
    373 y          6.761681      6.737769    -0.023912    Cartesian   -0.35
    373 z         11.269468     11.261245    -0.008223    Cartesian   -0.07
    374 x          2.253894      2.253894     0.000000    Cartesian    0.00
    374 y         11.269468     11.261639    -0.007829    Cartesian   -0.07
    374 z          6.761681      6.749880    -0.011801    Cartesian   -0.17
    375 x          6.761681      6.772660     0.010979    Cartesian    0.16
    375 y         11.269468     11.259815    -0.009653    Cartesian   -0.09
    375 z         -2.253894     -2.235396     0.018497    Cartesian   -0.82
    376 x          9.015574      9.030386     0.014812    Cartesian    0.16
    376 y         -4.507787     -4.508984    -0.001197    Cartesian    0.03
    376 z          9.015574      9.051592     0.036017    Cartesian    0.40
    377 x         13.523362     13.572124     0.048762    Cartesian    0.36
    377 y          0.000000     -0.021026    -0.021026    Cartesian    0.00
    377 z          4.507787      4.519917     0.012130    Cartesian    0.27
    378 x          4.507787      4.530387     0.022600    Cartesian    0.50
    378 y         -9.015574     -9.027662    -0.012087    Cartesian    0.13
    378 z         -4.507787     -4.542187    -0.034400    Cartesian    0.76
    379 x         13.523362     13.582920     0.059558    Cartesian    0.44
    379 y          4.507787      4.494285    -0.013502    Cartesian   -0.30
    379 z          0.000000      0.002680     0.002680    Cartesian    0.00
    380 x          4.507787      4.543386     0.035599    Cartesian    0.79
    380 y         -4.507787     -4.520922    -0.013135    Cartesian    0.29
    380 z         -9.015574     -9.051329    -0.035754    Cartesian    0.40
    381 x          9.015574      9.072665     0.057091    Cartesian    0.63
    381 y          9.015574      9.042174     0.026600    Cartesian    0.30
    381 z         -4.507787     -4.519643    -0.011856    Cartesian    0.26
    382 x         11.269468     11.264278    -0.005190    Cartesian   -0.05
    382 y         -6.761681     -6.743194     0.018487    Cartesian   -0.27
    382 z          2.253894      2.264651     0.010757    Cartesian    0.48
    383 x         11.269468     11.281592     0.012124    Cartesian    0.11
    383 y          6.761681      6.762457     0.000776    Cartesian    0.01
    383 z          6.761681      6.751023    -0.010658    Cartesian   -0.16
    384 x         -2.253894     -2.258412    -0.004518    Cartesian    0.20
    384 y         -6.761681     -6.772146    -0.010466    Cartesian    0.15
    384 z         -6.761681     -6.742565     0.019116    Cartesian   -0.28
    385 x         11.269468     11.269617     0.000149    Cartesian    0.00
    385 y          2.253894      2.237372    -0.016522    Cartesian   -0.73
    385 z         -6.761681     -6.736746     0.024935    Cartesian   -0.37
    386 x          9.015574      8.982411    -0.033163    Cartesian   -0.37
    386 y         -9.015574     -9.070680    -0.055105    Cartesian    0.61
    386 z          0.000000     -0.000431    -0.000431    Cartesian    0.00
    387 x         13.523362     13.573190     0.049828    Cartesian    0.37
    387 y          4.507787      4.517141     0.009353    Cartesian    0.21
    387 z          4.507787      4.492658    -0.015130    Cartesian   -0.34
    388 x          9.015574      9.085638     0.070064    Cartesian    0.78
    388 y          0.000000     -0.005849    -0.005849    Cartesian    0.00
    388 z         -9.015574     -9.041581    -0.026006    Cartesian    0.29
    389 x          2.253894      2.253894     0.000000    Cartesian    0.00
    389 y        -11.269468    -11.260308     0.009160    Cartesian   -0.08
    389 z          2.253894      2.242403    -0.011490    Cartesian   -0.51
    390 x         11.269468     11.278342     0.008874    Cartesian    0.08
    390 y         -6.761681     -6.741358     0.020323    Cartesian   -0.30
    390 z         -2.253894     -2.256670    -0.002777    Cartesian    0.12
    391 x          6.761681      6.764161     0.002480    Cartesian    0.04
    391 y          6.761681      6.757124    -0.004556    Cartesian   -0.07
    391 z         11.269468     11.277617     0.008149    Cartesian    0.07
    392 x         11.269468     11.266748    -0.002720    Cartesian   -0.02
    392 y         -2.253894     -2.247539     0.006355    Cartesian   -0.28
    392 z         -6.761681     -6.760062     0.001619    Cartesian   -0.02
    393 x          6.761681      6.768353     0.006673    Cartesian    0.10
    393 y         11.269468     11.256651    -0.012817    Cartesian   -0.11
    393 z          6.761681      6.773011     0.011330    Cartesian    0.17
    394 x          2.253894      2.253894     0.000000    Cartesian    0.00
    394 y          2.253894      2.226953    -0.026941    Cartesian   -1.20
    394 z        -11.269468    -11.259367     0.010101    Cartesian   -0.09
    395 x          4.507787      4.458882    -0.048905    Cartesian   -1.08
    395 y          0.000000     -0.003046    -0.003046    Cartesian    0.00
    395 z         13.523362     13.595091     0.071730    Cartesian    0.53
    396 x          9.015574      9.090834     0.075260    Cartesian    0.83
    396 y         -9.015574     -9.029737    -0.014163    Cartesian    0.16
    396 z          4.507787      4.513401     0.005614    Cartesian    0.12
    397 x         13.523362     13.566502     0.043141    Cartesian    0.32
    397 y         -4.507787     -4.531267    -0.023480    Cartesian    0.52
    397 z          0.000000     -0.000659    -0.000659    Cartesian    0.00
    398 x         13.523362     13.565811     0.042449    Cartesian    0.31
    398 y          0.000000     -0.010324    -0.010324    Cartesian    0.00
    398 z         -4.507787     -4.497702     0.010085    Cartesian   -0.22
    399 x          2.253894      2.253894     0.000000    Cartesian    0.00
    399 y         -6.761681     -6.747094     0.014586    Cartesian   -0.22
    399 z         11.269468     11.268043    -0.001425    Cartesian   -0.01
    400 x          4.507787      4.529006     0.021218    Cartesian    0.47
    400 y         13.523362     13.590354     0.066992    Cartesian    0.50
    400 z          0.000000      0.002619     0.002619    Cartesian    0.00
    401 x          9.015574      8.984045    -0.031529    Cartesian   -0.35
    401 y          4.507787      4.523509     0.015721    Cartesian    0.35
    401 z         -9.015574     -9.074062    -0.058488    Cartesian    0.65
    402 x          2.253894      2.253894     0.000000    Cartesian    0.00
    402 y        -11.269468    -11.260424     0.009044    Cartesian   -0.08
    402 z         -2.253894     -2.263173    -0.009280    Cartesian    0.41
    403 x          2.253894      2.253894     0.000000    Cartesian    0.00
    403 y         -2.253894     -2.240661     0.013233    Cartesian   -0.59
    403 z        -11.269468    -11.280808    -0.011340    Cartesian    0.10
    404 x          4.507787      4.514290     0.006503    Cartesian    0.14
    404 y         -9.015574     -9.084835    -0.069261    Cartesian    0.77
    404 z          9.015574      9.014827    -0.000747    Cartesian   -0.01
    405 x          2.253894      2.253894     0.000000    Cartesian    0.00
    405 y         11.269468     11.283098     0.013630    Cartesian    0.12
    405 z         -6.761681     -6.746854     0.014827    Cartesian   -0.22
    406 x         13.523362     13.562740     0.039379    Cartesian    0.29
    406 y         -4.507787     -4.497387     0.010401    Cartesian   -0.23
    406 z          4.507787      4.511093     0.003306    Cartesian    0.07
    407 x          4.507787      4.536901     0.029113    Cartesian    0.65
    407 y          4.507787      4.540806     0.033019    Cartesian    0.73
    407 z         13.523362     13.547756     0.024394    Cartesian    0.18
--------------------------------------------------------------------------------


  Time to end of optimisation  =      377.9193 seconds


  Peak dynamic memory used =     151.58 MB 


  Timing analysis for GULP :

--------------------------------------------------------------------------------
  Task / Subroutine                                          Time (Seconds)
--------------------------------------------------------------------------------
  Calculation of reciprocal space energy and derivatives          0.0008
  Calculation of reciprocal space energy using symmetry           0.0012
  Calculation of real space energy and derivatives                0.0044
  Calculation of real space energy using symmetry                 0.0106
  Calculation for region 1 energy and derivatives (2-b)         138.1859
  Calculation for region 2a energy                              229.4571
  Calculation for region 2b energy                                0.0327
  Calculation and manipulation of Hessian matrix                  0.3068
  Calculation of matrix inversion                                 9.1267
  Symmetry generation of equivalent positions                     0.0051
--------------------------------------------------------------------------------
  Total CPU time                                                377.9194
--------------------------------------------------------------------------------


  Dump file written as Na3OCl.grs


  Job Finished at 14:31.03  3rd December   2020                               

