********************************************************************************
*                       GENERAL UTILITY LATTICE PROGRAM                        *
*                                 Julian Gale                                  *
*                       Curtin Institute for Computation                       *
*                    School of Molecular and Life Sciences                     *
*                    Curtin University, Western Australia                      *
********************************************************************************
* Version = 5.2.0 * Last modified =  10th September 2020                       *
********************************************************************************
*  optimise     - perform optimisation run                                     *
*  conp         - constant pressure calculation                                *
*  property     - calculate properties for final geometry                      *
*  defect       - perform defect calculation after bulk run                    *
*  compare      - compare initial and final structures                         *
********************************************************************************

  Job Started  at 14:28.31  3rd December   2020                               

  Number of CPUs =     1


  Total number of configurations input =      1

********************************************************************************
*  Input for Configuration =   1                                               *
********************************************************************************

  Formula = ClONa3                                                      

  Number of irreducible atoms/shells =       5


  Total number atoms/shells =       7

  Dimensionality = 3               :  Bulk   


  Symmetry :

  Crystal family                   :  Cubic       
  Crystal class  (Groth - 1921)    :  Cubic Hexakisoctahedral              

  Space group (centrosymmetric)    :  P M 3 M         

  Patterson group                  :  P m -3 m 

  Cartesian lattice vectors (Angstroms) :

        4.504000    0.000000    0.000000
        0.000000    4.504000    0.000000
        0.000000    0.000000    4.504000

  Cell parameters (Angstroms/Degrees):

  a =       4.5040    alpha =  90.0000
  b =       4.5040    beta  =  90.0000
  c =       4.5040    gamma =  90.0000

  Initial cell volume =          91.368216 Angs**3

  Temperature of configuration =   0.00     K 

  Pressure of configuration =         0.000 GPa 

  Fractional coordinates of asymmetric unit :

--------------------------------------------------------------------------------
   No.  Atomic       x           y          z         Charge      Occupancy
        Label      (Frac)      (Frac)     (Frac)        (e)         (Frac)  
--------------------------------------------------------------------------------
      1 Cl    c    0.000000    0.000000    0.000000     1.48500    1.000000    
      2 O     c    0.500000    0.500000    0.500000     0.18300    1.000000    
      3 Na    c    0.500000    0.500000    0.000000     1.00000    1.000000    
      4 Cl    s    0.000000    0.000000    0.000000    -2.48500    1.000000    
      5 O     s    0.500000    0.500000    0.500000    -2.18300    1.000000    
--------------------------------------------------------------------------------


  Constraints : 

--------------------------------------------------------------------------------
  Constraint no.      Unconstrained     Constrained    Coefficient    Offset
                         Variable         Variable
--------------------------------------------------------------------------------
           1              Strain 1        Strain 2       1.00000      0.0000
           2              Strain 1        Strain 3       1.00000      0.0000
--------------------------------------------------------------------------------


********************************************************************************
*  General input information                                                   *
********************************************************************************

  Species output for all configurations : 

--------------------------------------------------------------------------------
  Species    Type    Atomic    Atomic    Charge       Radii (Angs)     Library
                     Number     Mass       (e)     Cova   Ionic  VDW   Symbol
--------------------------------------------------------------------------------
    Na       Core       11      22.99   1.000000   0.970  0.000  2.300          
    O        Core        8      16.00   0.183000   0.730  0.000  1.360          
    O        Shell       8       0.00  -2.183000   0.730  0.000  0.000          
    Cl       Core       17      35.45   1.485000   0.990  0.000  1.650          
    Cl       Shell      17       0.00  -2.485000   0.990  0.000  0.000          
    Mg       Core       12      24.31   0.415000   1.100  0.000  0.000          
    Mg       Shell      12       0.00   1.585000   1.100  0.000  0.000          
    Ca       Core       20      40.08  -1.135000   0.990  0.000  0.000          
    Ca       Shell      20       0.00   3.135000   0.990  0.000  0.000          
    Sr       Core       38      87.62  -1.251000   1.120  0.000  0.000          
    Sr       Shell      38       0.00   3.251000   1.120  0.000  0.000          
    Ba       Core       56     137.33  -7.203000   1.340  0.000  0.000          
    Ba       Shell      56       0.00   9.203000   1.340  0.000  0.000          
--------------------------------------------------------------------------------


  Lattice summation method               =    Ewald          (3-D)
                                         =    Parry          (2-D)
                                         =    Saunders et al (1-D)
  Accuracy factor for lattice sums       =   12.000


  Analytic derivatives to be used

  Time limit = Infinity

  Maximum range for interatomic potentials =    100000.000000 Angstroms

  General interatomic potentials :

--------------------------------------------------------------------------------
Atom  Types   Potential      Parameter       Value         Units   Cutoffs(Ang)
  1     2                                                            Min /  Max 
--------------------------------------------------------------------------------
O    c O    s Spring (c-s)  Spring k 2       593.71600    eV*Ang^-2 0.000  0.800
                            Spring k 4       0.0000000    eV*Ang^-4 
--------------------------------------------------------------------------------
Cl   c Cl   s Spring (c-s)  Spring k 2       29.380000    eV*Ang^-2 0.000  0.800
                            Spring k 4       0.0000000    eV*Ang^-4 
--------------------------------------------------------------------------------
Mg   c Mg   s Spring (c-s)  Spring k 2       361.60000    eV*Ang^-2 0.000  0.800
                            Spring k 4       0.0000000    eV*Ang^-4 
--------------------------------------------------------------------------------
Ca   c Ca   s Spring (c-s)  Spring k 2       110.20000    eV*Ang^-2 0.000  0.800
                            Spring k 4       0.0000000    eV*Ang^-4 
--------------------------------------------------------------------------------
Sr   c Sr   s Spring (c-s)  Spring k 2       71.700000    eV*Ang^-2 0.000  0.800
                            Spring k 4       0.0000000    eV*Ang^-4 
--------------------------------------------------------------------------------
Ba   c Ba   s Spring (c-s)  Spring k 2       495.20000    eV*Ang^-2 0.000  0.800
                            Spring k 4       0.0000000    eV*Ang^-4 
--------------------------------------------------------------------------------
Na   c Na   c Buckingham    Buckingham A     1788.1900    eV        0.000 12.000
                            Buckingham rho  0.15900000    Ang       
                            Buckingham C     0.0000000    eV*Ang^6  
--------------------------------------------------------------------------------
Na   c O    s Buckingham    Buckingham A     1226.8400    eV        0.000 12.000
                            Buckingham rho  0.30700000    Ang       
                            Buckingham C     0.0000000    eV*Ang^6  
--------------------------------------------------------------------------------
Na   c Cl   s Buckingham    Buckingham A     2314.7000    eV        0.000 12.000
                            Buckingham rho  0.29000000    Ang       
                            Buckingham C     0.0000000    eV*Ang^6  
--------------------------------------------------------------------------------
O    s O    s Buckingham    Buckingham A     22764.300    eV        0.000 12.000
                            Buckingham rho  0.14900000    Ang       
                            Buckingham C     13.190000    eV*Ang^6  
--------------------------------------------------------------------------------
O    s Cl   s Buckingham    Buckingham A     8286.9100    eV        0.000 12.000
                            Buckingham rho  0.25900000    Ang       
                            Buckingham C     62.200000    eV*Ang^6  
--------------------------------------------------------------------------------
Cl   s Cl   s Buckingham    Buckingham A     1227.2000    eV        0.000 12.000
                            Buckingham rho  0.32100000    Ang       
                            Buckingham C     14.530000    eV*Ang^6  
--------------------------------------------------------------------------------
O    s Mg   s Buckingham    Buckingham A     1428.5000    eV        0.000 12.000
                            Buckingham rho  0.29450000    Ang       
                            Buckingham C     0.0000000    eV*Ang^6  
--------------------------------------------------------------------------------
Mg   s Cl   s Buckingham    Buckingham A     4914.5400    eV        0.000 12.000
                            Buckingham rho  0.25700000    Ang       
                            Buckingham C     0.0000000    eV*Ang^6  
--------------------------------------------------------------------------------
O    s Ca   s Buckingham    Buckingham A     1090.4000    eV        0.000 12.000
                            Buckingham rho  0.34370000    Ang       
                            Buckingham C     0.0000000    eV*Ang^6  
--------------------------------------------------------------------------------
Cl   s Ca   s Buckingham    Buckingham A     2302.0000    eV        0.000 12.000
                            Buckingham rho  0.34020000    Ang       
                            Buckingham C     0.0000000    eV*Ang^6  
--------------------------------------------------------------------------------
O    s Sr   s Buckingham    Buckingham A     959.10000    eV        0.000 12.000
                            Buckingham rho  0.37210000    Ang       
                            Buckingham C     0.0000000    eV*Ang^6  
--------------------------------------------------------------------------------
Cl   s Sr   s Buckingham    Buckingham A     2191.0900    eV        0.000 12.000
                            Buckingham rho  0.34570000    Ang       
                            Buckingham C     0.0000000    eV*Ang^6  
--------------------------------------------------------------------------------
O    s Ba   s Buckingham    Buckingham A     905.70000    eV        0.000 12.000
                            Buckingham rho  0.39760000    Ang       
                            Buckingham C     0.0000000    eV*Ang^6  
--------------------------------------------------------------------------------
Cl   s Ba   s Buckingham    Buckingham A     2704.5500    eV        0.000 12.000
                            Buckingham rho  0.35280000    Ang       
                            Buckingham C     0.0000000    eV*Ang^6  
--------------------------------------------------------------------------------

********************************************************************************
*  Output for configuration   1                                                *
********************************************************************************


  Components of energy : 

--------------------------------------------------------------------------------
  Interatomic potentials     =           5.13022605 eV    
  Monopole - monopole (real) =         -10.03624526 eV    
  Monopole - monopole (recip)=         -29.53581274 eV    
  Monopole - monopole (total)=         -39.57205800 eV    
--------------------------------------------------------------------------------
  Total lattice energy       =         -34.44183194 eV    
--------------------------------------------------------------------------------
  Total lattice energy       =           -3323.1103 kJ/(mole unit cells)
--------------------------------------------------------------------------------


  Number of variables =        1

  Maximum number of calculations  =          1000
  Maximum Hessian update interval =            10
  Maximum step size               =   1.000000000
  Maximum parameter tolerance     =   0.000010000
  Maximum function  tolerance     =   0.000010000
  Maximum gradient  tolerance     =   0.001000000
  Maximum gradient  component     =   0.010000000

  Symmetry constrained optimisation

  Symmetry used for second derivatives

  Cell parameters to be optimised using strains

  Newton-Raphson optimiser to be used

  BFGS hessian update to be used

  Lower half triangular hessian to be used

  Start of bulk optimisation :

  Cycle:      0 Energy:       -34.441832  Gnorm:      0.196570  CPU:    0.015
  ** Hessian calculated **
  Cycle:      1 Energy:       -34.441914  Gnorm:      0.000103  CPU:    0.019


  **** Optimisation achieved ****


  Final energy =     -34.44191447 eV
  Final Gnorm  =       0.00000000

  Components of energy : 

--------------------------------------------------------------------------------
  Interatomic potentials     =           5.09689708 eV    
  Monopole - monopole (real) =         -10.02781331 eV    
  Monopole - monopole (recip)=         -29.51099824 eV    
  Monopole - monopole (total)=         -39.53881155 eV    
--------------------------------------------------------------------------------
  Total lattice energy       =         -34.44191447 eV    
--------------------------------------------------------------------------------
  Total lattice energy       =           -3323.1183 kJ/(mole unit cells)
--------------------------------------------------------------------------------

  Final asymmetric unit coordinates :

--------------------------------------------------------------------------------
   No.  Atomic        x           y           z         Radius
        Label       (Frac)      (Frac)      (Frac)       (Angs) 
--------------------------------------------------------------------------------
     1  Cl    c     0.000000    0.000000    0.000000    0.000000
     2  O     c     0.500000    0.500000    0.500000    0.000000
     3  Na    c     0.500000    0.500000    0.000000    0.000000
     4  Cl    s     0.000000    0.000000    0.000000    0.000000
     5  O     s     0.500000    0.500000    0.500000    0.000000
--------------------------------------------------------------------------------

  Final Cartesian lattice vectors (Angstroms) :

        4.507787    0.000000    0.000000
        0.000000    4.507787    0.000000
        0.000000    0.000000    4.507787


  Final cell parameters and derivatives :

--------------------------------------------------------------------------------
       a            4.507787 Angstrom     dE/de1(xx)     0.000000 eV/strain
       b            4.507787 Angstrom     dE/de2(yy)     0.000000 eV/strain
       c            4.507787 Angstrom     dE/de3(zz)     0.000000 eV/strain
       alpha       90.000000 Degrees      dE/de4(yz)     0.000000 eV/strain
       beta        90.000000 Degrees      dE/de5(xz)     0.000000 eV/strain
       gamma       90.000000 Degrees      dE/de6(xy)     0.000000 eV/strain
--------------------------------------------------------------------------------

  Primitive cell volume =            91.598892 Angs**3

  Density of cell =      2.183054 g/cm**3

  Non-primitive cell volume =            91.598892 Angs**3


  Final internal derivatives :

--------------------------------------------------------------------------------
   No.  Atomic          a             b             c           Radius
        Label          (eV)          (eV)          (eV)        (eV/Angs)
--------------------------------------------------------------------------------
      1 Cl    c       0.000000      0.000000      0.000000      0.000000
      2 O     c       0.000000      0.000000      0.000000      0.000000
      3 Na    c       0.000000      0.000000      0.000000      0.000000
      4 Cl    s       0.000000      0.000000      0.000000      0.000000
      5 O     s       0.000000      0.000000      0.000000      0.000000
--------------------------------------------------------------------------------
  Maximum abs         0.000000      0.000000      0.000000      0.000000
--------------------------------------------------------------------------------

  Comparison of initial and final structures : 

--------------------------------------------------------------------------------
  Parameter   Initial value   Final value   Difference    Units      Percent
--------------------------------------------------------------------------------
    Volume        91.368216     91.598892     0.230676    Angs**3      0.25
    a              4.504000      4.507787     0.003787    Angstroms    0.08
    b              4.504000      4.507787     0.003787    Angstroms    0.08
    c              4.504000      4.507787     0.003787    Angstroms    0.08
    alpha         90.000000     90.000000     0.000000    Degrees      0.00
    beta          90.000000     90.000000     0.000000    Degrees      0.00
    gamma         90.000000     90.000000     0.000000    Degrees      0.00
      1 x          0.000000      0.000000     0.000000    Fractional   0.00
      1 y          0.000000      0.000000     0.000000    Fractional   0.00
      1 z          0.000000      0.000000     0.000000    Fractional   0.00
      2 x          0.500000      0.500000     0.000000    Fractional   0.00
      2 y          0.500000      0.500000     0.000000    Fractional   0.00
      2 z          0.500000      0.500000     0.000000    Fractional   0.00
      3 x          0.500000      0.500000     0.000000    Fractional   0.00
      3 y          0.500000      0.500000     0.000000    Fractional   0.00
      3 z          0.000000      0.000000     0.000000    Fractional   0.00
      4 x          0.000000      0.000000     0.000000    Fractional   0.00
      4 y          0.000000      0.000000     0.000000    Fractional   0.00
      4 z          0.000000      0.000000     0.000000    Fractional   0.00
      5 x          0.500000      0.500000     0.000000    Fractional   0.00
      5 y          0.500000      0.500000     0.000000    Fractional   0.00
      5 z          0.500000      0.500000     0.000000    Fractional   0.00
--------------------------------------------------------------------------------


  Born effective charge tensors : 

-------------------------------------------------------------------------------
  Atom             x           y             z
-------------------------------------------------------------------------------
    1 Cl    x      -1.0181     -0.0000      0.0000
            y      -0.0000     -1.0181      0.0000
            z       0.0000      0.0000     -1.0181
-------------------------------------------------------------------------------
    2 O     x      -2.2647      0.0000     -0.0000
            y       0.0000     -2.2647     -0.0000
            z      -0.0000     -0.0000     -2.2647
-------------------------------------------------------------------------------
    3 Na    x       1.2258     -0.0000      0.0000
            y      -0.0000      1.2258     -0.0000
            z       0.0000     -0.0000      0.8313
-------------------------------------------------------------------------------




  Elastic Constant Matrix: (Units=GPa)

-------------------------------------------------------------------------------
  Indices      1         2         3         4         5         6    
-------------------------------------------------------------------------------
       1     95.8177   20.0737   20.0737   -0.0000   -0.0000    0.0000
       2     20.0737   95.8177   20.0737   -0.0000   -0.0000    0.0000
       3     20.0737   20.0737   95.8177   -0.0000   -0.0000    0.0000
       4     -0.0000   -0.0000   -0.0000   20.0737   -0.0000    0.0000
       5     -0.0000   -0.0000   -0.0000   -0.0000   20.0737    0.0000
       6      0.0000    0.0000    0.0000    0.0000    0.0000   20.0737
-------------------------------------------------------------------------------


  Elastic Compliance Matrix: (Units=1/GPa)

-------------------------------------------------------------------------------
  Indices      1         2         3         4         5         6    
-------------------------------------------------------------------------------
       1    0.011253 -0.001949 -0.001949  0.000000  0.000000 -0.000000
       2   -0.001949  0.011253 -0.001949  0.000000  0.000000  0.000000
       3   -0.001949 -0.001949  0.011253  0.000000  0.000000 -0.000000
       4    0.000000  0.000000  0.000000  0.049816  0.000000 -0.000000
       5    0.000000  0.000000  0.000000  0.000000  0.049816 -0.000000
       6   -0.000000  0.000000 -0.000000 -0.000000 -0.000000  0.049816
-------------------------------------------------------------------------------

  Mechanical properties :

-------------------------------------------------------------------------------
  Convention :                    Reuss         Voigt         Hill
-------------------------------------------------------------------------------
  Bulk  Modulus (GPa)     =      45.32174      45.32174      45.32174
  Shear Modulus (GPa)     =      24.72085      27.19304      25.95695
-------------------------------------------------------------------------------
  Velocity S-wave (km/s)  =       3.36511       3.52937       3.44822
  Velocity P-wave (km/s)  =       5.98827       6.11304       6.05098
-------------------------------------------------------------------------------
  Compressibility (1/GPa) =    0.02206447
-------------------------------------------------------------------------------
  Stress axis :                     x             y             z
-------------------------------------------------------------------------------
  Youngs Moduli (GPa)     =      88.86373      88.86373      88.86373
-------------------------------------------------------------------------------
  Poissons Ratio (x)      =                     0.17321       0.17321
  Poissons Ratio (y)      =       0.17321                     0.17321
  Poissons Ratio (z)      =       0.17321       0.17321
-------------------------------------------------------------------------------


  Piezoelectric Strain Matrix: (Units=C/m**2)

-------------------------------------------------------------------------------
  Indices      1         2         3         4         5         6    
-------------------------------------------------------------------------------
       x    -0.00000  -0.00000  -0.00000   0.00000  -0.00000  -0.00000
       y    -0.00000  -0.00000   0.00000  -0.00000   0.00000   0.00000
       z    -0.00000  -0.00000  -0.00000  -0.00000   0.00000   0.00000
-------------------------------------------------------------------------------


  Piezoelectric Stress Matrix: (Units=10**-11 C/N)

-------------------------------------------------------------------------------
  Indices      1         2         3         4         5         6    
-------------------------------------------------------------------------------
       x    -0.00000   0.00000   0.00000   0.00000  -0.00000  -0.00000
       y    -0.00000  -0.00000   0.00000  -0.00000   0.00000   0.00000
       z     0.00000   0.00000  -0.00000  -0.00000   0.00000   0.00000
-------------------------------------------------------------------------------


  Static dielectric constant tensor : 

-------------------------------------------------------------------------------
              x         y         z
-------------------------------------------------------------------------------
       x    22.84729   0.00000   0.00000
       y     0.00000  22.84729  -0.00000
       z     0.00000  -0.00000  22.84729
--------------------------------------------------------------------------------

  High frequency dielectric constant tensor : 

-------------------------------------------------------------------------------
              x         y         z
-------------------------------------------------------------------------------
       x     1.47557   0.00000  -0.00000
       y     0.00000   1.47557  -0.00000
       z    -0.00000  -0.00000   1.47557
-------------------------------------------------------------------------------

  Static refractive indices : 

-------------------------------------------------------------------------------
    1 =    4.77988      2 =    4.77988      3 =    4.77988
-------------------------------------------------------------------------------

  High frequency refractive indices : 

-------------------------------------------------------------------------------
    1 =    1.21473      2 =    1.21473      3 =    1.21473
-------------------------------------------------------------------------------


  Time to end of optimisation =       0.0285 seconds

********************************************************************************
*  Defect calculation for configuration   1 :                                  *
********************************************************************************

  Total number of defects =      3

  Total charge on defect  =  -1.00

  Defect centre is at   0.5000   0.2600   0.2400  Frac

  Region 1 radius =  13.0000      Number of ions =    691

  Number of symmetry inequivalent region 1 ions  =    401

  Region 2 radius =  21.0000      Number of ions =   2268

  Number of symmetry inequivalent region 2a ions =   1215

  Region 2a mode = 4 : screened electrostatics due to region 1 
                       neglect correction to region 1 forces from 2a
                       region 2a displacements based on defects only

  Region 2a ions will only interact with defects in region 1

  Vacancies:

--------------------------------------------------------------------------------
    Specification type     Symbol/Number         x          y          z
--------------------------------------------------------------------------------
    Fractional                               0.500000   0.500000   0.000000
    Fractional                               0.500000   0.000000   0.500000
--------------------------------------------------------------------------------

  Interstitials:

--------------------------------------------------------------------------------
    Specification type     Symbol/Number         x          y          z
--------------------------------------------------------------------------------
    Atom/Fractional         Na               0.500000   0.260000   0.240000
--------------------------------------------------------------------------------


  Symmetry reduced region 1 (Relative to defect centre) :

--------------------------------------------------------------------------------
   No.   Atomic       x            y             z       Radius  Multiplicity   
         Label      (Angs)       (Angs)        (Angs)    (Angs)     
--------------------------------------------------------------------------------
     1  Na    c      0.0000       0.0000       0.0000    0.0000     1    Defect
     2  O     c      0.0000       1.0819 *     1.1720 *  0.0000     1          
     3  Na    c      2.2539 *     1.0819 *     1.1720 *  0.0000     2          
     4  Cl    c      2.2539 *    -1.1720 *    -1.0819 *  0.0000     2          
     5  O     c      0.0000       1.0819 *    -3.3358 *  0.0000     1          
     6  Na    c      0.0000      -1.1720 *    -3.3358 *  0.0000     1          
     7  Na    c      0.0000       3.3358 *     1.1720 *  0.0000     1          
     8  Na    c      0.0000       1.0819 *     3.4259 *  0.0000     1          
     9  Na    c      0.0000      -3.4259 *    -1.0819 *  0.0000     1          
    10  O     c      0.0000      -3.4259 *     1.1720 *  0.0000     1          
    11  Cl    c      2.2539 *     3.3358 *    -1.0819 *  0.0000     2          
    12  Na    c      2.2539 *     1.0819 *    -3.3358 *  0.0000     2          
    13  Cl    c      2.2539 *    -1.1720 *     3.4259 *  0.0000     2          
    14  Na    c      2.2539 *    -3.4259 *     1.1720 *  0.0000     2          
    15  Na    c      0.0000       3.3358 *    -3.3358 *  0.0000     1          
    16  Na    c     -4.5078 *     1.0819 *    -1.0819 *  0.0000     2          
    17  O     c      0.0000      -3.4259 *    -3.3358 *  0.0000     1          
    18  O     c     -4.5078 *     1.0819 *     1.1720 *  0.0000     2          
    19  Na    c     -4.5078 *    -1.1720 *     1.1720 *  0.0000     2          
    20  Na    c      0.0000      -3.4259 *     3.4259 *  0.0000     1          
    21  Cl    c      2.2539 *     3.3358 *     3.4259 *  0.0000     2          
    22  Na    c      2.2539 *    -3.4259 *    -3.3358 *  0.0000     2          
    23  Na    c      0.0000       1.0819 *    -5.5897 *  0.0000     1          
    24  Na    c      0.0000       5.5897 *    -1.0819 *  0.0000     1          
    25  O     c      0.0000       5.5897 *     1.1720 *  0.0000     1          
    26  O     c     -4.5078 *     1.0819 *    -3.3358 *  0.0000     2          
    27  Na    c     -4.5078 *     3.3358 *     1.1720 *  0.0000     2          
    28  Na    c     -4.5078 *    -1.1720 *    -3.3358 *  0.0000     2          
    29  Na    c     -4.5078 *     1.0819 *     3.4259 *  0.0000     2          
    30  Na    c     -4.5078 *    -3.4259 *    -1.0819 *  0.0000     2          
    31  O     c      0.0000       1.0819 *     5.6798 *  0.0000     1          
    32  O     c     -4.5078 *    -3.4259 *     1.1720 *  0.0000     2          
    33  Na    c      0.0000      -1.1720 *     5.6798 *  0.0000     1          
    34  Na    c      0.0000      -5.6798 *     1.1720 *  0.0000     1          
    35  Cl    c      2.2539 *    -1.1720 *    -5.5897 *  0.0000     2          
    36  Na    c      2.2539 *     5.5897 *     1.1720 *  0.0000     2          
    37  Cl    c      2.2539 *    -5.6798 *    -1.0819 *  0.0000     2          
    38  Na    c      2.2539 *     1.0819 *     5.6798 *  0.0000     2          
    39  O     c      0.0000       5.5897 *    -3.3358 *  0.0000     1          
    40  Na    c     -4.5078 *     3.3358 *    -3.3358 *  0.0000     2          
    41  Na    c      0.0000       5.5897 *     3.4259 *  0.0000     1          
    42  Na    c      0.0000      -3.4259 *    -5.5897 *  0.0000     1          
    43  O     c     -4.5078 *    -3.4259 *    -3.3358 *  0.0000     2          
    44  Na    c      0.0000       3.3358 *     5.6798 *  0.0000     1          
    45  Na    c      0.0000      -5.6798 *    -3.3358 *  0.0000     1          
    46  Na    c     -4.5078 *    -3.4259 *     3.4259 *  0.0000     2          
    47  O     c      0.0000      -3.4259 *     5.6798 *  0.0000     1          
    48  Cl    c      2.2539 *     3.3358 *    -5.5897 *  0.0000     2          
    49  Na    c      2.2539 *     5.5897 *    -3.3358 *  0.0000     2          
    50  Cl    c      6.7617 *    -1.1720 *    -1.0819 *  0.0000     2          
    51  Na    c      6.7617 *     1.0819 *     1.1720 *  0.0000     2          
    52  Cl    c      2.2539 *    -5.6798 *     3.4259 *  0.0000     2          
    53  Na    c      2.2539 *    -3.4259 *     5.6798 *  0.0000     2          
    54  Na    c      4.5078 *     1.0819 *    -5.5897 *  0.0000     2          
    55  Na    c      4.5078 *     5.5897 *    -1.0819 *  0.0000     2          
    56  O     c      4.5078 *     5.5897 *     1.1720 *  0.0000     2          
    57  O     c      4.5078 *     1.0819 *     5.6798 *  0.0000     2          
    58  Na    c      4.5078 *    -5.6798 *     1.1720 *  0.0000     2          
    59  Na    c     -4.5078 *    -1.1720 *     5.6798 *  0.0000     2          
    60  Cl    c      6.7617 *     3.3358 *    -1.0819 *  0.0000     2          
    61  Na    c      6.7617 *     1.0819 *    -3.3358 *  0.0000     2          
    62  Cl    c      6.7617 *    -1.1720 *     3.4259 *  0.0000     2          
    63  Na    c      6.7617 *    -3.4259 *     1.1720 *  0.0000     2          
    64  Na    c      0.0000       5.5897 *    -5.5897 *  0.0000     1          
    65  O     c      4.5078 *     5.5897 *    -3.3358 *  0.0000     2          
    66  O     c      0.0000       1.0819 *    -7.8435 *  0.0000     1          
    67  Na    c      0.0000       7.8435 *     1.1720 *  0.0000     1          
    68  Na    c      0.0000      -1.1720 *    -7.8435 *  0.0000     1          
    69  Na    c      4.5078 *     5.5897 *     3.4259 *  0.0000     2          
    70  Na    c     -4.5078 *    -3.4259 *    -5.5897 *  0.0000     2          
    71  O     c      0.0000       5.5897 *     5.6798 *  0.0000     1          
    72  Na    c     -4.5078 *     3.3358 *     5.6798 *  0.0000     2          
    73  Na    c      4.5078 *    -5.6798 *    -3.3358 *  0.0000     2          
    74  Na    c      0.0000       1.0819 *     7.9337 *  0.0000     1          
    75  Na    c      0.0000      -7.9337 *    -1.0819 *  0.0000     1          
    76  O     c      0.0000      -7.9337 *     1.1720 *  0.0000     1          
    77  O     c     -4.5078 *    -3.4259 *     5.6798 *  0.0000     2          
    78  Na    c      0.0000      -5.6798 *     5.6798 *  0.0000     1          
    79  Cl    c      2.2539 *     7.8435 *    -1.0819 *  0.0000     2          
    80  Na    c      2.2539 *     1.0819 *    -7.8435 *  0.0000     2          
    81  Cl    c      2.2539 *    -5.6798 *    -5.5897 *  0.0000     2          
    82  Na    c      2.2539 *     5.5897 *     5.6798 *  0.0000     2          
    83  Cl    c      6.7617 *     3.3358 *     3.4259 *  0.0000     2          
    84  Na    c      6.7617 *    -3.4259 *    -3.3358 *  0.0000     2          
    85  Cl    c      2.2539 *    -1.1720 *     7.9337 *  0.0000     2          
    86  Na    c      2.2539 *    -7.9337 *     1.1720 *  0.0000     2          
    87  Na    c      0.0000       7.8435 *    -3.3358 *  0.0000     1          
    88  Na    c      0.0000       3.3358 *    -7.8435 *  0.0000     1          
    89  O     c      0.0000      -3.4259 *    -7.8435 *  0.0000     1          
    90  O     c      0.0000      -7.9337 *    -3.3358 *  0.0000     1          
    91  Na    c      0.0000      -3.4259 *     7.9337 *  0.0000     1          
    92  Na    c      0.0000      -7.9337 *     3.4259 *  0.0000     1          
    93  Cl    c      2.2539 *     7.8435 *     3.4259 *  0.0000     2          
    94  Cl    c      6.7617 *    -1.1720 *    -5.5897 *  0.0000     2          
    95  Na    c      2.2539 *    -3.4259 *    -7.8435 *  0.0000     2          
    96  Na    c      6.7617 *     5.5897 *     1.1720 *  0.0000     2          
    97  Cl    c      2.2539 *     3.3358 *     7.9337 *  0.0000     2          
    98  Na    c      2.2539 *    -7.9337 *    -3.3358 *  0.0000     2          
    99  Cl    c      6.7617 *    -5.6798 *    -1.0819 *  0.0000     2          
   100  Na    c      6.7617 *     1.0819 *     5.6798 *  0.0000     2          
   101  Na    c      4.5078 *     5.5897 *    -5.5897 *  0.0000     2          
   102  O     c      4.5078 *     1.0819 *    -7.8435 *  0.0000     2          
   103  Na    c      4.5078 *     7.8435 *     1.1720 *  0.0000     2          
   104  Na    c     -4.5078 *    -1.1720 *    -7.8435 *  0.0000     2          
   105  Na    c      9.0156 *     1.0819 *    -1.0819 *  0.0000     2          
   106  O     c      4.5078 *     5.5897 *     5.6798 *  0.0000     2          
   107  O     c      9.0156 *     1.0819 *     1.1720 *  0.0000     2          
   108  Na    c      9.0156 *    -1.1720 *     1.1720 *  0.0000     2          
   109  Na    c      4.5078 *     1.0819 *     7.9337 *  0.0000     2          
   110  Na    c      4.5078 *    -7.9337 *    -1.0819 *  0.0000     2          
   111  O     c      4.5078 *    -7.9337 *     1.1720 *  0.0000     2          
   112  Na    c      4.5078 *    -5.6798 *     5.6798 *  0.0000     2          
   113  Cl    c      6.7617 *     3.3358 *    -5.5897 *  0.0000     2          
   114  Na    c      6.7617 *     5.5897 *    -3.3358 *  0.0000     2          
   115  Cl    c      6.7617 *    -5.6798 *     3.4259 *  0.0000     2          
   116  Na    c      6.7617 *    -3.4259 *     5.6798 *  0.0000     2          
   117  O     c      0.0000       5.5897 *    -7.8435 *  0.0000     1          
   118  Na    c      4.5078 *     7.8435 *    -3.3358 *  0.0000     2          
   119  Na    c     -4.5078 *     3.3358 *    -7.8435 *  0.0000     2          
   120  O     c      9.0156 *     1.0819 *    -3.3358 *  0.0000     2          
   121  O     c      4.5078 *    -3.4259 *    -7.8435 *  0.0000     2          
   122  Na    c      0.0000       7.8435 *     5.6798 *  0.0000     1          
   123  Na    c      9.0156 *    -1.1720 *    -3.3358 *  0.0000     2          
   124  Na    c      9.0156 *     3.3358 *     1.1720 *  0.0000     2          
   125  Na    c      0.0000      -5.6798 *    -7.8435 *  0.0000     1          
   126  Na    c      0.0000       5.5897 *     7.9337 *  0.0000     1          
   127  Na    c      0.0000      -7.9337 *    -5.5897 *  0.0000     1          
   128  Na    c      9.0156 *     1.0819 *     3.4259 *  0.0000     2          
   129  Na    c      9.0156 *    -3.4259 *    -1.0819 *  0.0000     2          
   130  O     c      4.5078 *    -7.9337 *    -3.3358 *  0.0000     2          
   131  O     c      9.0156 *    -3.4259 *     1.1720 *  0.0000     2          
   132  Na    c     -4.5078 *    -3.4259 *     7.9337 *  0.0000     2          
   133  Na    c      4.5078 *    -7.9337 *     3.4259 *  0.0000     2          
   134  O     c      0.0000      -7.9337 *     5.6798 *  0.0000     1          
   135  Cl    c      2.2539 *     7.8435 *    -5.5897 *  0.0000     2          
   136  Na    c      2.2539 *     5.5897 *    -7.8435 *  0.0000     2          
   137  Cl    c      2.2539 *    -5.6798 *     7.9337 *  0.0000     2          
   138  Na    c      2.2539 *    -7.9337 *     5.6798 *  0.0000     2          
   139  Na    c      0.0000       1.0819 *   -10.0974 *  0.0000     1          
   140  Na    c      0.0000      10.0974 *    -1.0819 *  0.0000     1          
   141  O     c      0.0000      10.0974 *     1.1720 *  0.0000     1          
   142  Na    c      9.0156 *     3.3358 *    -3.3358 *  0.0000     2          
   143  O     c      9.0156 *    -3.4259 *    -3.3358 *  0.0000     2          
   144  Na    c      9.0156 *    -3.4259 *     3.4259 *  0.0000     2          
   145  O     c      0.0000       1.0819 *    10.1876 *  0.0000     1          
   146  Na    c      0.0000      -1.1720 *    10.1876 *  0.0000     1          
   147  Na    c      0.0000     -10.1876 *     1.1720 *  0.0000     1          
   148  Cl    c      2.2539 *    -1.1720 *   -10.0974 *  0.0000     2          
   149  Cl    c      6.7617 *     7.8435 *    -1.0819 *  0.0000     2          
   150  Na    c      2.2539 *    10.0974 *     1.1720 *  0.0000     2          
   151  Na    c      6.7617 *     1.0819 *    -7.8435 *  0.0000     2          
   152  Cl    c      6.7617 *    -5.6798 *    -5.5897 *  0.0000     2          
   153  Na    c      6.7617 *     5.5897 *     5.6798 *  0.0000     2          
   154  Cl    c      6.7617 *    -1.1720 *     7.9337 *  0.0000     2          
   155  Na    c      6.7617 *    -7.9337 *     1.1720 *  0.0000     2          
   156  Cl    c      2.2539 *   -10.1876 *    -1.0819 *  0.0000     2          
   157  Na    c      2.2539 *     1.0819 *    10.1876 *  0.0000     2          
   158  O     c      0.0000      10.0974 *    -3.3358 *  0.0000     1          
   159  O     c      4.5078 *     5.5897 *    -7.8435 *  0.0000     2          
   160  Na    c      0.0000      10.0974 *     3.4259 *  0.0000     1          
   161  Na    c      9.0156 *     1.0819 *    -5.5897 *  0.0000     2          
   162  Na    c      9.0156 *     5.5897 *    -1.0819 *  0.0000     2          
   163  Na    c      0.0000      -3.4259 *   -10.0974 *  0.0000     1          
   164  O     c      9.0156 *     5.5897 *     1.1720 *  0.0000     2          
   165  Na    c      4.5078 *     7.8435 *     5.6798 *  0.0000     2          
   166  Na    c      4.5078 *    -5.6798 *    -7.8435 *  0.0000     2          
   167  Na    c      4.5078 *     5.5897 *     7.9337 *  0.0000     2          
   168  Na    c      4.5078 *    -7.9337 *    -5.5897 *  0.0000     2          
   169  O     c      9.0156 *     1.0819 *     5.6798 *  0.0000     2          
   170  Na    c      9.0156 *    -1.1720 *     5.6798 *  0.0000     2          
   171  Na    c      0.0000       3.3358 *    10.1876 *  0.0000     1          
   172  Na    c      0.0000     -10.1876 *    -3.3358 *  0.0000     1          
   173  Na    c      9.0156 *    -5.6798 *     1.1720 *  0.0000     2          
   174  O     c      4.5078 *    -7.9337 *     5.6798 *  0.0000     2          
   175  O     c      0.0000      -3.4259 *    10.1876 *  0.0000     1          
   176  Cl    c      2.2539 *     3.3358 *   -10.0974 *  0.0000     2          
   177  Na    c      2.2539 *    10.0974 *    -3.3358 *  0.0000     2          
   178  Cl    c      6.7617 *     7.8435 *     3.4259 *  0.0000     2          
   179  Na    c      6.7617 *    -3.4259 *    -7.8435 *  0.0000     2          
   180  Cl    c      6.7617 *     3.3358 *     7.9337 *  0.0000     2          
   181  Na    c      6.7617 *    -7.9337 *    -3.3358 *  0.0000     2          
   182  Cl    c      2.2539 *   -10.1876 *     3.4259 *  0.0000     2          
   183  Na    c      2.2539 *    -3.4259 *    10.1876 *  0.0000     2          
   184  Na    c      0.0000       7.8435 *    -7.8435 *  0.0000     1          
   185  Na    c     -4.5078 *     1.0819 *   -10.0974 *  0.0000     2          
   186  Na    c     -4.5078 *    10.0974 *    -1.0819 *  0.0000     2          
   187  O     c      9.0156 *     5.5897 *    -3.3358 *  0.0000     2          
   188  O     c     -4.5078 *    10.0974 *     1.1720 *  0.0000     2          
   189  Na    c      9.0156 *     5.5897 *     3.4259 *  0.0000     2          
   190  Na    c      9.0156 *    -3.4259 *    -5.5897 *  0.0000     2          
   191  O     c      0.0000      -7.9337 *    -7.8435 *  0.0000     1          
   192  Na    c      9.0156 *     3.3358 *     5.6798 *  0.0000     2          
   193  Na    c      9.0156 *    -5.6798 *    -3.3358 *  0.0000     2          
   194  O     c      9.0156 *    -3.4259 *     5.6798 *  0.0000     2          
   195  O     c     -4.5078 *     1.0819 *    10.1876 *  0.0000     2          
   196  Na    c     -4.5078 *    -1.1720 *    10.1876 *  0.0000     2          
   197  Na    c     -4.5078 *   -10.1876 *     1.1720 *  0.0000     2          
   198  Na    c      0.0000      -7.9337 *     7.9337 *  0.0000     1          
   199  Cl    c     11.2695 *    -1.1720 *    -1.0819 *  0.0000     2          
   200  Na    c     11.2695 *     1.0819 *     1.1720 *  0.0000     2          
   201  Cl    c      2.2539 *     7.8435 *     7.9337 *  0.0000     2          
   202  Na    c      2.2539 *    -7.9337 *    -7.8435 *  0.0000     2          
   203  Na    c      0.0000       5.5897 *   -10.0974 *  0.0000     1          
   204  Na    c      0.0000      10.0974 *    -5.5897 *  0.0000     1          
   205  O     c     -4.5078 *    10.0974 *    -3.3358 *  0.0000     2          
   206  Na    c     -4.5078 *    10.0974 *     3.4259 *  0.0000     2          
   207  Na    c     -4.5078 *    -3.4259 *   -10.0974 *  0.0000     2          
   208  O     c      0.0000      10.0974 *     5.6798 *  0.0000     1          
   209  O     c      0.0000       5.5897 *    10.1876 *  0.0000     1          
   210  Na    c      4.5078 *     3.3358 *    10.1876 *  0.0000     2          
   211  Na    c      4.5078 *   -10.1876 *    -3.3358 *  0.0000     2          
   212  O     c      4.5078 *    -3.4259 *    10.1876 *  0.0000     2          
   213  Na    c      0.0000      -5.6798 *    10.1876 *  0.0000     1          
   214  Na    c      0.0000     -10.1876 *     5.6798 *  0.0000     1          
   215  Cl    c      6.7617 *     7.8435 *    -5.5897 *  0.0000     2          
   216  Na    c      6.7617 *     5.5897 *    -7.8435 *  0.0000     2          
   217  Cl    c     11.2695 *     3.3358 *    -1.0819 *  0.0000     2          
   218  Na    c     11.2695 *     1.0819 *    -3.3358 *  0.0000     2          
   219  Cl    c      2.2539 *    -5.6798 *   -10.0974 *  0.0000     2          
   220  Na    c      2.2539 *    10.0974 *     5.6798 *  0.0000     2          
   221  Cl    c     11.2695 *    -1.1720 *     3.4259 *  0.0000     2          
   222  Na    c     11.2695 *    -3.4259 *     1.1720 *  0.0000     2          
   223  Cl    c      2.2539 *   -10.1876 *    -5.5897 *  0.0000     2          
   224  Na    c      2.2539 *     5.5897 *    10.1876 *  0.0000     2          
   225  Cl    c      6.7617 *    -5.6798 *     7.9337 *  0.0000     2          
   226  Na    c      6.7617 *    -7.9337 *     5.6798 *  0.0000     2          
   227  Na    c      4.5078 *     7.8435 *    -7.8435 *  0.0000     2          
   228  Na    c      9.0156 *     5.5897 *    -5.5897 *  0.0000     2          
   229  O     c      9.0156 *     1.0819 *    -7.8435 *  0.0000     2          
   230  Na    c      9.0156 *     7.8435 *     1.1720 *  0.0000     2          
   231  Na    c      9.0156 *    -1.1720 *    -7.8435 *  0.0000     2          
   232  O     c      9.0156 *     5.5897 *     5.6798 *  0.0000     2          
   233  O     c      4.5078 *    -7.9337 *    -7.8435 *  0.0000     2          
   234  Na    c      9.0156 *     1.0819 *     7.9337 *  0.0000     2          
   235  Na    c      9.0156 *    -7.9337 *    -1.0819 *  0.0000     2          
   236  O     c      9.0156 *    -7.9337 *     1.1720 *  0.0000     2          
   237  Na    c      9.0156 *    -5.6798 *     5.6798 *  0.0000     2          
   238  Na    c      4.5078 *    -7.9337 *     7.9337 *  0.0000     2          
   239  Cl    c      6.7617 *    -1.1720 *   -10.0974 *  0.0000     2          
   240  Na    c      6.7617 *    10.0974 *     1.1720 *  0.0000     2          
   241  Cl    c     11.2695 *     3.3358 *     3.4259 *  0.0000     2          
   242  Na    c     11.2695 *    -3.4259 *    -3.3358 *  0.0000     2          
   243  Na    c      6.7617 *     1.0819 *    10.1876 *  0.0000     2          
   244  Cl    c      6.7617 *   -10.1876 *    -1.0819 *  0.0000     2          
   245  Na    c      4.5078 *     5.5897 *   -10.0974 *  0.0000     2          
   246  Na    c      4.5078 *    10.0974 *    -5.5897 *  0.0000     2          
   247  O     c      0.0000       1.0819 *   -12.3513 *  0.0000     1          
   248  Na    c      0.0000      -1.1720 *   -12.3513 *  0.0000     1          
   249  Na    c      0.0000      12.3513 *     1.1720 *  0.0000     1          
   250  Na    c      9.0156 *     3.3358 *    -7.8435 *  0.0000     2          
   251  Na    c      9.0156 *     7.8435 *    -3.3358 *  0.0000     2          
   252  O     c      4.5078 *    10.0974 *     5.6798 *  0.0000     2          
   253  O     c      9.0156 *    -3.4259 *    -7.8435 *  0.0000     2          
   254  O     c      4.5078 *     5.5897 *    10.1876 *  0.0000     2          
   255  O     c      9.0156 *    -7.9337 *    -3.3358 *  0.0000     2          
   256  Na    c      0.0000       1.0819 *    12.4415 *  0.0000     1          
   257  Na    c      0.0000     -12.4415 *    -1.0819 *  0.0000     1          
   258  Na    c      9.0156 *    -3.4259 *     7.9337 *  0.0000     2          
   259  Na    c      9.0156 *    -7.9337 *     3.4259 *  0.0000     2          
   260  O     c      0.0000     -12.4415 *     1.1720 *  0.0000     1          
   261  Na    c      4.5078 *    -5.6798 *    10.1876 *  0.0000     2          
   262  Na    c     -4.5078 *   -10.1876 *     5.6798 *  0.0000     2          
   263  Cl    c      2.2539 *    12.3513 *    -1.0819 *  0.0000     2          
   264  Na    c      2.2539 *     1.0819 *   -12.3513 *  0.0000     2          
   265  Cl    c      6.7617 *     3.3358 *   -10.0974 *  0.0000     2          
   266  Na    c      6.7617 *    10.0974 *    -3.3358 *  0.0000     2          
   267  Cl    c     11.2695 *    -1.1720 *    -5.5897 *  0.0000     2          
   268  Na    c     11.2695 *     5.5897 *     1.1720 *  0.0000     2          
   269  Cl    c     11.2695 *    -5.6798 *    -1.0819 *  0.0000     2          
   270  Na    c     11.2695 *     1.0819 *     5.6798 *  0.0000     2          
   271  Cl    c      2.2539 *    -1.1720 *    12.4415 *  0.0000     2          
   272  Na    c      2.2539 *   -12.4415 *     1.1720 *  0.0000     2          
   273  Na    c      6.7617 *    -3.4259 *    10.1876 *  0.0000     2          
   274  Cl    c      6.7617 *   -10.1876 *     3.4259 *  0.0000     2          
   275  O     c      0.0000      10.0974 *    -7.8435 *  0.0000     1          
   276  Na    c      0.0000       3.3358 *   -12.3513 *  0.0000     1          
   277  Na    c      0.0000      12.3513 *    -3.3358 *  0.0000     1          
   278  O     c      0.0000      -3.4259 *   -12.3513 *  0.0000     1          
   279  Na    c      0.0000      10.0974 *     7.9337 *  0.0000     1          
   280  Na    c      0.0000      -7.9337 *   -10.0974 *  0.0000     1          
   281  Na    c      0.0000       7.8435 *    10.1876 *  0.0000     1          
   282  Na    c      0.0000     -10.1876 *    -7.8435 *  0.0000     1          
   283  O     c      0.0000     -12.4415 *    -3.3358 *  0.0000     1          
   284  Na    c      0.0000      -3.4259 *    12.4415 *  0.0000     1          
   285  Na    c      0.0000     -12.4415 *     3.4259 *  0.0000     1          
   286  O     c      0.0000      -7.9337 *    10.1876 *  0.0000     1          
   287  Cl    c      2.2539 *     7.8435 *   -10.0974 *  0.0000     2          
   288  Na    c      2.2539 *    10.0974 *    -7.8435 *  0.0000     2          
   289  O     s      0.0000       1.0819 *     1.1720 *  0.0000     1          
   290  Cl    s      2.2539 *    -1.1720 *    -1.0819 *  0.0000     2          
   291  O     s      0.0000       1.0819 *    -3.3358 *  0.0000     1          
   292  O     s      0.0000      -3.4259 *     1.1720 *  0.0000     1          
   293  Cl    s      2.2539 *     3.3358 *    -1.0819 *  0.0000     2          
   294  Cl    s      2.2539 *    -1.1720 *     3.4259 *  0.0000     2          
   295  O     s      0.0000      -3.4259 *    -3.3358 *  0.0000     1          
   296  O     s     -4.5078 *     1.0819 *     1.1720 *  0.0000     2          
   297  Cl    s      2.2539 *     3.3358 *     3.4259 *  0.0000     2          
   298  O     s      0.0000       5.5897 *     1.1720 *  0.0000     1          
   299  O     s     -4.5078 *     1.0819 *    -3.3358 *  0.0000     2          
   300  O     s      0.0000       1.0819 *     5.6798 *  0.0000     1          
   301  O     s     -4.5078 *    -3.4259 *     1.1720 *  0.0000     2          
   302  Cl    s      2.2539 *    -1.1720 *    -5.5897 *  0.0000     2          
   303  Cl    s      2.2539 *    -5.6798 *    -1.0819 *  0.0000     2          
   304  O     s      0.0000       5.5897 *    -3.3358 *  0.0000     1          
   305  O     s     -4.5078 *    -3.4259 *    -3.3358 *  0.0000     2          
   306  O     s      0.0000      -3.4259 *     5.6798 *  0.0000     1          
   307  Cl    s      2.2539 *     3.3358 *    -5.5897 *  0.0000     2          
   308  Cl    s      6.7617 *    -1.1720 *    -1.0819 *  0.0000     2          
   309  Cl    s      2.2539 *    -5.6798 *     3.4259 *  0.0000     2          
   310  O     s      4.5078 *     5.5897 *     1.1720 *  0.0000     2          
   311  O     s      4.5078 *     1.0819 *     5.6798 *  0.0000     2          
   312  Cl    s      6.7617 *     3.3358 *    -1.0819 *  0.0000     2          
   313  Cl    s      6.7617 *    -1.1720 *     3.4259 *  0.0000     2          
   314  O     s      4.5078 *     5.5897 *    -3.3358 *  0.0000     2          
   315  O     s      0.0000       1.0819 *    -7.8435 *  0.0000     1          
   316  O     s      0.0000       5.5897 *     5.6798 *  0.0000     1          
   317  O     s      0.0000      -7.9337 *     1.1720 *  0.0000     1          
   318  O     s     -4.5078 *    -3.4259 *     5.6798 *  0.0000     2          
   319  Cl    s      2.2539 *     7.8435 *    -1.0819 *  0.0000     2          
   320  Cl    s      2.2539 *    -5.6798 *    -5.5897 *  0.0000     2          
   321  Cl    s      6.7617 *     3.3358 *     3.4259 *  0.0000     2          
   322  Cl    s      2.2539 *    -1.1720 *     7.9337 *  0.0000     2          
   323  O     s      0.0000      -3.4259 *    -7.8435 *  0.0000     1          
   324  O     s      0.0000      -7.9337 *    -3.3358 *  0.0000     1          
   325  Cl    s      2.2539 *     7.8435 *     3.4259 *  0.0000     2          
   326  Cl    s      6.7617 *    -1.1720 *    -5.5897 *  0.0000     2          
   327  Cl    s      2.2539 *     3.3358 *     7.9337 *  0.0000     2          
   328  Cl    s      6.7617 *    -5.6798 *    -1.0819 *  0.0000     2          
   329  O     s      4.5078 *     1.0819 *    -7.8435 *  0.0000     2          
   330  O     s      4.5078 *     5.5897 *     5.6798 *  0.0000     2          
   331  O     s      9.0156 *     1.0819 *     1.1720 *  0.0000     2          
   332  O     s      4.5078 *    -7.9337 *     1.1720 *  0.0000     2          
   333  Cl    s      6.7617 *     3.3358 *    -5.5897 *  0.0000     2          
   334  Cl    s      6.7617 *    -5.6798 *     3.4259 *  0.0000     2          
   335  O     s      0.0000       5.5897 *    -7.8435 *  0.0000     1          
   336  O     s      9.0156 *     1.0819 *    -3.3358 *  0.0000     2          
   337  O     s      4.5078 *    -3.4259 *    -7.8435 *  0.0000     2          
   338  O     s      4.5078 *    -7.9337 *    -3.3358 *  0.0000     2          
   339  O     s      9.0156 *    -3.4259 *     1.1720 *  0.0000     2          
   340  O     s      0.0000      -7.9337 *     5.6798 *  0.0000     1          
   341  Cl    s      2.2539 *     7.8435 *    -5.5897 *  0.0000     2          
   342  Cl    s      2.2539 *    -5.6798 *     7.9337 *  0.0000     2          
   343  O     s      0.0000      10.0974 *     1.1720 *  0.0000     1          
   344  O     s      9.0156 *    -3.4259 *    -3.3358 *  0.0000     2          
   345  O     s      0.0000       1.0819 *    10.1876 *  0.0000     1          
   346  Cl    s      2.2539 *    -1.1720 *   -10.0974 *  0.0000     2          
   347  Cl    s      6.7617 *     7.8435 *    -1.0819 *  0.0000     2          
   348  Cl    s      6.7617 *    -5.6798 *    -5.5897 *  0.0000     2          
   349  Cl    s      6.7617 *    -1.1720 *     7.9337 *  0.0000     2          
   350  Cl    s      2.2539 *   -10.1876 *    -1.0819 *  0.0000     2          
   351  O     s      0.0000      10.0974 *    -3.3358 *  0.0000     1          
   352  O     s      4.5078 *     5.5897 *    -7.8435 *  0.0000     2          
   353  O     s      9.0156 *     5.5897 *     1.1720 *  0.0000     2          
   354  O     s      9.0156 *     1.0819 *     5.6798 *  0.0000     2          
   355  O     s      4.5078 *    -7.9337 *     5.6798 *  0.0000     2          
   356  O     s      0.0000      -3.4259 *    10.1876 *  0.0000     1          
   357  Cl    s      2.2539 *     3.3358 *   -10.0974 *  0.0000     2          
   358  Cl    s      6.7617 *     7.8435 *     3.4259 *  0.0000     2          
   359  Cl    s      6.7617 *     3.3358 *     7.9337 *  0.0000     2          
   360  Cl    s      2.2539 *   -10.1876 *     3.4259 *  0.0000     2          
   361  O     s      9.0156 *     5.5897 *    -3.3358 *  0.0000     2          
   362  O     s     -4.5078 *    10.0974 *     1.1720 *  0.0000     2          
   363  O     s      0.0000      -7.9337 *    -7.8435 *  0.0000     1          
   364  O     s      9.0156 *    -3.4259 *     5.6798 *  0.0000     2          
   365  O     s     -4.5078 *     1.0819 *    10.1876 *  0.0000     2          
   366  Cl    s     11.2695 *    -1.1720 *    -1.0819 *  0.0000     2          
   367  Cl    s      2.2539 *     7.8435 *     7.9337 *  0.0000     2          
   368  O     s     -4.5078 *    10.0974 *    -3.3358 *  0.0000     2          
   369  O     s      0.0000      10.0974 *     5.6798 *  0.0000     1          
   370  O     s      0.0000       5.5897 *    10.1876 *  0.0000     1          
   371  O     s      4.5078 *    -3.4259 *    10.1876 *  0.0000     2          
   372  Cl    s      6.7617 *     7.8435 *    -5.5897 *  0.0000     2          
   373  Cl    s     11.2695 *     3.3358 *    -1.0819 *  0.0000     2          
   374  Cl    s      2.2539 *    -5.6798 *   -10.0974 *  0.0000     2          
   375  Cl    s     11.2695 *    -1.1720 *     3.4259 *  0.0000     2          
   376  Cl    s      2.2539 *   -10.1876 *    -5.5897 *  0.0000     2          
   377  Cl    s      6.7617 *    -5.6798 *     7.9337 *  0.0000     2          
   378  O     s      9.0156 *     1.0819 *    -7.8435 *  0.0000     2          
   379  O     s      9.0156 *     5.5897 *     5.6798 *  0.0000     2          
   380  O     s      4.5078 *    -7.9337 *    -7.8435 *  0.0000     2          
   381  O     s      9.0156 *    -7.9337 *     1.1720 *  0.0000     2          
   382  Cl    s      6.7617 *    -1.1720 *   -10.0974 *  0.0000     2          
   383  Cl    s     11.2695 *     3.3358 *     3.4259 *  0.0000     2          
   384  Cl    s      6.7617 *   -10.1876 *    -1.0819 *  0.0000     2          
   385  O     s      0.0000       1.0819 *   -12.3513 *  0.0000     1          
   386  O     s      4.5078 *    10.0974 *     5.6798 *  0.0000     2          
   387  O     s      9.0156 *    -3.4259 *    -7.8435 *  0.0000     2          
   388  O     s      4.5078 *     5.5897 *    10.1876 *  0.0000     2          
   389  O     s      9.0156 *    -7.9337 *    -3.3358 *  0.0000     2          
   390  O     s      0.0000     -12.4415 *     1.1720 *  0.0000     1          
   391  Cl    s      2.2539 *    12.3513 *    -1.0819 *  0.0000     2          
   392  Cl    s      6.7617 *     3.3358 *   -10.0974 *  0.0000     2          
   393  Cl    s     11.2695 *    -1.1720 *    -5.5897 *  0.0000     2          
   394  Cl    s     11.2695 *    -5.6798 *    -1.0819 *  0.0000     2          
   395  Cl    s      2.2539 *    -1.1720 *    12.4415 *  0.0000     2          
   396  Cl    s      6.7617 *   -10.1876 *     3.4259 *  0.0000     2          
   397  O     s      0.0000      10.0974 *    -7.8435 *  0.0000     1          
   398  O     s      0.0000      -3.4259 *   -12.3513 *  0.0000     1          
   399  O     s      0.0000     -12.4415 *    -3.3358 *  0.0000     1          
   400  O     s      0.0000      -7.9337 *    10.1876 *  0.0000     1          
   401  Cl    s      2.2539 *     7.8435 *   -10.0974 *  0.0000     2          
--------------------------------------------------------------------------------

  Components of defect energy : 

--------------------------------------------------------------------------------
  Region 1 - region 1                   =     10.42638500 eV
  Region 1 - region 2a (unrelaxed)      =      0.32735709 eV
  Region 1 - 2a (relaxed - correction)  =     -0.40915165 eV
  Region 1 (Total)                      =     10.34459044 eV
  Region 2a                             =      0.20450754 eV
  Region 2b                             =     -0.32787658 eV
--------------------------------------------------------------------------------
  Total defect energy                   =     10.22122140 eV
--------------------------------------------------------------------------------

  Largest displacement in region 2 =   0.0195 Angstroms


  Number of variables =     1090

  Maximum number of calculations  =        1000
  Maximum Hessian update interval =          10
  Maximum step size               =   1.0000000
  Maximum parameter tolerance     =   0.0000100
  Maximum function  tolerance     =   0.0000100
  Maximum gradient  tolerance     =   0.0010000

  Symmetry adapted optimisation

  Symmetry to be used for second derivatives

  Newton-Raphson optimiser to be used

  BFGS hessian update to be used

  Lower half triangular hessian to be used

  Start of defect optimisation :

  Cycle:      0 Defect Energy:  10.221221  Gnorm:     0.019247  CPU:    6.296
  ** Hessian calculated **
  Cycle:      1 Defect Energy:   8.662630  Gnorm:     0.011225  CPU:   22.011
  Cycle:      2 Defect Energy:   8.091583  Gnorm:     0.010209  CPU:   34.082
  Cycle:      3 Defect Energy:   7.816385  Gnorm:     0.008466  CPU:   42.687
  Cycle:      4 Defect Energy:   7.338343  Gnorm:     0.008695  CPU:   60.641
  Cycle:      5 Defect Energy:   6.867340  Gnorm:     0.006082  CPU:   71.943
  Cycle:      6 Defect Energy:   6.397694  Gnorm:     0.005722  CPU:   80.331
  Cycle:      7 Defect Energy:   5.937618  Gnorm:     0.007050  CPU:   95.821
  Cycle:      8 Defect Energy:   5.631143  Gnorm:     0.003478  CPU:  105.233
  Cycle:      9 Defect Energy:   5.545356  Gnorm:     0.002668  CPU:  107.533
  Cycle:     10 Defect Energy:   5.467297  Gnorm:     0.002097  CPU:  109.894
  ** Hessian calculated **
  Cycle:     11 Defect Energy:   5.382663  Gnorm:     0.001889  CPU:  115.405
  Cycle:     12 Defect Energy:   5.283808  Gnorm:     0.001626  CPU:  117.530
  Cycle:     13 Defect Energy:   5.195433  Gnorm:     0.001368  CPU:  123.817
  ** Hessian calculated **
  Cycle:     14 Defect Energy:   5.088143  Gnorm:     0.000976  CPU:  130.455
  Cycle:     15 Defect Energy:   5.031284  Gnorm:     0.000608  CPU:  133.062
  Cycle:     16 Defect Energy:   5.001303  Gnorm:     0.000397  CPU:  135.761
  Cycle:     17 Defect Energy:   4.992424  Gnorm:     0.000271  CPU:  138.209
  Cycle:     18 Defect Energy:   4.987546  Gnorm:     0.000162  CPU:  140.579
  Cycle:     19 Defect Energy:   4.985779  Gnorm:     0.000115  CPU:  142.888
  Cycle:     20 Defect Energy:   4.985525  Gnorm:     0.000099  CPU:  145.251
  ** Hessian calculated **
  Cycle:     21 Defect Energy:   4.985454  Gnorm:     0.000066  CPU:  150.730
  Cycle:     22 Defect Energy:   4.985397  Gnorm:     0.000058  CPU:  152.879
  Cycle:     23 Defect Energy:   4.985343  Gnorm:     0.000054  CPU:  159.121
  Cycle:     24 Defect Energy:   4.985268  Gnorm:     0.000055  CPU:  161.766
  Cycle:     25 Defect Energy:   4.985213  Gnorm:     0.000055  CPU:  164.495
  Cycle:     26 Defect Energy:   4.985143  Gnorm:     0.000057  CPU:  167.084
  Cycle:     27 Defect Energy:   4.985085  Gnorm:     0.000059  CPU:  169.750
  Cycle:     28 Defect Energy:   4.985001  Gnorm:     0.000058  CPU:  172.146
  Cycle:     29 Defect Energy:   4.984931  Gnorm:     0.000060  CPU:  174.642
  Cycle:     30 Defect Energy:   4.984829  Gnorm:     0.000061  CPU:  176.952
  ** Hessian calculated **
  Cycle:     31 Defect Energy:   4.984806  Gnorm:     0.000057  CPU:  182.698
  Cycle:     32 Defect Energy:   4.984773  Gnorm:     0.000056  CPU:  184.955
  Cycle:     33 Defect Energy:   4.984736  Gnorm:     0.000054  CPU:  187.147
  Cycle:     34 Defect Energy:   4.984678  Gnorm:     0.000053  CPU:  189.716
  Cycle:     35 Defect Energy:   4.984607  Gnorm:     0.000053  CPU:  195.310
  Cycle:     36 Defect Energy:   4.984497  Gnorm:     0.000055  CPU:  197.971
  Cycle:     37 Defect Energy:   4.984354  Gnorm:     0.000060  CPU:  200.724
  Cycle:     38 Defect Energy:   4.984123  Gnorm:     0.000073  CPU:  203.288
  Cycle:     39 Defect Energy:   4.983796  Gnorm:     0.000097  CPU:  205.828
  Cycle:     40 Defect Energy:   4.983274  Gnorm:     0.000136  CPU:  208.250
  ** Hessian calculated **
  Cycle:     41 Defect Energy:   4.982901  Gnorm:     0.000117  CPU:  214.144
  Cycle:     42 Defect Energy:   4.982423  Gnorm:     0.000111  CPU:  216.415
  Cycle:     43 Defect Energy:   4.981748  Gnorm:     0.000107  CPU:  218.646
  Cycle:     44 Defect Energy:   4.980823  Gnorm:     0.000108  CPU:  220.967
  Cycle:     45 Defect Energy:   4.979492  Gnorm:     0.000118  CPU:  223.119
  Cycle:     46 Defect Energy:   4.977579  Gnorm:     0.000146  CPU:  225.109
  Cycle:     47 Defect Energy:   4.974700  Gnorm:     0.000195  CPU:  231.599
  Cycle:     48 Defect Energy:   4.970358  Gnorm:     0.000278  CPU:  234.266
  Cycle:     49 Defect Energy:   4.963830  Gnorm:     0.000407  CPU:  237.052
  Cycle:     50 Defect Energy:   4.954695  Gnorm:     0.000605  CPU:  239.633
  ** Hessian calculated **
  Cycle:     51 Defect Energy:   4.947449  Gnorm:     0.000509  CPU:  245.856
  Cycle:     52 Defect Energy:   4.938386  Gnorm:     0.000472  CPU:  248.282
  Cycle:     53 Defect Energy:   4.926456  Gnorm:     0.000442  CPU:  250.731
  Cycle:     54 Defect Energy:   4.910517  Gnorm:     0.000435  CPU:  252.959
  Cycle:     55 Defect Energy:   4.889351  Gnorm:     0.000472  CPU:  255.365
  Cycle:     56 Defect Energy:   4.861379  Gnorm:     0.000589  CPU:  257.599
  Cycle:     57 Defect Energy:   4.826736  Gnorm:     0.000784  CPU:  259.776
  Cycle:     58 Defect Energy:   4.804136  Gnorm:     0.000932  CPU:  264.142
  Cycle:     59 Defect Energy:   4.787470  Gnorm:     0.001023  CPU:  268.542
  Cycle:     60 Defect Energy:   4.767345  Gnorm:     0.001088  CPU:  271.215
  ** Hessian calculated **
  Cycle:     61 Defect Energy:   4.732969  Gnorm:     0.001051  CPU:  277.740
  Cycle:     62 Defect Energy:   4.726380  Gnorm:     0.001042  CPU:  280.183
  ** Hessian calculated **
  Cycle:     63 Defect Energy:   4.619281  Gnorm:     0.000936  CPU:  286.299
  Cycle:     64 Defect Energy:   4.513594  Gnorm:     0.000673  CPU:  288.584
  Cycle:     65 Defect Energy:   4.478404  Gnorm:     0.000395  CPU:  290.954
  ** Hessian calculated **
  Cycle:     66 Defect Energy:   4.462162  Gnorm:     0.000283  CPU:  296.414
  Cycle:     67 Defect Energy:   4.454029  Gnorm:     0.000206  CPU:  302.868
  Cycle:     68 Defect Energy:   4.449940  Gnorm:     0.000145  CPU:  305.551
  Cycle:     69 Defect Energy:   4.447920  Gnorm:     0.000103  CPU:  308.382
  Cycle:     70 Defect Energy:   4.446918  Gnorm:     0.000072  CPU:  311.021
  Cycle:     71 Defect Energy:   4.446426  Gnorm:     0.000051  CPU:  313.590
  Cycle:     72 Defect Energy:   4.446187  Gnorm:     0.000036  CPU:  316.044
  Cycle:     73 Defect Energy:   4.446072  Gnorm:     0.000025  CPU:  318.534
  Cycle:     74 Defect Energy:   4.446019  Gnorm:     0.000017  CPU:  320.803
  Cycle:     75 Defect Energy:   4.445995  Gnorm:     0.000012  CPU:  323.248
  ** Hessian calculated **
  Cycle:     76 Defect Energy:   4.445985  Gnorm:     0.000009  CPU:  328.936


  **** Optimisation achieved ****


  Final defect energy  =        4.44598102
  Final defect Gnorm   =        0.00000601

  Components of defect energy : 

--------------------------------------------------------------------------------
  Region 1 - region 1                   =      5.41848506 eV
  Region 1 - region 2a (unrelaxed)      =     -0.47088687 eV
  Region 1 - 2a (relaxed - correction)  =     -0.34709617 eV
  Region 1 (Total)                      =      4.60050202 eV
  Region 2a                             =      0.17339353 eV
  Region 2b                             =     -0.32791452 eV
--------------------------------------------------------------------------------
  Total defect energy                   =      4.44598102 eV
--------------------------------------------------------------------------------

  Largest displacement in region 2 =   0.0195 Angstroms

  Final coordinates of region 1 :

--------------------------------------------------------------------------------
   No.  Atomic        x           y           z          Radius      Charge
        Label       (Angs)      (Angs)      (Angs)       (Angs)       (e) 
--------------------------------------------------------------------------------
     1  Na    c     2.253894    1.172025    1.081869    0.000000    1.000000
     2  O     c     2.253894    2.646729    2.565218    0.000000    0.183000
     3  Na    c     4.497817    2.625178    2.617447    0.000000    1.000000
     4  Na    c     0.009971    2.625178    2.617447    0.000000    1.000000
     5  Cl    c     4.531743   -0.038865   -0.060028    0.000000    1.485000
     6  Cl    c    -0.023956   -0.038865   -0.060028    0.000000    1.485000
     7  O     c     2.253894    2.308425   -2.286712    0.000000    0.183000
     8  Na    c     2.253894    0.063482   -2.394064    0.000000    1.000000
     9  Na    c     2.253894    4.636811    1.694108    0.000000    1.000000
    10  Na    c     2.253894    1.937935    4.620619    0.000000    1.000000
    11  Na    c     2.253894   -2.120209    0.056836    0.000000    1.000000
    12  O     c     2.253894   -2.259438    2.271290    0.000000    0.183000
    13  Cl    c     4.608482    4.675670    0.016167    0.000000    1.485000
    14  Cl    c    -0.100695    4.675670    0.016167    0.000000    1.485000
    15  Na    c     4.441588    2.281531   -1.974071    0.000000    1.000000
    16  Na    c     0.066199    2.281531   -1.974071    0.000000    1.000000
    17  Cl    c     4.586797    0.042482    4.646880    0.000000    1.485000
    18  Cl    c    -0.079010    0.042482    4.646880    0.000000    1.485000
    19  Na    c     4.446274   -1.965542    2.219381    0.000000    1.000000
    20  Na    c     0.061513   -1.965542    2.219381    0.000000    1.000000
    21  Na    c     2.253894    4.475537   -1.721661    0.000000    1.000000
    22  Na    c    -2.163119    1.886885    0.069908    0.000000    1.000000
    23  Na    c     6.670907    1.886885    0.069908    0.000000    1.000000
    24  O     c     2.253894   -2.229882   -2.224213    0.000000    0.183000
    25  O     c    -2.238961    2.314371    2.308235    0.000000    0.183000
    26  O     c     6.746748    2.314371    2.308235    0.000000    0.183000
    27  Na    c    -2.182757    0.063309    2.687703    0.000000    1.000000
    28  Na    c     6.690544    0.063309    2.687703    0.000000    1.000000
    29  Na    c     2.253894   -1.717524    4.444744    0.000000    1.000000
    30  Cl    c     4.693809    4.616253    4.681716    0.000000    1.485000
    31  Cl    c    -0.186022    4.616253    4.681716    0.000000    1.485000
    32  Na    c     4.506426   -2.248844   -2.149896    0.000000    1.000000
    33  Na    c     0.001362   -2.248844   -2.149896    0.000000    1.000000
    34  Na    c     2.253894    2.649807   -4.482822    0.000000    1.000000
    35  Na    c     2.253894    7.265875   -0.009012    0.000000    1.000000
    36  O     c     2.253894    6.827547    2.245692    0.000000    0.183000
    37  O     c    -2.214008    2.256305   -2.190891    0.000000    0.183000
    38  O     c     6.721795    2.256305   -2.190891    0.000000    0.183000
    39  Na    c    -2.329325    4.547538    1.881143    0.000000    1.000000
    40  Na    c     6.837112    4.547538    1.881143    0.000000    1.000000
    41  Na    c    -2.147569    0.019964   -2.601031    0.000000    1.000000
    42  Na    c     6.655357    0.019964   -2.601031    0.000000    1.000000
    43  Na    c    -2.396144    2.659518    4.553782    0.000000    1.000000
    44  Na    c     6.903932    2.659518    4.553782    0.000000    1.000000
    45  Na    c    -2.317255   -1.871699    0.010336    0.000000    1.000000
    46  Na    c     6.825042   -1.871699    0.010336    0.000000    1.000000
    47  O     c     2.253894    2.202865    6.854097    0.000000    0.183000
    48  O     c    -2.216090   -2.189917    2.265454    0.000000    0.183000
    49  O     c     6.723877   -2.189917    2.265454    0.000000    0.183000
    50  Na    c     2.253894   -0.023640    7.218932    0.000000    1.000000
    51  Na    c     2.253894   -4.471431    2.461740    0.000000    1.000000
    52  Cl    c     4.552935   -0.070362   -4.574452    0.000000    1.485000
    53  Cl    c    -0.045148   -0.070362   -4.574452    0.000000    1.485000
    54  Na    c     4.522187    6.783922    2.329400    0.000000    1.000000
    55  Na    c    -0.014399    6.783922    2.329400    0.000000    1.000000
    56  Cl    c     4.523605   -4.576200   -0.086973    0.000000    1.485000
    57  Cl    c    -0.015818   -4.576200   -0.086973    0.000000    1.485000
    58  Na    c     4.526856    2.115992    6.734377    0.000000    1.000000
    59  Na    c    -0.019069    2.115992    6.734377    0.000000    1.000000
    60  O     c     2.253894    6.734302   -2.243103    0.000000    0.183000
    61  Na    c    -2.299233    4.507312   -1.883650    0.000000    1.000000
    62  Na    c     6.807020    4.507312   -1.883650    0.000000    1.000000
    63  Na    c     2.253894    6.213514    4.435549    0.000000    1.000000
    64  Na    c     2.253894   -2.485171   -4.482146    0.000000    1.000000
    65  O     c    -2.256243   -2.228577   -2.244708    0.000000    0.183000
    66  O     c     6.764030   -2.228577   -2.244708    0.000000    0.183000
    67  Na    c     2.253894    4.465072    6.815521    0.000000    1.000000
    68  Na    c     2.253894   -4.476513   -2.052803    0.000000    1.000000
    69  Na    c    -2.165878   -2.611858    4.494199    0.000000    1.000000
    70  Na    c     6.673665   -2.611858    4.494199    0.000000    1.000000
    71  O     c     2.253894   -2.225738    6.730610    0.000000    0.183000
    72  Cl    c     4.564499    4.586726   -4.586271    0.000000    1.485000
    73  Cl    c    -0.056712    4.586726   -4.586271    0.000000    1.485000
    74  Na    c     4.511341    6.646499   -2.313674    0.000000    1.000000
    75  Na    c    -0.003553    6.646499   -2.313674    0.000000    1.000000
    76  Cl    c     9.016206    0.053600    0.023738    0.000000    1.485000
    77  Cl    c    -4.508419    0.053600    0.023738    0.000000    1.485000
    78  Na    c     9.008505    2.186262    2.187829    0.000000    1.000000
    79  Na    c    -4.500717    2.186262    2.187829    0.000000    1.000000
    80  Cl    c     4.586289   -4.601411    4.560766    0.000000    1.485000
    81  Cl    c    -0.078502   -4.601411    4.560766    0.000000    1.485000
    82  Na    c     4.510299   -2.128625    6.705496    0.000000    1.000000
    83  Na    c    -0.002512   -2.128625    6.705496    0.000000    1.000000
    84  Na    c     6.658660    2.590478   -4.449984    0.000000    1.000000
    85  Na    c    -2.150872    2.590478   -4.449984    0.000000    1.000000
    86  Na    c     6.591053    7.119196   -0.000064    0.000000    1.000000
    87  Na    c    -2.083265    7.119196   -0.000064    0.000000    1.000000
    88  O     c     6.785128    6.787971    2.245165    0.000000    0.183000
    89  O     c    -2.277340    6.787971    2.245165    0.000000    0.183000
    90  O     c     6.787334    2.273905    6.785184    0.000000    0.183000
    91  O     c    -2.279547    2.273905    6.785184    0.000000    0.183000
    92  Na    c     6.650347   -4.450199    1.914757    0.000000    1.000000
    93  Na    c    -2.142560   -4.450199    1.914757    0.000000    1.000000
    94  Na    c    -2.400615    0.012332    6.441316    0.000000    1.000000
    95  Na    c     6.908402    0.012332    6.441316    0.000000    1.000000
    96  Cl    c     9.054407    4.542434    0.016907    0.000000    1.485000
    97  Cl    c    -4.546620    4.542434    0.016907    0.000000    1.485000
    98  Na    c     8.991159    2.168645   -2.188300    0.000000    1.000000
    99  Na    c    -4.483371    2.168645   -2.188300    0.000000    1.000000
   100  Cl    c     9.038294    0.001597    4.469895    0.000000    1.485000
   101  Cl    c    -4.530507    0.001597    4.469895    0.000000    1.485000
   102  Na    c     8.990917   -2.176177    2.342089    0.000000    1.000000
   103  Na    c    -4.483130   -2.176177    2.342089    0.000000    1.000000
   104  Na    c     2.253894    6.321592   -4.487965    0.000000    1.000000
   105  O     c     6.773259    6.761997   -2.238031    0.000000    0.183000
   106  O     c    -2.265472    6.761997   -2.238031    0.000000    0.183000
   107  O     c     2.253894    2.247031   -6.740163    0.000000    0.183000
   108  Na    c     2.253894    9.028917    2.693626    0.000000    1.000000
   109  Na    c     2.253894    0.011098   -6.364584    0.000000    1.000000
   110  Na    c     6.900022    6.462278    4.510033    0.000000    1.000000
   111  Na    c    -2.392235    6.462278    4.510033    0.000000    1.000000
   112  Na    c    -2.131239   -2.560065   -4.486015    0.000000    1.000000
   113  Na    c     6.639026   -2.560065   -4.486015    0.000000    1.000000
   114  O     c     2.253894    6.731326    6.670569    0.000000    0.183000
   115  Na    c    -2.023049    4.516381    7.063774    0.000000    1.000000
   116  Na    c     6.530836    4.516381    7.063774    0.000000    1.000000
   117  Na    c     6.814942   -4.490189   -1.930353    0.000000    1.000000
   118  Na    c    -2.307155   -4.490189   -1.930353    0.000000    1.000000
   119  Na    c     2.253894    2.480498    9.063955    0.000000    1.000000
   120  Na    c     2.253894   -6.682538    0.022347    0.000000    1.000000
   121  O     c     2.253894   -6.761673    2.288276    0.000000    0.183000
   122  O     c    -2.261530   -2.254321    6.740216    0.000000    0.183000
   123  O     c     6.769318   -2.254321    6.740216    0.000000    0.183000
   124  Na    c     2.253894   -4.475652    6.327505    0.000000    1.000000
   125  Cl    c     4.528744    9.094761   -0.008379    0.000000    1.485000
   126  Cl    c    -0.020956    9.094761   -0.008379    0.000000    1.485000
   127  Na    c     4.505871    2.129568   -6.729110    0.000000    1.000000
   128  Na    c     0.001916    2.129568   -6.729110    0.000000    1.000000
   129  Cl    c     4.492309   -4.534581   -4.526806    0.000000    1.485000
   130  Cl    c     0.015478   -4.534581   -4.526806    0.000000    1.485000
   131  Na    c     4.519015    6.854454    6.590925    0.000000    1.000000
   132  Na    c    -0.011228    6.854454    6.590925    0.000000    1.000000
   133  Cl    c     9.105287    4.526842    4.569125    0.000000    1.485000
   134  Cl    c    -4.597500    4.526842    4.569125    0.000000    1.485000
   135  Na    c     9.009880   -2.148450   -2.360083    0.000000    1.000000
   136  Na    c    -4.502093   -2.148450   -2.360083    0.000000    1.000000
   137  Cl    c     4.525582   -0.007989    9.064064    0.000000    1.485000
   138  Cl    c    -0.017794   -0.007989    9.064064    0.000000    1.485000
   139  Na    c     4.505939   -6.713766    2.380938    0.000000    1.000000
   140  Na    c     0.001848   -6.713766    2.380938    0.000000    1.000000
   141  Na    c     2.253894    8.980097   -2.647888    0.000000    1.000000
   142  Na    c     2.253894    4.497017   -7.104627    0.000000    1.000000
[...]
    321 y          4.507787      4.526653     0.018866    Cartesian    0.42
    321 z          4.507787      4.572058     0.064270    Cartesian    1.43
    322 x          4.507787      4.523942     0.016155    Cartesian    0.36
    322 y          0.000000     -0.007140    -0.007140    Cartesian    0.00
    322 z          9.015574      9.063297     0.047723    Cartesian    0.53
    323 x          2.253894      2.253894     0.000000    Cartesian    0.00
    323 y         -2.253894     -2.222732     0.031162    Cartesian   -1.38
    323 z         -6.761681     -6.749792     0.011889    Cartesian   -0.18
    324 x          2.253894      2.253894     0.000000    Cartesian    0.00
    324 y         -6.761681     -6.724207     0.037473    Cartesian   -0.55
    324 z         -2.253894     -2.254246    -0.000352    Cartesian    0.02
    325 x          4.507787      4.562543     0.054756    Cartesian    1.21
    325 y          9.015574      9.086247     0.070673    Cartesian    0.78
    325 z          4.507787      4.531221     0.023434    Cartesian    0.52
    326 x          9.015574      9.063743     0.048168    Cartesian    0.53
    326 y          0.000000     -0.019242    -0.019242    Cartesian    0.00
    326 z         -4.507787     -4.487118     0.020669    Cartesian   -0.46
    327 x          4.507787      4.449526    -0.058261    Cartesian   -1.29
    327 y          4.507787      4.500181    -0.007606    Cartesian   -0.17
    327 z          9.015574      9.082768     0.067194    Cartesian    0.75
    328 x          9.015574      9.031608     0.016034    Cartesian    0.18
    328 y         -4.507787     -4.535570    -0.027783    Cartesian    0.62
    328 z          0.000000      0.003165     0.003165    Cartesian    0.00
    329 x          6.761681      6.757887    -0.003794    Cartesian   -0.06
    329 y          2.253894      2.265632     0.011738    Cartesian    0.52
    329 z         -6.761681     -6.720036     0.041645    Cartesian   -0.62
    330 x          6.761681      6.780775     0.019094    Cartesian    0.28
    330 y          6.761681      6.756371    -0.005310    Cartesian   -0.08
    330 z          6.761681      6.778196     0.016515    Cartesian    0.24
    331 x         11.269468     11.266221    -0.003247    Cartesian   -0.03
    331 y          2.253894      2.254638     0.000744    Cartesian    0.03
    331 z          2.253894      2.247490    -0.006403    Cartesian   -0.28
    332 x          6.761681      6.756132    -0.005548    Cartesian   -0.08
    332 y         -6.761681     -6.722837     0.038844    Cartesian   -0.57
    332 z          2.253894      2.234763    -0.019130    Cartesian   -0.85
    333 x          9.015574      9.047805     0.032230    Cartesian    0.36
    333 y          4.507787      4.511176     0.003389    Cartesian    0.08
    333 z         -4.507787     -4.533850    -0.026063    Cartesian    0.58
    334 x          9.015574      9.067845     0.052270    Cartesian    0.58
    334 y         -4.507787     -4.500289     0.007498    Cartesian   -0.17
    334 z          4.507787      4.548471     0.040684    Cartesian    0.90
    335 x          2.253894      2.253894     0.000000    Cartesian    0.00
    335 y          6.761681      6.752734    -0.008947    Cartesian   -0.13
    335 z         -6.761681     -6.730545     0.031136    Cartesian   -0.46
    336 x         11.269468     11.262295    -0.007173    Cartesian   -0.06
    336 y          2.253894      2.253555    -0.000338    Cartesian   -0.02
    336 z         -2.253894     -2.228677     0.025216    Cartesian   -1.12
    337 x          6.761681      6.768640     0.006959    Cartesian    0.10
    337 y         -2.253894     -2.260565    -0.006671    Cartesian    0.30
    337 z         -6.761681     -6.736357     0.025324    Cartesian   -0.37
    338 x          6.761681      6.764796     0.003115    Cartesian    0.05
    338 y         -6.761681     -6.754626     0.007055    Cartesian   -0.10
    338 z         -2.253894     -2.239719     0.014175    Cartesian   -0.63
    339 x         11.269468     11.260216    -0.009252    Cartesian   -0.08
    339 y         -2.253894     -2.236845     0.017049    Cartesian   -0.76
    339 z          2.253894      2.246400    -0.007493    Cartesian   -0.33
    340 x          2.253894      2.253894     0.000000    Cartesian    0.00
    340 y         -6.761681     -6.748801     0.012880    Cartesian   -0.19
    340 z          6.761681      6.728549    -0.033132    Cartesian   -0.49
    341 x          4.507787      4.523138     0.015351    Cartesian    0.34
    341 y          9.015574      9.072383     0.056808    Cartesian    0.63
    341 z         -4.507787     -4.544573    -0.036786    Cartesian    0.82
    342 x          4.507787      4.521311     0.013524    Cartesian    0.30
    342 y         -4.507787     -4.529604    -0.021817    Cartesian    0.48
    342 z          9.015574      9.083211     0.067636    Cartesian    0.75
    343 x          2.253894      2.253894     0.000000    Cartesian    0.00
    343 y         11.269468     11.253164    -0.016304    Cartesian   -0.14
    343 z          2.253894      2.250892    -0.003001    Cartesian   -0.13
    344 x         11.269468     11.264996    -0.004473    Cartesian   -0.04
    344 y         -2.253894     -2.246355     0.007539    Cartesian   -0.33
    344 z         -2.253894     -2.225807     0.028086    Cartesian   -1.25
    345 x          2.253894      2.253894     0.000000    Cartesian    0.00
    345 y          2.253894      2.249537    -0.004357    Cartesian   -0.19
    345 z         11.269468     11.285655     0.016187    Cartesian    0.14
    346 x          4.507787      4.521226     0.013439    Cartesian    0.30
    346 y          0.000000     -0.000163    -0.000163    Cartesian    0.00
    346 z         -9.015574     -9.070523    -0.054949    Cartesian    0.61
    347 x          9.015574      9.063134     0.047559    Cartesian    0.53
    347 y          9.015574      9.026950     0.011376    Cartesian    0.13
    347 z          0.000000      0.002300     0.002300    Cartesian    0.00
    348 x          9.015574      9.054664     0.039090    Cartesian    0.43
    348 y         -4.507787     -4.503404     0.004383    Cartesian   -0.10
    348 z         -4.507787     -4.530011    -0.022224    Cartesian    0.49
    349 x          9.015574      9.011666    -0.003909    Cartesian   -0.04
    349 y          0.000000      0.004491     0.004491    Cartesian    0.00
    349 z          9.015574      9.055228     0.039653    Cartesian    0.44
    350 x          4.507787      4.479170    -0.028617    Cartesian   -0.63
    350 y         -9.015574     -9.042224    -0.026650    Cartesian    0.30
    350 z          0.000000      0.019478     0.019478    Cartesian    0.00
    351 x          2.253894      2.253894     0.000000    Cartesian    0.00
    351 y         11.269468     11.231188    -0.038280    Cartesian   -0.34
    351 z         -2.253894     -2.249948     0.003946    Cartesian   -0.18
    352 x          6.761681      6.767910     0.006229    Cartesian    0.09
    352 y          6.761681      6.745849    -0.015831    Cartesian   -0.23
    352 z         -6.761681     -6.757492     0.004189    Cartesian   -0.06
    353 x         11.269468     11.271922     0.002454    Cartesian    0.02
    353 y          6.761681      6.740581    -0.021100    Cartesian   -0.31
    353 z          2.253894      2.260258     0.006365    Cartesian    0.28
    354 x         11.269468     11.273695     0.004227    Cartesian    0.04
    354 y          2.253894      2.241225    -0.012668    Cartesian   -0.56
    354 z          6.761681      6.760051    -0.001630    Cartesian   -0.02
    355 x          6.761681      6.770665     0.008985    Cartesian    0.13
    355 y         -6.761681     -6.734321     0.027360    Cartesian   -0.40
    355 z          6.761681      6.776314     0.014633    Cartesian    0.22
    356 x          2.253894      2.253894     0.000000    Cartesian    0.00
    356 y         -2.253894     -2.277617    -0.023724    Cartesian    1.05
    356 z         11.269468     11.233295    -0.036173    Cartesian   -0.32
    357 x          4.507787      4.513715     0.005928    Cartesian    0.13
    357 y          4.507787      4.512203     0.004416    Cartesian    0.10
    357 z         -9.015574     -9.036427    -0.020853    Cartesian    0.23
    358 x          9.015574      9.052890     0.037315    Cartesian    0.41
    358 y          9.015574      9.066566     0.050992    Cartesian    0.57
    358 z          4.507787      4.503253    -0.004534    Cartesian   -0.10
    359 x          9.015574      9.072198     0.056623    Cartesian    0.63
    359 y          4.507787      4.502721    -0.005066    Cartesian   -0.11
    359 z          9.015574      9.052007     0.036433    Cartesian    0.40
    360 x          4.507787      4.524302     0.016514    Cartesian    0.37
    360 y         -9.015574     -9.036424    -0.020850    Cartesian    0.23
    360 z          4.507787      4.514596     0.006809    Cartesian    0.15
    361 x         11.269468     11.269569     0.000101    Cartesian    0.00
    361 y          6.761681      6.739606    -0.022075    Cartesian   -0.33
    361 z         -2.253894     -2.250253     0.003640    Cartesian   -0.16
    362 x         -2.253894     -2.256675    -0.002781    Cartesian    0.12
    362 y         11.269468     11.267039    -0.002429    Cartesian   -0.02
    362 z          2.253894      2.268800     0.014907    Cartesian    0.66
    363 x          2.253894      2.253894     0.000000    Cartesian    0.00
    363 y         -6.761681     -6.750310     0.011371    Cartesian   -0.17
    363 z         -6.761681     -6.754803     0.006878    Cartesian   -0.10
    364 x         11.269468     11.269739     0.000271    Cartesian    0.00
    364 y         -2.253894     -2.236724     0.017170    Cartesian   -0.76
    364 z          6.761681      6.750835    -0.010845    Cartesian   -0.16
    365 x         -2.253894     -2.251767     0.002127    Cartesian   -0.09
    365 y          2.253894      2.235268    -0.018625    Cartesian   -0.83
    365 z         11.269468     11.268039    -0.001429    Cartesian   -0.01
    366 x         13.523362     13.578145     0.054783    Cartesian    0.41
    366 y          0.000000     -0.011107    -0.011107    Cartesian    0.00
    366 z          0.000000      0.002911     0.002911    Cartesian    0.00
    367 x          4.507787      4.526556     0.018769    Cartesian    0.42
    367 y          9.015574      9.035969     0.020394    Cartesian    0.23
    367 z          9.015574      9.052336     0.036761    Cartesian    0.41
    368 x         -2.253894     -2.252743     0.001151    Cartesian   -0.05
    368 y         11.269468     11.258466    -0.011002    Cartesian   -0.10
    368 z         -2.253894     -2.272091    -0.018197    Cartesian    0.81
    369 x          2.253894      2.253894     0.000000    Cartesian    0.00
    369 y         11.269468     11.254770    -0.014698    Cartesian   -0.13
    369 z          6.761681      6.734778    -0.026903    Cartesian   -0.40
    370 x          2.253894      2.253894     0.000000    Cartesian    0.00
    370 y          6.761681      6.761532    -0.000148    Cartesian   -0.00
    370 z         11.269468     11.261381    -0.008087    Cartesian   -0.07
    371 x          6.761681      6.764924     0.003243    Cartesian    0.05
    371 y         -2.253894     -2.229589     0.024305    Cartesian   -1.08
    371 z         11.269468     11.258141    -0.011327    Cartesian   -0.10
    372 x          9.015574      9.046456     0.030881    Cartesian    0.34
    372 y          9.015574      9.057350     0.041776    Cartesian    0.46
    372 z         -4.507787     -4.508292    -0.000505    Cartesian    0.01
    373 x         13.523362     13.579759     0.056397    Cartesian    0.42
    373 y          4.507787      4.513362     0.005575    Cartesian    0.12
    373 z          0.000000     -0.006896    -0.006896    Cartesian    0.00
    374 x          4.507787      4.537460     0.029673    Cartesian    0.66
    374 y         -4.507787     -4.542298    -0.034511    Cartesian    0.77
    374 z         -9.015574     -9.020306    -0.004732    Cartesian    0.05
    375 x         13.523362     13.580953     0.057592    Cartesian    0.43
    375 y          0.000000      0.018597     0.018597    Cartesian    0.00
    375 z          4.507787      4.514810     0.007023    Cartesian    0.16
    376 x          4.507787      4.521665     0.013878    Cartesian    0.31
    376 y         -9.015574     -9.074073    -0.058499    Cartesian    0.65
    376 z         -4.507787     -4.525446    -0.017659    Cartesian    0.39
    377 x          9.015574      9.049624     0.034050    Cartesian    0.38
    377 y         -4.507787     -4.508372    -0.000585    Cartesian    0.01
    377 z          9.015574      9.027863     0.012289    Cartesian    0.14
    378 x         11.269468     11.265074    -0.004394    Cartesian   -0.04
    378 y          2.253894      2.237669    -0.016225    Cartesian   -0.72
    378 z         -6.761681     -6.745349     0.016332    Cartesian   -0.24
    379 x         11.269468     11.275340     0.005872    Cartesian    0.05
    379 y          6.761681      6.761372    -0.000309    Cartesian   -0.00
    379 z          6.761681      6.751893    -0.009788    Cartesian   -0.14
    380 x          6.761681      6.766559     0.004878    Cartesian    0.07
    380 y         -6.761681     -6.748616     0.013065    Cartesian   -0.19
    380 z         -6.761681     -6.764341    -0.002660    Cartesian    0.04
    381 x         11.269468     11.264667    -0.004801    Cartesian   -0.04
    381 y         -6.761681     -6.744765     0.016915    Cartesian   -0.25
    381 z          2.253894      2.268723     0.014829    Cartesian    0.66
    382 x          9.015574      9.044424     0.028849    Cartesian    0.32
    382 y          0.000000      0.002831     0.002831    Cartesian    0.00
    382 z         -9.015574     -9.097785    -0.082211    Cartesian    0.91
    383 x         13.523362     13.581367     0.058005    Cartesian    0.43
    383 y          4.507787      4.518725     0.010938    Cartesian    0.24
    383 z          4.507787      4.507445    -0.000343    Cartesian   -0.01
    384 x          9.015574      9.018165     0.002590    Cartesian    0.03
    384 y         -9.015574     -9.011472     0.004103    Cartesian   -0.05
    384 z          0.000000     -0.002849    -0.002849    Cartesian    0.00
    385 x          2.253894      2.253894     0.000000    Cartesian    0.00
    385 y          2.253894      2.237751    -0.016143    Cartesian   -0.72
    385 z        -11.269468    -11.255766     0.013702    Cartesian   -0.12
    386 x          6.761681      6.767461     0.005780    Cartesian    0.09
    386 y         11.269468     11.272032     0.002564    Cartesian    0.02
    386 z          6.761681      6.757034    -0.004647    Cartesian   -0.07
    387 x         11.269468     11.268949    -0.000519    Cartesian   -0.00
    387 y         -2.253894     -2.244071     0.009823    Cartesian   -0.44
    387 z         -6.761681     -6.759289     0.002392    Cartesian   -0.04
    388 x          6.761681      6.764547     0.002867    Cartesian    0.04
    388 y          6.761681      6.771289     0.009608    Cartesian    0.14
    388 z         11.269468     11.256437    -0.013031    Cartesian   -0.12
    389 x         11.269468     11.275634     0.006166    Cartesian    0.05
    389 y         -6.761681     -6.746254     0.015427    Cartesian   -0.23
    389 z         -2.253894     -2.257407    -0.003514    Cartesian    0.16
    390 x          2.253894      2.253894     0.000000    Cartesian    0.00
    390 y        -11.269468    -11.263136     0.006332    Cartesian   -0.06
    390 z          2.253894      2.235481    -0.018412    Cartesian   -0.82
    391 x          4.507787      4.463318    -0.044469    Cartesian   -0.99
    391 y         13.523362     13.592614     0.069253    Cartesian    0.51
    391 z          0.000000     -0.003319    -0.003319    Cartesian    0.00
    392 x          9.015574      9.017867     0.002292    Cartesian    0.03
    392 y          4.507787      4.506712    -0.001075    Cartesian   -0.02
    392 z         -9.015574     -9.008469     0.007105    Cartesian   -0.08
    393 x         13.523362     13.558909     0.035548    Cartesian    0.26
    393 y          0.000000     -0.002174    -0.002174    Cartesian    0.00
    393 z         -4.507787     -4.506830     0.000957    Cartesian   -0.02
    394 x         13.523362     13.575227     0.051865    Cartesian    0.38
    394 y         -4.507787     -4.512202    -0.004414    Cartesian    0.10
    394 z          0.000000      0.004639     0.004639    Cartesian    0.00
    395 x          4.507787      4.546080     0.038293    Cartesian    0.85
    395 y          0.000000     -0.001513    -0.001513    Cartesian    0.00
    395 z         13.523362     13.588097     0.064735    Cartesian    0.48
    396 x          9.015574      9.047464     0.031889    Cartesian    0.35
    396 y         -9.015574     -9.089330    -0.073755    Cartesian    0.82
    396 z          4.507787      4.514361     0.006574    Cartesian    0.15
    397 x          2.253894      2.253894     0.000000    Cartesian    0.00
    397 y         11.269468     11.266947    -0.002521    Cartesian   -0.02
    397 z         -6.761681     -6.749400     0.012280    Cartesian   -0.18
    398 x          2.253894      2.253894     0.000000    Cartesian    0.00
    398 y         -2.253894     -2.244537     0.009357    Cartesian   -0.42
    398 z        -11.269468    -11.276962    -0.007494    Cartesian    0.07
    399 x          2.253894      2.253894     0.000000    Cartesian    0.00
    399 y        -11.269468    -11.272522    -0.003054    Cartesian    0.03
    399 z         -2.253894     -2.258268    -0.004374    Cartesian    0.19
    400 x          2.253894      2.253894     0.000000    Cartesian    0.00
    400 y         -6.761681     -6.752895     0.008786    Cartesian   -0.13
    400 z         11.269468     11.280696     0.011228    Cartesian    0.10
    401 x          4.507787      4.506008    -0.001779    Cartesian   -0.04
    401 y          9.015574      9.025266     0.009692    Cartesian    0.11
    401 z         -9.015574     -9.084192    -0.068618    Cartesian    0.76
--------------------------------------------------------------------------------


  Time to end of optimisation  =      331.1928 seconds


  Peak dynamic memory used =     146.68 MB 


  Timing analysis for GULP :

--------------------------------------------------------------------------------
  Task / Subroutine                                          Time (Seconds)
--------------------------------------------------------------------------------
  Calculation of reciprocal space energy and derivatives          0.0007
  Calculation of reciprocal space energy using symmetry           0.0010
  Calculation of real space energy and derivatives                0.0036
  Calculation of real space energy using symmetry                 0.0092
  Calculation for region 1 energy and derivatives (2-b)         118.8729
  Calculation for region 2a energy                              202.4357
  Calculation for region 2b energy                                0.0283
  Calculation and manipulation of Hessian matrix                  0.2898
  Calculation of matrix inversion                                 8.8923
  Symmetry generation of equivalent positions                     0.0046
--------------------------------------------------------------------------------
  Total CPU time                                                331.1929
--------------------------------------------------------------------------------


  Dump file written as Na3OCl.grs


  Job Finished at 14:34.13  3rd December   2020                               

