********************************************************************************
*                       GENERAL UTILITY LATTICE PROGRAM                        *
*                                 Julian Gale                                  *
*                       Curtin Institute for Computation                       *
*                    School of Molecular and Life Sciences                     *
*                    Curtin University, Western Australia                      *
********************************************************************************
* Version = 5.2.0 * Last modified =  10th September 2020                       *
********************************************************************************
*  optimise     - perform optimisation run                                     *
*  conp         - constant pressure calculation                                *
*  property     - calculate properties for final geometry                      *
*  defect       - perform defect calculation after bulk run                    *
*  compare      - compare initial and final structures                         *
********************************************************************************

  Job Started  at 14:29.39  3rd December   2020                               

  Number of CPUs =     1


  Total number of configurations input =      1

********************************************************************************
*  Input for Configuration =   1                                               *
********************************************************************************

  Formula = ClONa3                                                      

  Number of irreducible atoms/shells =       5


  Total number atoms/shells =       7

  Dimensionality = 3               :  Bulk   


  Symmetry :

  Crystal family                   :  Cubic       
  Crystal class  (Groth - 1921)    :  Cubic Hexakisoctahedral              

  Space group (centrosymmetric)    :  P M 3 M         

  Patterson group                  :  P m -3 m 

  Cartesian lattice vectors (Angstroms) :

        4.504000    0.000000    0.000000
        0.000000    4.504000    0.000000
        0.000000    0.000000    4.504000

  Cell parameters (Angstroms/Degrees):

  a =       4.5040    alpha =  90.0000
  b =       4.5040    beta  =  90.0000
  c =       4.5040    gamma =  90.0000

  Initial cell volume =          91.368216 Angs**3

  Temperature of configuration =   0.00     K 

  Pressure of configuration =         0.000 GPa 

  Fractional coordinates of asymmetric unit :

--------------------------------------------------------------------------------
   No.  Atomic       x           y          z         Charge      Occupancy
        Label      (Frac)      (Frac)     (Frac)        (e)         (Frac)  
--------------------------------------------------------------------------------
      1 Cl    c    0.000000    0.000000    0.000000     1.48500    1.000000    
      2 O     c    0.500000    0.500000    0.500000     0.18300    1.000000    
      3 Na    c    0.500000    0.500000    0.000000     1.00000    1.000000    
      4 Cl    s    0.000000    0.000000    0.000000    -2.48500    1.000000    
      5 O     s    0.500000    0.500000    0.500000    -2.18300    1.000000    
--------------------------------------------------------------------------------


  Constraints : 

--------------------------------------------------------------------------------
  Constraint no.      Unconstrained     Constrained    Coefficient    Offset
                         Variable         Variable
--------------------------------------------------------------------------------
           1              Strain 1        Strain 2       1.00000      0.0000
           2              Strain 1        Strain 3       1.00000      0.0000
--------------------------------------------------------------------------------


********************************************************************************
*  General input information                                                   *
********************************************************************************

  Species output for all configurations : 

--------------------------------------------------------------------------------
  Species    Type    Atomic    Atomic    Charge       Radii (Angs)     Library
                     Number     Mass       (e)     Cova   Ionic  VDW   Symbol
--------------------------------------------------------------------------------
    Na       Core       11      22.99   1.000000   0.970  0.000  2.300          
    O        Core        8      16.00   0.183000   0.730  0.000  1.360          
    O        Shell       8       0.00  -2.183000   0.730  0.000  0.000          
    Cl       Core       17      35.45   1.485000   0.990  0.000  1.650          
    Cl       Shell      17       0.00  -2.485000   0.990  0.000  0.000          
    Mg       Core       12      24.31   0.415000   1.100  0.000  0.000          
    Mg       Shell      12       0.00   1.585000   1.100  0.000  0.000          
    Ca       Core       20      40.08  -1.135000   0.990  0.000  0.000          
    Ca       Shell      20       0.00   3.135000   0.990  0.000  0.000          
    Sr       Core       38      87.62  -1.251000   1.120  0.000  0.000          
    Sr       Shell      38       0.00   3.251000   1.120  0.000  0.000          
    Ba       Core       56     137.33  -7.203000   1.340  0.000  0.000          
    Ba       Shell      56       0.00   9.203000   1.340  0.000  0.000          
--------------------------------------------------------------------------------


  Lattice summation method               =    Ewald          (3-D)
                                         =    Parry          (2-D)
                                         =    Saunders et al (1-D)
  Accuracy factor for lattice sums       =   12.000


  Analytic derivatives to be used

  Time limit = Infinity

  Maximum range for interatomic potentials =    100000.000000 Angstroms

  General interatomic potentials :

--------------------------------------------------------------------------------
Atom  Types   Potential      Parameter       Value         Units   Cutoffs(Ang)
  1     2                                                            Min /  Max 
--------------------------------------------------------------------------------
O    c O    s Spring (c-s)  Spring k 2       593.71600    eV*Ang^-2 0.000  0.800
                            Spring k 4       0.0000000    eV*Ang^-4 
--------------------------------------------------------------------------------
Cl   c Cl   s Spring (c-s)  Spring k 2       29.380000    eV*Ang^-2 0.000  0.800
                            Spring k 4       0.0000000    eV*Ang^-4 
--------------------------------------------------------------------------------
Mg   c Mg   s Spring (c-s)  Spring k 2       361.60000    eV*Ang^-2 0.000  0.800
                            Spring k 4       0.0000000    eV*Ang^-4 
--------------------------------------------------------------------------------
Ca   c Ca   s Spring (c-s)  Spring k 2       110.20000    eV*Ang^-2 0.000  0.800
                            Spring k 4       0.0000000    eV*Ang^-4 
--------------------------------------------------------------------------------
Sr   c Sr   s Spring (c-s)  Spring k 2       71.700000    eV*Ang^-2 0.000  0.800
                            Spring k 4       0.0000000    eV*Ang^-4 
--------------------------------------------------------------------------------
Ba   c Ba   s Spring (c-s)  Spring k 2       495.20000    eV*Ang^-2 0.000  0.800
                            Spring k 4       0.0000000    eV*Ang^-4 
--------------------------------------------------------------------------------
Na   c Na   c Buckingham    Buckingham A     1788.1900    eV        0.000 12.000
                            Buckingham rho  0.15900000    Ang       
                            Buckingham C     0.0000000    eV*Ang^6  
--------------------------------------------------------------------------------
Na   c O    s Buckingham    Buckingham A     1226.8400    eV        0.000 12.000
                            Buckingham rho  0.30700000    Ang       
                            Buckingham C     0.0000000    eV*Ang^6  
--------------------------------------------------------------------------------
Na   c Cl   s Buckingham    Buckingham A     2314.7000    eV        0.000 12.000
                            Buckingham rho  0.29000000    Ang       
                            Buckingham C     0.0000000    eV*Ang^6  
--------------------------------------------------------------------------------
O    s O    s Buckingham    Buckingham A     22764.300    eV        0.000 12.000
                            Buckingham rho  0.14900000    Ang       
                            Buckingham C     13.190000    eV*Ang^6  
--------------------------------------------------------------------------------
O    s Cl   s Buckingham    Buckingham A     8286.9100    eV        0.000 12.000
                            Buckingham rho  0.25900000    Ang       
                            Buckingham C     62.200000    eV*Ang^6  
--------------------------------------------------------------------------------
Cl   s Cl   s Buckingham    Buckingham A     1227.2000    eV        0.000 12.000
                            Buckingham rho  0.32100000    Ang       
                            Buckingham C     14.530000    eV*Ang^6  
--------------------------------------------------------------------------------
O    s Mg   s Buckingham    Buckingham A     1428.5000    eV        0.000 12.000
                            Buckingham rho  0.29450000    Ang       
                            Buckingham C     0.0000000    eV*Ang^6  
--------------------------------------------------------------------------------
Mg   s Cl   s Buckingham    Buckingham A     4914.5400    eV        0.000 12.000
                            Buckingham rho  0.25700000    Ang       
                            Buckingham C     0.0000000    eV*Ang^6  
--------------------------------------------------------------------------------
O    s Ca   s Buckingham    Buckingham A     1090.4000    eV        0.000 12.000
                            Buckingham rho  0.34370000    Ang       
                            Buckingham C     0.0000000    eV*Ang^6  
--------------------------------------------------------------------------------
Cl   s Ca   s Buckingham    Buckingham A     2302.0000    eV        0.000 12.000
                            Buckingham rho  0.34020000    Ang       
                            Buckingham C     0.0000000    eV*Ang^6  
--------------------------------------------------------------------------------
O    s Sr   s Buckingham    Buckingham A     959.10000    eV        0.000 12.000
                            Buckingham rho  0.37210000    Ang       
                            Buckingham C     0.0000000    eV*Ang^6  
--------------------------------------------------------------------------------
Cl   s Sr   s Buckingham    Buckingham A     2191.0900    eV        0.000 12.000
                            Buckingham rho  0.34570000    Ang       
                            Buckingham C     0.0000000    eV*Ang^6  
--------------------------------------------------------------------------------
O    s Ba   s Buckingham    Buckingham A     905.70000    eV        0.000 12.000
                            Buckingham rho  0.39760000    Ang       
                            Buckingham C     0.0000000    eV*Ang^6  
--------------------------------------------------------------------------------
Cl   s Ba   s Buckingham    Buckingham A     2704.5500    eV        0.000 12.000
                            Buckingham rho  0.35280000    Ang       
                            Buckingham C     0.0000000    eV*Ang^6  
--------------------------------------------------------------------------------

********************************************************************************
*  Output for configuration   1                                                *
********************************************************************************


  Components of energy : 

--------------------------------------------------------------------------------
  Interatomic potentials     =           5.13022605 eV    
  Monopole - monopole (real) =         -10.03624526 eV    
  Monopole - monopole (recip)=         -29.53581274 eV    
  Monopole - monopole (total)=         -39.57205800 eV    
--------------------------------------------------------------------------------
  Total lattice energy       =         -34.44183194 eV    
--------------------------------------------------------------------------------
  Total lattice energy       =           -3323.1103 kJ/(mole unit cells)
--------------------------------------------------------------------------------


  Number of variables =        1

  Maximum number of calculations  =          1000
  Maximum Hessian update interval =            10
  Maximum step size               =   1.000000000
  Maximum parameter tolerance     =   0.000010000
  Maximum function  tolerance     =   0.000010000
  Maximum gradient  tolerance     =   0.001000000
  Maximum gradient  component     =   0.010000000

  Symmetry constrained optimisation

  Symmetry used for second derivatives

  Cell parameters to be optimised using strains

  Newton-Raphson optimiser to be used

  BFGS hessian update to be used

  Lower half triangular hessian to be used

  Start of bulk optimisation :

  Cycle:      0 Energy:       -34.441832  Gnorm:      0.196570  CPU:    0.016
  ** Hessian calculated **
  Cycle:      1 Energy:       -34.441914  Gnorm:      0.000103  CPU:    0.021


  **** Optimisation achieved ****


  Final energy =     -34.44191447 eV
  Final Gnorm  =       0.00000000

  Components of energy : 

--------------------------------------------------------------------------------
  Interatomic potentials     =           5.09689708 eV    
  Monopole - monopole (real) =         -10.02781331 eV    
  Monopole - monopole (recip)=         -29.51099824 eV    
  Monopole - monopole (total)=         -39.53881155 eV    
--------------------------------------------------------------------------------
  Total lattice energy       =         -34.44191447 eV    
--------------------------------------------------------------------------------
  Total lattice energy       =           -3323.1183 kJ/(mole unit cells)
--------------------------------------------------------------------------------

  Final asymmetric unit coordinates :

--------------------------------------------------------------------------------
   No.  Atomic        x           y           z         Radius
        Label       (Frac)      (Frac)      (Frac)       (Angs) 
--------------------------------------------------------------------------------
     1  Cl    c     0.000000    0.000000    0.000000    0.000000
     2  O     c     0.500000    0.500000    0.500000    0.000000
     3  Na    c     0.500000    0.500000    0.000000    0.000000
     4  Cl    s     0.000000    0.000000    0.000000    0.000000
     5  O     s     0.500000    0.500000    0.500000    0.000000
--------------------------------------------------------------------------------

  Final Cartesian lattice vectors (Angstroms) :

        4.507787    0.000000    0.000000
        0.000000    4.507787    0.000000
        0.000000    0.000000    4.507787


  Final cell parameters and derivatives :

--------------------------------------------------------------------------------
       a            4.507787 Angstrom     dE/de1(xx)     0.000000 eV/strain
       b            4.507787 Angstrom     dE/de2(yy)     0.000000 eV/strain
       c            4.507787 Angstrom     dE/de3(zz)     0.000000 eV/strain
       alpha       90.000000 Degrees      dE/de4(yz)     0.000000 eV/strain
       beta        90.000000 Degrees      dE/de5(xz)     0.000000 eV/strain
       gamma       90.000000 Degrees      dE/de6(xy)     0.000000 eV/strain
--------------------------------------------------------------------------------

  Primitive cell volume =            91.598892 Angs**3

  Density of cell =      2.183054 g/cm**3

  Non-primitive cell volume =            91.598892 Angs**3


  Final internal derivatives :

--------------------------------------------------------------------------------
   No.  Atomic          a             b             c           Radius
        Label          (eV)          (eV)          (eV)        (eV/Angs)
--------------------------------------------------------------------------------
      1 Cl    c       0.000000      0.000000      0.000000      0.000000
      2 O     c       0.000000      0.000000      0.000000      0.000000
      3 Na    c       0.000000      0.000000      0.000000      0.000000
      4 Cl    s       0.000000      0.000000      0.000000      0.000000
      5 O     s       0.000000      0.000000      0.000000      0.000000
--------------------------------------------------------------------------------
  Maximum abs         0.000000      0.000000      0.000000      0.000000
--------------------------------------------------------------------------------

  Comparison of initial and final structures : 

--------------------------------------------------------------------------------
  Parameter   Initial value   Final value   Difference    Units      Percent
--------------------------------------------------------------------------------
    Volume        91.368216     91.598892     0.230676    Angs**3      0.25
    a              4.504000      4.507787     0.003787    Angstroms    0.08
    b              4.504000      4.507787     0.003787    Angstroms    0.08
    c              4.504000      4.507787     0.003787    Angstroms    0.08
    alpha         90.000000     90.000000     0.000000    Degrees      0.00
    beta          90.000000     90.000000     0.000000    Degrees      0.00
    gamma         90.000000     90.000000     0.000000    Degrees      0.00
      1 x          0.000000      0.000000     0.000000    Fractional   0.00
      1 y          0.000000      0.000000     0.000000    Fractional   0.00
      1 z          0.000000      0.000000     0.000000    Fractional   0.00
      2 x          0.500000      0.500000     0.000000    Fractional   0.00
      2 y          0.500000      0.500000     0.000000    Fractional   0.00
      2 z          0.500000      0.500000     0.000000    Fractional   0.00
      3 x          0.500000      0.500000     0.000000    Fractional   0.00
      3 y          0.500000      0.500000     0.000000    Fractional   0.00
      3 z          0.000000      0.000000     0.000000    Fractional   0.00
      4 x          0.000000      0.000000     0.000000    Fractional   0.00
      4 y          0.000000      0.000000     0.000000    Fractional   0.00
      4 z          0.000000      0.000000     0.000000    Fractional   0.00
      5 x          0.500000      0.500000     0.000000    Fractional   0.00
      5 y          0.500000      0.500000     0.000000    Fractional   0.00
      5 z          0.500000      0.500000     0.000000    Fractional   0.00
--------------------------------------------------------------------------------


  Born effective charge tensors : 

-------------------------------------------------------------------------------
  Atom             x           y             z
-------------------------------------------------------------------------------
    1 Cl    x      -1.0181     -0.0000      0.0000
            y      -0.0000     -1.0181      0.0000
            z       0.0000      0.0000     -1.0181
-------------------------------------------------------------------------------
    2 O     x      -2.2647      0.0000     -0.0000
            y       0.0000     -2.2647     -0.0000
            z      -0.0000     -0.0000     -2.2647
-------------------------------------------------------------------------------
    3 Na    x       1.2258     -0.0000      0.0000
            y      -0.0000      1.2258     -0.0000
            z       0.0000     -0.0000      0.8313
-------------------------------------------------------------------------------




  Elastic Constant Matrix: (Units=GPa)

-------------------------------------------------------------------------------
  Indices      1         2         3         4         5         6    
-------------------------------------------------------------------------------
       1     95.8177   20.0737   20.0737   -0.0000   -0.0000    0.0000
       2     20.0737   95.8177   20.0737   -0.0000   -0.0000    0.0000
       3     20.0737   20.0737   95.8177   -0.0000   -0.0000    0.0000
       4     -0.0000   -0.0000   -0.0000   20.0737   -0.0000    0.0000
       5     -0.0000   -0.0000   -0.0000   -0.0000   20.0737    0.0000
       6      0.0000    0.0000    0.0000    0.0000    0.0000   20.0737
-------------------------------------------------------------------------------


  Elastic Compliance Matrix: (Units=1/GPa)

-------------------------------------------------------------------------------
  Indices      1         2         3         4         5         6    
-------------------------------------------------------------------------------
       1    0.011253 -0.001949 -0.001949  0.000000  0.000000 -0.000000
       2   -0.001949  0.011253 -0.001949  0.000000  0.000000  0.000000
       3   -0.001949 -0.001949  0.011253  0.000000  0.000000 -0.000000
       4    0.000000  0.000000  0.000000  0.049816  0.000000 -0.000000
       5    0.000000  0.000000  0.000000  0.000000  0.049816 -0.000000
       6   -0.000000  0.000000 -0.000000 -0.000000 -0.000000  0.049816
-------------------------------------------------------------------------------

  Mechanical properties :

-------------------------------------------------------------------------------
  Convention :                    Reuss         Voigt         Hill
-------------------------------------------------------------------------------
  Bulk  Modulus (GPa)     =      45.32174      45.32174      45.32174
  Shear Modulus (GPa)     =      24.72085      27.19304      25.95695
-------------------------------------------------------------------------------
  Velocity S-wave (km/s)  =       3.36511       3.52937       3.44822
  Velocity P-wave (km/s)  =       5.98827       6.11304       6.05098
-------------------------------------------------------------------------------
  Compressibility (1/GPa) =    0.02206447
-------------------------------------------------------------------------------
  Stress axis :                     x             y             z
-------------------------------------------------------------------------------
  Youngs Moduli (GPa)     =      88.86373      88.86373      88.86373
-------------------------------------------------------------------------------
  Poissons Ratio (x)      =                     0.17321       0.17321
  Poissons Ratio (y)      =       0.17321                     0.17321
  Poissons Ratio (z)      =       0.17321       0.17321
-------------------------------------------------------------------------------


  Piezoelectric Strain Matrix: (Units=C/m**2)

-------------------------------------------------------------------------------
  Indices      1         2         3         4         5         6    
-------------------------------------------------------------------------------
       x    -0.00000  -0.00000  -0.00000   0.00000  -0.00000  -0.00000
       y    -0.00000  -0.00000   0.00000  -0.00000   0.00000   0.00000
       z    -0.00000  -0.00000  -0.00000  -0.00000   0.00000   0.00000
-------------------------------------------------------------------------------


  Piezoelectric Stress Matrix: (Units=10**-11 C/N)

-------------------------------------------------------------------------------
  Indices      1         2         3         4         5         6    
-------------------------------------------------------------------------------
       x    -0.00000   0.00000   0.00000   0.00000  -0.00000  -0.00000
       y    -0.00000  -0.00000   0.00000  -0.00000   0.00000   0.00000
       z     0.00000   0.00000  -0.00000  -0.00000   0.00000   0.00000
-------------------------------------------------------------------------------


  Static dielectric constant tensor : 

-------------------------------------------------------------------------------
              x         y         z
-------------------------------------------------------------------------------
       x    22.84729   0.00000   0.00000
       y     0.00000  22.84729  -0.00000
       z     0.00000  -0.00000  22.84729
--------------------------------------------------------------------------------

  High frequency dielectric constant tensor : 

-------------------------------------------------------------------------------
              x         y         z
-------------------------------------------------------------------------------
       x     1.47557   0.00000  -0.00000
       y     0.00000   1.47557  -0.00000
       z    -0.00000  -0.00000   1.47557
-------------------------------------------------------------------------------

  Static refractive indices : 

-------------------------------------------------------------------------------
    1 =    4.77988      2 =    4.77988      3 =    4.77988
-------------------------------------------------------------------------------

  High frequency refractive indices : 

-------------------------------------------------------------------------------
    1 =    1.21473      2 =    1.21473      3 =    1.21473
-------------------------------------------------------------------------------


  Time to end of optimisation =       0.0306 seconds

********************************************************************************
*  Defect calculation for configuration   1 :                                  *
********************************************************************************

  Total number of defects =      3

  Total charge on defect  =  -1.00

  Defect centre is at   0.5000   0.2700   0.2300  Frac

  Region 1 radius =  13.0000      Number of ions =    703

  Number of symmetry inequivalent region 1 ions  =    407

  Region 2 radius =  21.0000      Number of ions =   2258

  Number of symmetry inequivalent region 2a ions =   1210

  Region 2a mode = 4 : screened electrostatics due to region 1 
                       neglect correction to region 1 forces from 2a
                       region 2a displacements based on defects only

  Region 2a ions will only interact with defects in region 1

  Vacancies:

--------------------------------------------------------------------------------
    Specification type     Symbol/Number         x          y          z
--------------------------------------------------------------------------------
    Fractional                               0.500000   0.500000   0.000000
    Fractional                               0.500000   0.000000   0.500000
--------------------------------------------------------------------------------

  Interstitials:

--------------------------------------------------------------------------------
    Specification type     Symbol/Number         x          y          z
--------------------------------------------------------------------------------
    Atom/Fractional         Na               0.500000   0.270000   0.230000
--------------------------------------------------------------------------------


  Symmetry reduced region 1 (Relative to defect centre) :

--------------------------------------------------------------------------------
   No.   Atomic       x            y             z       Radius  Multiplicity   
         Label      (Angs)       (Angs)        (Angs)    (Angs)     
--------------------------------------------------------------------------------
     1  Na    c      0.0000       0.0000       0.0000    0.0000     1    Defect
     2  O     c      0.0000       1.0368 *     1.2171 *  0.0000     1          
     3  Cl    c      2.2539 *    -1.2171 *    -1.0368 *  0.0000     2          
     4  Na    c      2.2539 *     1.0368 *     1.2171 *  0.0000     2          
     5  O     c      0.0000       1.0368 *    -3.2907 *  0.0000     1          
     6  Na    c      0.0000      -1.2171 *    -3.2907 *  0.0000     1          
     7  Na    c      0.0000       3.2907 *     1.2171 *  0.0000     1          
     8  Na    c      0.0000       1.0368 *     3.4710 *  0.0000     1          
     9  Na    c      0.0000      -3.4710 *    -1.0368 *  0.0000     1          
    10  O     c      0.0000      -3.4710 *     1.2171 *  0.0000     1          
    11  Cl    c      2.2539 *     3.2907 *    -1.0368 *  0.0000     2          
    12  Na    c      2.2539 *     1.0368 *    -3.2907 *  0.0000     2          
    13  Cl    c      2.2539 *    -1.2171 *     3.4710 *  0.0000     2          
    14  Na    c      2.2539 *    -3.4710 *     1.2171 *  0.0000     2          
    15  Na    c      0.0000       3.2907 *    -3.2907 *  0.0000     1          
    16  Na    c     -4.5078 *     1.0368 *    -1.0368 *  0.0000     2          
    17  O     c     -4.5078 *     1.0368 *     1.2171 *  0.0000     2          
    18  O     c      0.0000      -3.4710 *    -3.2907 *  0.0000     1          
    19  Na    c     -4.5078 *    -1.2171 *     1.2171 *  0.0000     2          
    20  Na    c      0.0000      -3.4710 *     3.4710 *  0.0000     1          
    21  Cl    c      2.2539 *     3.2907 *     3.4710 *  0.0000     2          
    22  Na    c      2.2539 *    -3.4710 *    -3.2907 *  0.0000     2          
    23  Na    c      0.0000       1.0368 *    -5.5446 *  0.0000     1          
    24  Na    c      0.0000       5.5446 *    -1.0368 *  0.0000     1          
    25  O     c      0.0000       5.5446 *     1.2171 *  0.0000     1          
    26  O     c     -4.5078 *     1.0368 *    -3.2907 *  0.0000     2          
    27  Na    c     -4.5078 *    -1.2171 *    -3.2907 *  0.0000     2          
    28  Na    c     -4.5078 *     3.2907 *     1.2171 *  0.0000     2          
    29  Na    c     -4.5078 *     1.0368 *     3.4710 *  0.0000     2          
    30  Na    c     -4.5078 *    -3.4710 *    -1.0368 *  0.0000     2          
    31  O     c      0.0000       1.0368 *     5.7249 *  0.0000     1          
    32  O     c     -4.5078 *    -3.4710 *     1.2171 *  0.0000     2          
    33  Na    c      0.0000      -1.2171 *     5.7249 *  0.0000     1          
    34  Na    c      0.0000      -5.7249 *     1.2171 *  0.0000     1          
    35  Cl    c      2.2539 *    -1.2171 *    -5.5446 *  0.0000     2          
    36  Na    c      2.2539 *     5.5446 *     1.2171 *  0.0000     2          
    37  Cl    c      2.2539 *    -5.7249 *    -1.0368 *  0.0000     2          
    38  Na    c      2.2539 *     1.0368 *     5.7249 *  0.0000     2          
    39  O     c      0.0000       5.5446 *    -3.2907 *  0.0000     1          
    40  Na    c     -4.5078 *     3.2907 *    -3.2907 *  0.0000     2          
    41  Na    c      0.0000       5.5446 *     3.4710 *  0.0000     1          
    42  Na    c      0.0000      -3.4710 *    -5.5446 *  0.0000     1          
    43  O     c     -4.5078 *    -3.4710 *    -3.2907 *  0.0000     2          
    44  Na    c      0.0000       3.2907 *     5.7249 *  0.0000     1          
    45  Na    c      0.0000      -5.7249 *    -3.2907 *  0.0000     1          
    46  Na    c     -4.5078 *    -3.4710 *     3.4710 *  0.0000     2          
    47  O     c      0.0000      -3.4710 *     5.7249 *  0.0000     1          
    48  Cl    c      2.2539 *     3.2907 *    -5.5446 *  0.0000     2          
    49  Na    c      2.2539 *     5.5446 *    -3.2907 *  0.0000     2          
    50  Cl    c      6.7617 *    -1.2171 *    -1.0368 *  0.0000     2          
    51  Na    c      6.7617 *     1.0368 *     1.2171 *  0.0000     2          
    52  Cl    c      2.2539 *    -5.7249 *     3.4710 *  0.0000     2          
    53  Na    c      2.2539 *    -3.4710 *     5.7249 *  0.0000     2          
    54  Na    c     -4.5078 *     1.0368 *    -5.5446 *  0.0000     2          
    55  Na    c     -4.5078 *     5.5446 *    -1.0368 *  0.0000     2          
    56  O     c     -4.5078 *     5.5446 *     1.2171 *  0.0000     2          
    57  O     c     -4.5078 *     1.0368 *     5.7249 *  0.0000     2          
    58  Na    c     -4.5078 *    -1.2171 *     5.7249 *  0.0000     2          
    59  Na    c      4.5078 *    -5.7249 *     1.2171 *  0.0000     2          
    60  Cl    c      6.7617 *     3.2907 *    -1.0368 *  0.0000     2          
    61  Na    c      6.7617 *     1.0368 *    -3.2907 *  0.0000     2          
    62  Cl    c      6.7617 *    -1.2171 *     3.4710 *  0.0000     2          
    63  Na    c      6.7617 *    -3.4710 *     1.2171 *  0.0000     2          
    64  Na    c      0.0000       5.5446 *    -5.5446 *  0.0000     1          
    65  O     c     -4.5078 *     5.5446 *    -3.2907 *  0.0000     2          
    66  O     c      0.0000       1.0368 *    -7.7985 *  0.0000     1          
    67  Na    c      0.0000       7.7985 *     1.2171 *  0.0000     1          
    68  Na    c      0.0000      -1.2171 *    -7.7985 *  0.0000     1          
    69  Na    c     -4.5078 *     5.5446 *     3.4710 *  0.0000     2          
    70  Na    c     -4.5078 *    -3.4710 *    -5.5446 *  0.0000     2          
    71  O     c      0.0000       5.5446 *     5.7249 *  0.0000     1          
    72  Na    c     -4.5078 *     3.2907 *     5.7249 *  0.0000     2          
    73  Na    c      4.5078 *    -5.7249 *    -3.2907 *  0.0000     2          
    74  Na    c      0.0000       1.0368 *     7.9788 *  0.0000     1          
    75  Na    c      0.0000      -7.9788 *    -1.0368 *  0.0000     1          
    76  O     c      0.0000      -7.9788 *     1.2171 *  0.0000     1          
    77  O     c      4.5078 *    -3.4710 *     5.7249 *  0.0000     2          
    78  Na    c      0.0000      -5.7249 *     5.7249 *  0.0000     1          
    79  Cl    c      2.2539 *     7.7985 *    -1.0368 *  0.0000     2          
    80  Na    c      2.2539 *     1.0368 *    -7.7985 *  0.0000     2          
    81  Cl    c      2.2539 *    -5.7249 *    -5.5446 *  0.0000     2          
    82  Cl    c      6.7617 *     3.2907 *     3.4710 *  0.0000     2          
    83  Na    c      2.2539 *     5.5446 *     5.7249 *  0.0000     2          
    84  Na    c      6.7617 *    -3.4710 *    -3.2907 *  0.0000     2          
    85  Cl    c      2.2539 *    -1.2171 *     7.9788 *  0.0000     2          
    86  Na    c      2.2539 *    -7.9788 *     1.2171 *  0.0000     2          
    87  Na    c      0.0000       7.7985 *    -3.2907 *  0.0000     1          
    88  Na    c      0.0000       3.2907 *    -7.7985 *  0.0000     1          
    89  O     c      0.0000      -3.4710 *    -7.7985 *  0.0000     1          
    90  O     c      0.0000      -7.9788 *    -3.2907 *  0.0000     1          
    91  Na    c      0.0000      -3.4710 *     7.9788 *  0.0000     1          
    92  Na    c      0.0000      -7.9788 *     3.4710 *  0.0000     1          
    93  Cl    c      2.2539 *     7.7985 *     3.4710 *  0.0000     2          
    94  Na    c      6.7617 *     5.5446 *     1.2171 *  0.0000     2          
    95  Cl    c      6.7617 *    -1.2171 *    -5.5446 *  0.0000     2          
    96  Na    c      2.2539 *    -3.4710 *    -7.7985 *  0.0000     2          
    97  Cl    c      2.2539 *     3.2907 *     7.9788 *  0.0000     2          
    98  Na    c      2.2539 *    -7.9788 *    -3.2907 *  0.0000     2          
    99  Cl    c      6.7617 *    -5.7249 *    -1.0368 *  0.0000     2          
   100  Na    c      6.7617 *     1.0368 *     5.7249 *  0.0000     2          
   101  Na    c     -4.5078 *     5.5446 *    -5.5446 *  0.0000     2          
   102  O     c     -4.5078 *     1.0368 *    -7.7985 *  0.0000     2          
   103  Na    c     -4.5078 *     7.7985 *     1.2171 *  0.0000     2          
   104  Na    c     -4.5078 *    -1.2171 *    -7.7985 *  0.0000     2          
   105  Na    c      9.0156 *     1.0368 *    -1.0368 *  0.0000     2          
   106  O     c      4.5078 *     5.5446 *     5.7249 *  0.0000     2          
   107  O     c      9.0156 *     1.0368 *     1.2171 *  0.0000     2          
   108  Na    c      9.0156 *    -1.2171 *     1.2171 *  0.0000     2          
   109  Na    c      4.5078 *     1.0368 *     7.9788 *  0.0000     2          
   110  Na    c      4.5078 *    -7.9788 *    -1.0368 *  0.0000     2          
   111  O     c      4.5078 *    -7.9788 *     1.2171 *  0.0000     2          
   112  Na    c      4.5078 *    -5.7249 *     5.7249 *  0.0000     2          
   113  Cl    c      6.7617 *     3.2907 *    -5.5446 *  0.0000     2          
   114  Na    c      6.7617 *     5.5446 *    -3.2907 *  0.0000     2          
   115  Cl    c      6.7617 *    -5.7249 *     3.4710 *  0.0000     2          
   116  Na    c      6.7617 *    -3.4710 *     5.7249 *  0.0000     2          
   117  O     c      0.0000       5.5446 *    -7.7985 *  0.0000     1          
   118  Na    c     -4.5078 *     7.7985 *    -3.2907 *  0.0000     2          
   119  Na    c      4.5078 *     3.2907 *    -7.7985 *  0.0000     2          
   120  O     c      4.5078 *    -3.4710 *    -7.7985 *  0.0000     2          
   121  O     c      9.0156 *     1.0368 *    -3.2907 *  0.0000     2          
   122  Na    c      0.0000       7.7985 *     5.7249 *  0.0000     1          
   123  Na    c      9.0156 *    -1.2171 *    -3.2907 *  0.0000     2          
   124  Na    c      9.0156 *     3.2907 *     1.2171 *  0.0000     2          
   125  Na    c      0.0000      -5.7249 *    -7.7985 *  0.0000     1          
   126  Na    c      0.0000       5.5446 *     7.9788 *  0.0000     1          
   127  Na    c      0.0000      -7.9788 *    -5.5446 *  0.0000     1          
   128  Na    c      9.0156 *     1.0368 *     3.4710 *  0.0000     2          
   129  Na    c      9.0156 *    -3.4710 *    -1.0368 *  0.0000     2          
   130  O     c      4.5078 *    -7.9788 *    -3.2907 *  0.0000     2          
   131  O     c      9.0156 *    -3.4710 *     1.2171 *  0.0000     2          
   132  Na    c     -4.5078 *    -3.4710 *     7.9788 *  0.0000     2          
   133  Na    c      4.5078 *    -7.9788 *     3.4710 *  0.0000     2          
   134  O     c      0.0000      -7.9788 *     5.7249 *  0.0000     1          
   135  Cl    c      2.2539 *     7.7985 *    -5.5446 *  0.0000     2          
   136  Na    c      2.2539 *     5.5446 *    -7.7985 *  0.0000     2          
   137  Cl    c      2.2539 *    -5.7249 *     7.9788 *  0.0000     2          
   138  Na    c      2.2539 *    -7.9788 *     5.7249 *  0.0000     2          
   139  Na    c      0.0000       1.0368 *   -10.0524 *  0.0000     1          
   140  Na    c      0.0000      10.0524 *    -1.0368 *  0.0000     1          
   141  O     c      0.0000      10.0524 *     1.2171 *  0.0000     1          
   142  Na    c      9.0156 *     3.2907 *    -3.2907 *  0.0000     2          
   143  O     c      9.0156 *    -3.4710 *    -3.2907 *  0.0000     2          
   144  Na    c      9.0156 *    -3.4710 *     3.4710 *  0.0000     2          
   145  O     c      0.0000       1.0368 *    10.2327 *  0.0000     1          
   146  Na    c      0.0000      -1.2171 *    10.2327 *  0.0000     1          
   147  Na    c      0.0000     -10.2327 *     1.2171 *  0.0000     1          
   148  Cl    c      2.2539 *    -1.2171 *   -10.0524 *  0.0000     2          
   149  Cl    c      6.7617 *     7.7985 *    -1.0368 *  0.0000     2          
   150  Na    c      2.2539 *    10.0524 *     1.2171 *  0.0000     2          
   151  Na    c      6.7617 *     1.0368 *    -7.7985 *  0.0000     2          
   152  Cl    c      6.7617 *    -5.7249 *    -5.5446 *  0.0000     2          
   153  Na    c      6.7617 *     5.5446 *     5.7249 *  0.0000     2          
   154  Cl    c      6.7617 *    -1.2171 *     7.9788 *  0.0000     2          
   155  Na    c      6.7617 *    -7.9788 *     1.2171 *  0.0000     2          
   156  Cl    c      2.2539 *   -10.2327 *    -1.0368 *  0.0000     2          
   157  Na    c      2.2539 *     1.0368 *    10.2327 *  0.0000     2          
   158  O     c      0.0000      10.0524 *    -3.2907 *  0.0000     1          
   159  O     c     -4.5078 *     5.5446 *    -7.7985 *  0.0000     2          
   160  Na    c      9.0156 *     1.0368 *    -5.5446 *  0.0000     2          
   161  Na    c      9.0156 *     5.5446 *    -1.0368 *  0.0000     2          
   162  Na    c      0.0000      10.0524 *     3.4710 *  0.0000     1          
   163  Na    c      0.0000      -3.4710 *   -10.0524 *  0.0000     1          
   164  O     c      9.0156 *     5.5446 *     1.2171 *  0.0000     2          
   165  Na    c     -4.5078 *     7.7985 *     5.7249 *  0.0000     2          
   166  Na    c      4.5078 *    -5.7249 *    -7.7985 *  0.0000     2          
   167  Na    c     -4.5078 *     5.5446 *     7.9788 *  0.0000     2          
   168  Na    c      4.5078 *    -7.9788 *    -5.5446 *  0.0000     2          
   169  O     c      9.0156 *     1.0368 *     5.7249 *  0.0000     2          
   170  Na    c      9.0156 *    -1.2171 *     5.7249 *  0.0000     2          
   171  Na    c      9.0156 *    -5.7249 *     1.2171 *  0.0000     2          
   172  Na    c      0.0000       3.2907 *    10.2327 *  0.0000     1          
   173  Na    c      0.0000     -10.2327 *    -3.2907 *  0.0000     1          
   174  O     c      4.5078 *    -7.9788 *     5.7249 *  0.0000     2          
   175  O     c      0.0000      -3.4710 *    10.2327 *  0.0000     1          
   176  Cl    c      2.2539 *     3.2907 *   -10.0524 *  0.0000     2          
   177  Na    c      2.2539 *    10.0524 *    -3.2907 *  0.0000     2          
   178  Cl    c      6.7617 *     7.7985 *     3.4710 *  0.0000     2          
   179  Na    c      6.7617 *    -3.4710 *    -7.7985 *  0.0000     2          
   180  Cl    c      6.7617 *     3.2907 *     7.9788 *  0.0000     2          
   181  Na    c      6.7617 *    -7.9788 *    -3.2907 *  0.0000     2          
   182  Na    c      0.0000       7.7985 *    -7.7985 *  0.0000     1          
   183  Cl    c      2.2539 *   -10.2327 *     3.4710 *  0.0000     2          
   184  Na    c      2.2539 *    -3.4710 *    10.2327 *  0.0000     2          
   185  Na    c      4.5078 *     1.0368 *   -10.0524 *  0.0000     2          
   186  Na    c     -4.5078 *    10.0524 *    -1.0368 *  0.0000     2          
   187  O     c      9.0156 *     5.5446 *    -3.2907 *  0.0000     2          
   188  O     c     -4.5078 *    10.0524 *     1.2171 *  0.0000     2          
   189  Na    c      9.0156 *     5.5446 *     3.4710 *  0.0000     2          
   190  Na    c      9.0156 *    -3.4710 *    -5.5446 *  0.0000     2          
   191  O     c      0.0000      -7.9788 *    -7.7985 *  0.0000     1          
   192  Na    c      9.0156 *     3.2907 *     5.7249 *  0.0000     2          
   193  Na    c      9.0156 *    -5.7249 *    -3.2907 *  0.0000     2          
   194  O     c      9.0156 *    -3.4710 *     5.7249 *  0.0000     2          
   195  O     c     -4.5078 *     1.0368 *    10.2327 *  0.0000     2          
   196  Na    c     -4.5078 *    -1.2171 *    10.2327 *  0.0000     2          
   197  Na    c     -4.5078 *   -10.2327 *     1.2171 *  0.0000     2          
   198  Na    c      0.0000      -7.9788 *     7.9788 *  0.0000     1          
   199  Cl    c     11.2695 *    -1.2171 *    -1.0368 *  0.0000     2          
   200  Na    c     11.2695 *     1.0368 *     1.2171 *  0.0000     2          
   201  Cl    c      2.2539 *     7.7985 *     7.9788 *  0.0000     2          
   202  Na    c      2.2539 *    -7.9788 *    -7.7985 *  0.0000     2          
   203  Na    c      0.0000       5.5446 *   -10.0524 *  0.0000     1          
   204  Na    c      0.0000      10.0524 *    -5.5446 *  0.0000     1          
   205  O     c     -4.5078 *    10.0524 *    -3.2907 *  0.0000     2          
   206  Na    c     -4.5078 *    10.0524 *     3.4710 *  0.0000     2          
   207  Na    c     -4.5078 *    -3.4710 *   -10.0524 *  0.0000     2          
   208  O     c      0.0000      10.0524 *     5.7249 *  0.0000     1          
   209  O     c      0.0000       5.5446 *    10.2327 *  0.0000     1          
   210  Na    c      4.5078 *     3.2907 *    10.2327 *  0.0000     2          
   211  Na    c      4.5078 *   -10.2327 *    -3.2907 *  0.0000     2          
   212  O     c      4.5078 *    -3.4710 *    10.2327 *  0.0000     2          
   213  Cl    c      6.7617 *     7.7985 *    -5.5446 *  0.0000     2          
   214  Na    c      6.7617 *     5.5446 *    -7.7985 *  0.0000     2          
   215  Na    c      0.0000      -5.7249 *    10.2327 *  0.0000     1          
   216  Na    c      0.0000     -10.2327 *     5.7249 *  0.0000     1          
   217  Cl    c     11.2695 *     3.2907 *    -1.0368 *  0.0000     2          
   218  Na    c     11.2695 *     1.0368 *    -3.2907 *  0.0000     2          
   219  Cl    c      2.2539 *    -5.7249 *   -10.0524 *  0.0000     2          
   220  Na    c      2.2539 *    10.0524 *     5.7249 *  0.0000     2          
   221  Cl    c     11.2695 *    -1.2171 *     3.4710 *  0.0000     2          
   222  Na    c     11.2695 *    -3.4710 *     1.2171 *  0.0000     2          
   223  Cl    c      2.2539 *   -10.2327 *    -5.5446 *  0.0000     2          
   224  Na    c      2.2539 *     5.5446 *    10.2327 *  0.0000     2          
   225  Na    c      4.5078 *     7.7985 *    -7.7985 *  0.0000     2          
   226  Cl    c      6.7617 *    -5.7249 *     7.9788 *  0.0000     2          
   227  Na    c      6.7617 *    -7.9788 *     5.7249 *  0.0000     2          
   228  Na    c      9.0156 *     5.5446 *    -5.5446 *  0.0000     2          
   229  O     c      9.0156 *     1.0368 *    -7.7985 *  0.0000     2          
   230  Na    c      9.0156 *    -1.2171 *    -7.7985 *  0.0000     2          
   231  Na    c      9.0156 *     7.7985 *     1.2171 *  0.0000     2          
   232  O     c      4.5078 *    -7.9788 *    -7.7985 *  0.0000     2          
   233  O     c      9.0156 *     5.5446 *     5.7249 *  0.0000     2          
   234  Na    c      9.0156 *     1.0368 *     7.9788 *  0.0000     2          
   235  Na    c      9.0156 *    -7.9788 *    -1.0368 *  0.0000     2          
   236  O     c      9.0156 *    -7.9788 *     1.2171 *  0.0000     2          
   237  Na    c      9.0156 *    -5.7249 *     5.7249 *  0.0000     2          
   238  Na    c      4.5078 *    -7.9788 *     7.9788 *  0.0000     2          
   239  Cl    c      6.7617 *    -1.2171 *   -10.0524 *  0.0000     2          
   240  Na    c      6.7617 *    10.0524 *     1.2171 *  0.0000     2          
   241  Cl    c     11.2695 *     3.2907 *     3.4710 *  0.0000     2          
   242  Na    c     11.2695 *    -3.4710 *    -3.2907 *  0.0000     2          
   243  Cl    c      6.7617 *   -10.2327 *    -1.0368 *  0.0000     2          
   244  Na    c      6.7617 *     1.0368 *    10.2327 *  0.0000     2          
   245  Na    c      4.5078 *     5.5446 *   -10.0524 *  0.0000     2          
   246  Na    c      4.5078 *    10.0524 *    -5.5446 *  0.0000     2          
   247  O     c      0.0000       1.0368 *   -12.3063 *  0.0000     1          
   248  Na    c      0.0000      -1.2171 *   -12.3063 *  0.0000     1          
   249  Na    c      9.0156 *     3.2907 *    -7.7985 *  0.0000     2          
   250  Na    c      9.0156 *     7.7985 *    -3.2907 *  0.0000     2          
   251  Na    c      0.0000      12.3063 *     1.2171 *  0.0000     1          
   252  O     c     -4.5078 *    10.0524 *     5.7249 *  0.0000     2          
   253  O     c      9.0156 *    -3.4710 *    -7.7985 *  0.0000     2          
   254  O     c      4.5078 *     5.5446 *    10.2327 *  0.0000     2          
   255  O     c      9.0156 *    -7.9788 *    -3.2907 *  0.0000     2          
   256  Na    c      0.0000       1.0368 *    12.4866 *  0.0000     1          
   257  Na    c      0.0000     -12.4866 *    -1.0368 *  0.0000     1          
   258  Na    c      9.0156 *    -3.4710 *     7.9788 *  0.0000     2          
   259  Na    c      9.0156 *    -7.9788 *     3.4710 *  0.0000     2          
   260  O     c      0.0000     -12.4866 *     1.2171 *  0.0000     1          
   261  Na    c      2.2539 *     1.0368 *   -12.3063 *  0.0000     2          
   262  Cl    c      2.2539 *    12.3063 *    -1.0368 *  0.0000     2          
   263  Cl    c      6.7617 *     3.2907 *   -10.0524 *  0.0000     2          
   264  Na    c      6.7617 *    10.0524 *    -3.2907 *  0.0000     2          
   265  Na    c      4.5078 *    -5.7249 *    10.2327 *  0.0000     2          
   266  Na    c      4.5078 *   -10.2327 *     5.7249 *  0.0000     2          
   267  Cl    c     11.2695 *    -1.2171 *    -5.5446 *  0.0000     2          
   268  Na    c     11.2695 *     5.5446 *     1.2171 *  0.0000     2          
   269  Cl    c     11.2695 *    -5.7249 *    -1.0368 *  0.0000     2          
   270  Na    c     11.2695 *     1.0368 *     5.7249 *  0.0000     2          
   271  O     c      0.0000      10.0524 *    -7.7985 *  0.0000     1          
   272  Na    c      0.0000       3.2907 *   -12.3063 *  0.0000     1          
   273  Na    c      0.0000      12.3063 *    -3.2907 *  0.0000     1          
   274  Cl    c      2.2539 *    -1.2171 *    12.4866 *  0.0000     2          
   275  Na    c      2.2539 *   -12.4866 *     1.2171 *  0.0000     2          
   276  Na    c      6.7617 *    -3.4710 *    10.2327 *  0.0000     2          
   277  Cl    c      6.7617 *   -10.2327 *     3.4710 *  0.0000     2          
   278  O     c      0.0000      -3.4710 *   -12.3063 *  0.0000     1          
   279  Na    c      0.0000      10.0524 *     7.9788 *  0.0000     1          
   280  Na    c      0.0000      -7.9788 *   -10.0524 *  0.0000     1          
   281  Na    c      0.0000       7.7985 *    10.2327 *  0.0000     1          
   282  Na    c      0.0000     -10.2327 *    -7.7985 *  0.0000     1          
   283  O     c      0.0000     -12.4866 *    -3.2907 *  0.0000     1          
   284  Cl    c      2.2539 *     7.7985 *   -10.0524 *  0.0000     2          
   285  Na    c      2.2539 *    10.0524 *    -7.7985 *  0.0000     2          
   286  Na    c      0.0000      -3.4710 *    12.4866 *  0.0000     1          
   287  Na    c      0.0000     -12.4866 *     3.4710 *  0.0000     1          
   288  O     c      0.0000      -7.9788 *    10.2327 *  0.0000     1          
   289  Cl    c     11.2695 *     3.2907 *    -5.5446 *  0.0000     2          
   290  Na    c     11.2695 *     5.5446 *    -3.2907 *  0.0000     2          
   291  Na    c      2.2539 *    -3.4710 *   -12.3063 *  0.0000     2          
   292  Cl    c      2.2539 *    12.3063 *     3.4710 *  0.0000     2          
   293  O     s      0.0000       1.0368 *     1.2171 *  0.0000     1          
   294  Cl    s      2.2539 *    -1.2171 *    -1.0368 *  0.0000     2          
   295  O     s      0.0000       1.0368 *    -3.2907 *  0.0000     1          
   296  O     s      0.0000      -3.4710 *     1.2171 *  0.0000     1          
   297  Cl    s      2.2539 *     3.2907 *    -1.0368 *  0.0000     2          
   298  Cl    s      2.2539 *    -1.2171 *     3.4710 *  0.0000     2          
   299  O     s     -4.5078 *     1.0368 *     1.2171 *  0.0000     2          
   300  O     s      0.0000      -3.4710 *    -3.2907 *  0.0000     1          
   301  Cl    s      2.2539 *     3.2907 *     3.4710 *  0.0000     2          
   302  O     s      0.0000       5.5446 *     1.2171 *  0.0000     1          
   303  O     s     -4.5078 *     1.0368 *    -3.2907 *  0.0000     2          
   304  O     s      0.0000       1.0368 *     5.7249 *  0.0000     1          
   305  O     s     -4.5078 *    -3.4710 *     1.2171 *  0.0000     2          
   306  Cl    s      2.2539 *    -1.2171 *    -5.5446 *  0.0000     2          
   307  Cl    s      2.2539 *    -5.7249 *    -1.0368 *  0.0000     2          
   308  O     s      0.0000       5.5446 *    -3.2907 *  0.0000     1          
   309  O     s     -4.5078 *    -3.4710 *    -3.2907 *  0.0000     2          
   310  O     s      0.0000      -3.4710 *     5.7249 *  0.0000     1          
   311  Cl    s      2.2539 *     3.2907 *    -5.5446 *  0.0000     2          
   312  Cl    s      6.7617 *    -1.2171 *    -1.0368 *  0.0000     2          
   313  Cl    s      2.2539 *    -5.7249 *     3.4710 *  0.0000     2          
   314  O     s     -4.5078 *     5.5446 *     1.2171 *  0.0000     2          
   315  O     s     -4.5078 *     1.0368 *     5.7249 *  0.0000     2          
   316  Cl    s      6.7617 *     3.2907 *    -1.0368 *  0.0000     2          
   317  Cl    s      6.7617 *    -1.2171 *     3.4710 *  0.0000     2          
   318  O     s     -4.5078 *     5.5446 *    -3.2907 *  0.0000     2          
   319  O     s      0.0000       1.0368 *    -7.7985 *  0.0000     1          
   320  O     s      0.0000       5.5446 *     5.7249 *  0.0000     1          
   321  O     s      0.0000      -7.9788 *     1.2171 *  0.0000     1          
   322  O     s      4.5078 *    -3.4710 *     5.7249 *  0.0000     2          
   323  Cl    s      2.2539 *     7.7985 *    -1.0368 *  0.0000     2          
   324  Cl    s      2.2539 *    -5.7249 *    -5.5446 *  0.0000     2          
   325  Cl    s      6.7617 *     3.2907 *     3.4710 *  0.0000     2          
   326  Cl    s      2.2539 *    -1.2171 *     7.9788 *  0.0000     2          
   327  O     s      0.0000      -3.4710 *    -7.7985 *  0.0000     1          
   328  O     s      0.0000      -7.9788 *    -3.2907 *  0.0000     1          
   329  Cl    s      2.2539 *     7.7985 *     3.4710 *  0.0000     2          
   330  Cl    s      6.7617 *    -1.2171 *    -5.5446 *  0.0000     2          
   331  Cl    s      2.2539 *     3.2907 *     7.9788 *  0.0000     2          
   332  Cl    s      6.7617 *    -5.7249 *    -1.0368 *  0.0000     2          
   333  O     s     -4.5078 *     1.0368 *    -7.7985 *  0.0000     2          
   334  O     s      4.5078 *     5.5446 *     5.7249 *  0.0000     2          
   335  O     s      9.0156 *     1.0368 *     1.2171 *  0.0000     2          
   336  O     s      4.5078 *    -7.9788 *     1.2171 *  0.0000     2          
   337  Cl    s      6.7617 *     3.2907 *    -5.5446 *  0.0000     2          
   338  Cl    s      6.7617 *    -5.7249 *     3.4710 *  0.0000     2          
   339  O     s      0.0000       5.5446 *    -7.7985 *  0.0000     1          
   340  O     s      4.5078 *    -3.4710 *    -7.7985 *  0.0000     2          
   341  O     s      9.0156 *     1.0368 *    -3.2907 *  0.0000     2          
   342  O     s      4.5078 *    -7.9788 *    -3.2907 *  0.0000     2          
   343  O     s      9.0156 *    -3.4710 *     1.2171 *  0.0000     2          
   344  O     s      0.0000      -7.9788 *     5.7249 *  0.0000     1          
   345  Cl    s      2.2539 *     7.7985 *    -5.5446 *  0.0000     2          
   346  Cl    s      2.2539 *    -5.7249 *     7.9788 *  0.0000     2          
   347  O     s      0.0000      10.0524 *     1.2171 *  0.0000     1          
   348  O     s      9.0156 *    -3.4710 *    -3.2907 *  0.0000     2          
   349  O     s      0.0000       1.0368 *    10.2327 *  0.0000     1          
   350  Cl    s      2.2539 *    -1.2171 *   -10.0524 *  0.0000     2          
   351  Cl    s      6.7617 *     7.7985 *    -1.0368 *  0.0000     2          
   352  Cl    s      6.7617 *    -5.7249 *    -5.5446 *  0.0000     2          
   353  Cl    s      6.7617 *    -1.2171 *     7.9788 *  0.0000     2          
   354  Cl    s      2.2539 *   -10.2327 *    -1.0368 *  0.0000     2          
   355  O     s      0.0000      10.0524 *    -3.2907 *  0.0000     1          
   356  O     s     -4.5078 *     5.5446 *    -7.7985 *  0.0000     2          
   357  O     s      9.0156 *     5.5446 *     1.2171 *  0.0000     2          
   358  O     s      9.0156 *     1.0368 *     5.7249 *  0.0000     2          
   359  O     s      4.5078 *    -7.9788 *     5.7249 *  0.0000     2          
   360  O     s      0.0000      -3.4710 *    10.2327 *  0.0000     1          
   361  Cl    s      2.2539 *     3.2907 *   -10.0524 *  0.0000     2          
   362  Cl    s      6.7617 *     7.7985 *     3.4710 *  0.0000     2          
   363  Cl    s      6.7617 *     3.2907 *     7.9788 *  0.0000     2          
   364  Cl    s      2.2539 *   -10.2327 *     3.4710 *  0.0000     2          
   365  O     s      9.0156 *     5.5446 *    -3.2907 *  0.0000     2          
   366  O     s     -4.5078 *    10.0524 *     1.2171 *  0.0000     2          
   367  O     s      0.0000      -7.9788 *    -7.7985 *  0.0000     1          
   368  O     s      9.0156 *    -3.4710 *     5.7249 *  0.0000     2          
   369  O     s     -4.5078 *     1.0368 *    10.2327 *  0.0000     2          
   370  Cl    s     11.2695 *    -1.2171 *    -1.0368 *  0.0000     2          
   371  Cl    s      2.2539 *     7.7985 *     7.9788 *  0.0000     2          
   372  O     s     -4.5078 *    10.0524 *    -3.2907 *  0.0000     2          
   373  O     s      0.0000      10.0524 *     5.7249 *  0.0000     1          
   374  O     s      0.0000       5.5446 *    10.2327 *  0.0000     1          
   375  O     s      4.5078 *    -3.4710 *    10.2327 *  0.0000     2          
   376  Cl    s      6.7617 *     7.7985 *    -5.5446 *  0.0000     2          
   377  Cl    s     11.2695 *     3.2907 *    -1.0368 *  0.0000     2          
   378  Cl    s      2.2539 *    -5.7249 *   -10.0524 *  0.0000     2          
   379  Cl    s     11.2695 *    -1.2171 *     3.4710 *  0.0000     2          
   380  Cl    s      2.2539 *   -10.2327 *    -5.5446 *  0.0000     2          
   381  Cl    s      6.7617 *    -5.7249 *     7.9788 *  0.0000     2          
   382  O     s      9.0156 *     1.0368 *    -7.7985 *  0.0000     2          
   383  O     s      4.5078 *    -7.9788 *    -7.7985 *  0.0000     2          
   384  O     s      9.0156 *     5.5446 *     5.7249 *  0.0000     2          
   385  O     s      9.0156 *    -7.9788 *     1.2171 *  0.0000     2          
   386  Cl    s      6.7617 *    -1.2171 *   -10.0524 *  0.0000     2          
   387  Cl    s     11.2695 *     3.2907 *     3.4710 *  0.0000     2          
   388  Cl    s      6.7617 *   -10.2327 *    -1.0368 *  0.0000     2          
   389  O     s      0.0000       1.0368 *   -12.3063 *  0.0000     1          
   390  O     s     -4.5078 *    10.0524 *     5.7249 *  0.0000     2          
   391  O     s      9.0156 *    -3.4710 *    -7.7985 *  0.0000     2          
   392  O     s      4.5078 *     5.5446 *    10.2327 *  0.0000     2          
   393  O     s      9.0156 *    -7.9788 *    -3.2907 *  0.0000     2          
   394  O     s      0.0000     -12.4866 *     1.2171 *  0.0000     1          
   395  Cl    s      2.2539 *    12.3063 *    -1.0368 *  0.0000     2          
   396  Cl    s      6.7617 *     3.2907 *   -10.0524 *  0.0000     2          
   397  Cl    s     11.2695 *    -1.2171 *    -5.5446 *  0.0000     2          
   398  Cl    s     11.2695 *    -5.7249 *    -1.0368 *  0.0000     2          
   399  O     s      0.0000      10.0524 *    -7.7985 *  0.0000     1          
   400  Cl    s      2.2539 *    -1.2171 *    12.4866 *  0.0000     2          
   401  Cl    s      6.7617 *   -10.2327 *     3.4710 *  0.0000     2          
   402  O     s      0.0000      -3.4710 *   -12.3063 *  0.0000     1          
   403  O     s      0.0000     -12.4866 *    -3.2907 *  0.0000     1          
   404  Cl    s      2.2539 *     7.7985 *   -10.0524 *  0.0000     2          
   405  O     s      0.0000      -7.9788 *    10.2327 *  0.0000     1          
   406  Cl    s     11.2695 *     3.2907 *    -5.5446 *  0.0000     2          
   407  Cl    s      2.2539 *    12.3063 *     3.4710 *  0.0000     2          
--------------------------------------------------------------------------------

  Components of defect energy : 

--------------------------------------------------------------------------------
  Region 1 - region 1                   =     10.37573234 eV
  Region 1 - region 2a (unrelaxed)      =      0.32656699 eV
  Region 1 - 2a (relaxed - correction)  =     -0.40139326 eV
  Region 1 (Total)                      =     10.30090608 eV
  Region 2a                             =      0.20063273 eV
  Region 2b                             =     -0.32757882 eV
--------------------------------------------------------------------------------
  Total defect energy                   =     10.17395999 eV
--------------------------------------------------------------------------------

  Largest displacement in region 2 =   0.0197 Angstroms


  Number of variables =     1108

  Maximum number of calculations  =        1000
  Maximum Hessian update interval =          10
  Maximum step size               =   1.0000000
  Maximum parameter tolerance     =   0.0000100
  Maximum function  tolerance     =   0.0000100
  Maximum gradient  tolerance     =   0.0010000

  Symmetry adapted optimisation

  Symmetry to be used for second derivatives

  Newton-Raphson optimiser to be used

  BFGS hessian update to be used

  Lower half triangular hessian to be used

  Start of defect optimisation :

  Cycle:      0 Defect Energy:  10.173960  Gnorm:     0.018811  CPU:    6.586
  ** Hessian calculated **
  Cycle:      1 Defect Energy:   8.612773  Gnorm:     0.010909  CPU:   17.701
  Cycle:      2 Defect Energy:   8.045346  Gnorm:     0.009923  CPU:   34.014
  Cycle:      3 Defect Energy:   7.776001  Gnorm:     0.008236  CPU:   43.216
  Cycle:      4 Defect Energy:   7.310062  Gnorm:     0.008493  CPU:   59.923
  Cycle:      5 Defect Energy:   6.849741  Gnorm:     0.005913  CPU:   72.488
  Cycle:      6 Defect Energy:   6.357269  Gnorm:     0.006596  CPU:   83.545
  Cycle:      7 Defect Energy:   5.933193  Gnorm:     0.006263  CPU:   96.482
  Cycle:      8 Defect Energy:   5.597623  Gnorm:     0.003737  CPU:  108.751
  Cycle:      9 Defect Energy:   5.469926  Gnorm:     0.003542  CPU:  117.639
  Cycle:     10 Defect Energy:   5.426945  Gnorm:     0.002631  CPU:  119.984
  ** Hessian calculated **
  Cycle:     11 Defect Energy:   5.399701  Gnorm:     0.001825  CPU:  128.246
  Cycle:     12 Defect Energy:   5.376495  Gnorm:     0.001592  CPU:  131.859
  Cycle:     13 Defect Energy:   5.348945  Gnorm:     0.001563  CPU:  134.648
  Cycle:     14 Defect Energy:   5.319806  Gnorm:     0.001533  CPU:  137.364
  Cycle:     15 Defect Energy:   5.296507  Gnorm:     0.001517  CPU:  140.031
  Cycle:     16 Defect Energy:   5.277303  Gnorm:     0.001412  CPU:  142.326
  Cycle:     17 Defect Energy:   5.260895  Gnorm:     0.001410  CPU:  144.858
  Cycle:     18 Defect Energy:   5.244669  Gnorm:     0.001351  CPU:  147.331
  Cycle:     19 Defect Energy:   5.227523  Gnorm:     0.001241  CPU:  149.763
  Cycle:     20 Defect Energy:   5.210516  Gnorm:     0.001205  CPU:  152.074
  ** Hessian calculated **
  Cycle:     21 Defect Energy:   5.206190  Gnorm:     0.001155  CPU:  157.635
  Cycle:     22 Defect Energy:   5.200086  Gnorm:     0.001141  CPU:  159.803
  Cycle:     23 Defect Energy:   5.191431  Gnorm:     0.001135  CPU:  165.811
  Cycle:     24 Defect Energy:   5.179379  Gnorm:     0.001110  CPU:  168.518
  Cycle:     25 Defect Energy:   5.163670  Gnorm:     0.001096  CPU:  171.336
  Cycle:     26 Defect Energy:   5.145517  Gnorm:     0.001090  CPU:  173.977
  Cycle:     27 Defect Energy:   5.134287  Gnorm:     0.001098  CPU:  176.611
  Cycle:     28 Defect Energy:   5.124432  Gnorm:     0.001088  CPU:  179.124
  Cycle:     29 Defect Energy:   5.114102  Gnorm:     0.001082  CPU:  181.714
  Cycle:     30 Defect Energy:   5.100729  Gnorm:     0.001126  CPU:  184.079
  ** Hessian calculated **
  Cycle:     31 Defect Energy:   5.052066  Gnorm:     0.000994  CPU:  189.985
  Cycle:     32 Defect Energy:   4.992955  Gnorm:     0.000781  CPU:  192.243
  Cycle:     33 Defect Energy:   4.968870  Gnorm:     0.000632  CPU:  194.472
  ** Hessian calculated **
  Cycle:     34 Defect Energy:   4.947044  Gnorm:     0.000464  CPU:  204.910
  ** Hessian calculated **
  Cycle:     35 Defect Energy:   4.945637  Gnorm:     0.000417  CPU:  211.688
  Cycle:     36 Defect Energy:   4.943879  Gnorm:     0.000404  CPU:  214.197
  Cycle:     37 Defect Energy:   4.941595  Gnorm:     0.000394  CPU:  216.737
  Cycle:     38 Defect Energy:   4.938694  Gnorm:     0.000384  CPU:  219.166
  Cycle:     39 Defect Energy:   4.936022  Gnorm:     0.000372  CPU:  221.636
  Cycle:     40 Defect Energy:   4.934053  Gnorm:     0.000361  CPU:  223.958
  Cycle:     41 Defect Energy:   4.932164  Gnorm:     0.000364  CPU:  226.306
  Cycle:     42 Defect Energy:   4.929881  Gnorm:     0.000356  CPU:  228.558
  Cycle:     43 Defect Energy:   4.926597  Gnorm:     0.000367  CPU:  230.725
  Cycle:     44 Defect Energy:   4.921381  Gnorm:     0.000386  CPU:  237.182
  ** Hessian calculated **
  Cycle:     45 Defect Energy:   4.919786  Gnorm:     0.000369  CPU:  243.982
  Cycle:     46 Defect Energy:   4.917484  Gnorm:     0.000364  CPU:  246.673
  Cycle:     47 Defect Energy:   4.914281  Gnorm:     0.000361  CPU:  249.163
  Cycle:     48 Defect Energy:   4.909703  Gnorm:     0.000357  CPU:  251.718
  Cycle:     49 Defect Energy:   4.903523  Gnorm:     0.000361  CPU:  254.052
  Cycle:     50 Defect Energy:   4.895142  Gnorm:     0.000382  CPU:  256.419
  Cycle:     51 Defect Energy:   4.884729  Gnorm:     0.000445  CPU:  258.700
  Cycle:     52 Defect Energy:   4.874235  Gnorm:     0.000518  CPU:  261.047
  Cycle:     53 Defect Energy:   4.866827  Gnorm:     0.000579  CPU:  263.337
  Cycle:     54 Defect Energy:   4.858776  Gnorm:     0.000646  CPU:  265.474
  ** Hessian calculated **
  Cycle:     55 Defect Energy:   4.852260  Gnorm:     0.000602  CPU:  275.511
  Cycle:     56 Defect Energy:   4.843419  Gnorm:     0.000591  CPU:  278.500
  Cycle:     57 Defect Energy:   4.831066  Gnorm:     0.000577  CPU:  281.147
  Cycle:     58 Defect Energy:   4.814760  Gnorm:     0.000562  CPU:  283.741
  Cycle:     59 Defect Energy:   4.793826  Gnorm:     0.000569  CPU:  286.204
  Cycle:     60 Defect Energy:   4.769540  Gnorm:     0.000622  CPU:  288.714
  Cycle:     61 Defect Energy:   4.747323  Gnorm:     0.000684  CPU:  291.085
  Cycle:     62 Defect Energy:   4.727687  Gnorm:     0.000767  CPU:  293.515
  Cycle:     63 Defect Energy:   4.713019  Gnorm:     0.000804  CPU:  295.786
  Cycle:     64 Defect Energy:   4.701210  Gnorm:     0.000856  CPU:  298.107
  ** Hessian calculated **
  Cycle:     65 Defect Energy:   4.695112  Gnorm:     0.000824  CPU:  306.729
  Cycle:     66 Defect Energy:   4.686759  Gnorm:     0.000818  CPU:  310.091
  Cycle:     67 Defect Energy:   4.675299  Gnorm:     0.000799  CPU:  312.934
  Cycle:     68 Defect Energy:   4.660546  Gnorm:     0.000784  CPU:  315.600
  Cycle:     69 Defect Energy:   4.644102  Gnorm:     0.000775  CPU:  318.317
  Cycle:     70 Defect Energy:   4.635136  Gnorm:     0.000770  CPU:  320.829
  Cycle:     71 Defect Energy:   4.628883  Gnorm:     0.000776  CPU:  323.434
  Cycle:     72 Defect Energy:   4.623518  Gnorm:     0.000785  CPU:  325.842
  Cycle:     73 Defect Energy:   4.618248  Gnorm:     0.000790  CPU:  328.299
  Cycle:     74 Defect Energy:   4.612485  Gnorm:     0.000797  CPU:  330.550
  ** Hessian calculated **
  Cycle:     75 Defect Energy:   4.600833  Gnorm:     0.000770  CPU:  336.216
  Cycle:     76 Defect Energy:   4.571552  Gnorm:     0.000688  CPU:  338.312
  Cycle:     77 Defect Energy:   4.551566  Gnorm:     0.000626  CPU:  344.719
  Cycle:     78 Defect Energy:   4.525249  Gnorm:     0.000506  CPU:  347.447
  Cycle:     79 Defect Energy:   4.499334  Gnorm:     0.000340  CPU:  350.203
  Cycle:     80 Defect Energy:   4.488110  Gnorm:     0.000235  CPU:  352.855
  Cycle:     81 Defect Energy:   4.483116  Gnorm:     0.000151  CPU:  355.588
  Cycle:     82 Defect Energy:   4.480819  Gnorm:     0.000099  CPU:  358.099
  Cycle:     83 Defect Energy:   4.479809  Gnorm:     0.000060  CPU:  360.659
  Cycle:     84 Defect Energy:   4.479486  Gnorm:     0.000037  CPU:  363.021
  ** Hessian calculated **
  Cycle:     85 Defect Energy:   4.479370  Gnorm:     0.000026  CPU:  368.887
  Cycle:     86 Defect Energy:   4.479314  Gnorm:     0.000018  CPU:  371.084
  Cycle:     87 Defect Energy:   4.479287  Gnorm:     0.000013  CPU:  373.259
  Cycle:     88 Defect Energy:   4.479274  Gnorm:     0.000009  CPU:  378.881


  **** Optimisation achieved ****


  Final defect energy  =        4.47926778
  Final defect Gnorm   =        0.00000622

  Components of defect energy : 

--------------------------------------------------------------------------------
  Region 1 - region 1                   =      5.19360649 eV
  Region 1 - region 2a (unrelaxed)      =     -0.21697383 eV
  Region 1 - 2a (relaxed - correction)  =     -0.33928313 eV
  Region 1 (Total)                      =      4.63734953 eV
  Region 2a                             =      0.16947828 eV
  Region 2b                             =     -0.32756004 eV
--------------------------------------------------------------------------------
  Total defect energy                   =      4.47926778 eV
--------------------------------------------------------------------------------

  Largest displacement in region 2 =   0.0197 Angstroms

  Final coordinates of region 1 :

--------------------------------------------------------------------------------
   No.  Atomic        x           y           z          Radius      Charge
        Label       (Angs)      (Angs)      (Angs)       (Angs)       (e) 
--------------------------------------------------------------------------------
     1  Na    c     2.253894    1.217103    1.036791    0.000000    1.000000
     2  O     c     2.253894    2.602421    2.600957    0.000000    0.183000
     3  Cl    c     4.525803   -0.035807   -0.079405    0.000000    1.485000
     4  Cl    c    -0.018016   -0.035807   -0.079405    0.000000    1.485000
     5  Na    c     4.497231    2.544605    2.696026    0.000000    1.000000
     6  Na    c     0.010556    2.544605    2.696026    0.000000    1.000000
     7  O     c     2.253894    2.284297   -2.237425    0.000000    0.183000
     8  Na    c     2.253894    0.048214   -2.134255    0.000000    1.000000
     9  Na    c     2.253894    4.624311    1.802495    0.000000    1.000000
    10  Na    c     2.253894    1.824064    4.630747    0.000000    1.000000
    11  Na    c     2.253894   -2.416165    0.067163    0.000000    1.000000
    12  O     c     2.253894   -2.304370    2.296589    0.000000    0.183000
    13  Cl    c     4.599450    4.668788    0.018715    0.000000    1.485000
    14  Cl    c    -0.091663    4.668788    0.018715    0.000000    1.485000
    15  Na    c     4.453800    2.295284   -2.043624    0.000000    1.000000
    16  Na    c     0.053987    2.295284   -2.043624    0.000000    1.000000
    17  Cl    c     4.573517    0.035269    4.608103    0.000000    1.485000
    18  Cl    c    -0.065730    0.035269    4.608103    0.000000    1.485000
    19  Na    c     4.426579   -1.880466    2.239101    0.000000    1.000000
    20  Na    c     0.081209   -1.880466    2.239101    0.000000    1.000000
    21  Na    c     2.253894    4.463131   -1.719269    0.000000    1.000000
    22  Na    c    -2.092124    1.889804    0.075563    0.000000    1.000000
    23  Na    c     6.599911    1.889804    0.075563    0.000000    1.000000
    24  O     c    -2.241528    2.312329    2.312905    0.000000    0.183000
    25  O     c     6.749315    2.312329    2.312905    0.000000    0.183000
    26  O     c     2.253894   -2.248054   -2.220553    0.000000    0.183000
    27  Na    c    -2.277211    0.059454    2.696341    0.000000    1.000000
    28  Na    c     6.784998    0.059454    2.696341    0.000000    1.000000
    29  Na    c     2.253894   -1.735927    4.464948    0.000000    1.000000
    30  Cl    c     4.655556    4.564050    4.739673    0.000000    1.485000
    31  Cl    c    -0.147768    4.564050    4.739673    0.000000    1.485000
    32  Na    c     4.503140   -2.257522   -2.169633    0.000000    1.000000
    33  Na    c     0.004647   -2.257522   -2.169633    0.000000    1.000000
    34  Na    c     2.253894    2.454651   -4.460663    0.000000    1.000000
    35  Na    c     2.253894    7.271757   -0.019222    0.000000    1.000000
    36  O     c     2.253894    6.852626    2.217609    0.000000    0.183000
    37  O     c    -2.225968    2.257551   -2.189413    0.000000    0.183000
    38  O     c     6.733755    2.257551   -2.189413    0.000000    0.183000
    39  Na    c    -2.147304    0.017600   -2.610084    0.000000    1.000000
    40  Na    c     6.655091    0.017600   -2.610084    0.000000    1.000000
    41  Na    c    -2.261434    4.546258    1.886218    0.000000    1.000000
    42  Na    c     6.769221    4.546258    1.886218    0.000000    1.000000
    43  Na    c    -2.458324    2.651383    4.558950    0.000000    1.000000
    44  Na    c     6.966111    2.651383    4.558950    0.000000    1.000000
    45  Na    c    -2.254221   -1.854209    0.016733    0.000000    1.000000
    46  Na    c     6.762008   -1.854209    0.016733    0.000000    1.000000
    47  O     c     2.253894    2.203113    6.852888    0.000000    0.183000
    48  O     c    -2.208193   -2.191647    2.265814    0.000000    0.183000
    49  O     c     6.715981   -2.191647    2.265814    0.000000    0.183000
    50  Na    c     2.253894   -0.028202    7.236088    0.000000    1.000000
    51  Na    c     2.253894   -4.492399    2.634887    0.000000    1.000000
    52  Cl    c     4.495514   -0.071385   -4.552811    0.000000    1.485000
    53  Cl    c     0.012273   -0.071385   -4.552811    0.000000    1.485000
    54  Na    c     4.524286    6.852449    2.130843    0.000000    1.000000
    55  Na    c    -0.016498    6.852449    2.130843    0.000000    1.000000
    56  Cl    c     4.523182   -4.564694   -0.094121    0.000000    1.485000
    57  Cl    c    -0.015394   -4.564694   -0.094121    0.000000    1.485000
    58  Na    c     4.523355    2.265111    6.713669    0.000000    1.000000
    59  Na    c    -0.015568    2.265111    6.713669    0.000000    1.000000
    60  O     c     2.253894    6.738267   -2.229283    0.000000    0.183000
    61  Na    c    -2.302218    4.507748   -1.860755    0.000000    1.000000
    62  Na    c     6.810005    4.507748   -1.860755    0.000000    1.000000
    63  Na    c     2.253894    6.391891    4.435100    0.000000    1.000000
    64  Na    c     2.253894   -2.076742   -4.466598    0.000000    1.000000
    65  O     c    -2.257989   -2.232793   -2.234176    0.000000    0.183000
    66  O     c     6.765776   -2.232793   -2.234176    0.000000    0.183000
    67  Na    c     2.253894    4.446508    6.614566    0.000000    1.000000
    68  Na    c     2.253894   -4.496504   -2.481855    0.000000    1.000000
    69  Na    c    -2.174728   -2.615908    4.494307    0.000000    1.000000
    70  Na    c     6.682515   -2.615908    4.494307    0.000000    1.000000
    71  O     c     2.253894   -2.246641    6.743731    0.000000    0.183000
    72  Cl    c     4.548444    4.531164   -4.585491    0.000000    1.485000
    73  Cl    c    -0.040657    4.531164   -4.585491    0.000000    1.485000
    74  Na    c     4.514226    6.668832   -2.164634    0.000000    1.000000
    75  Na    c    -0.006438    6.668832   -2.164634    0.000000    1.000000
    76  Cl    c     9.013172    0.044438    0.051929    0.000000    1.485000
    77  Cl    c    -4.505385    0.044438    0.051929    0.000000    1.485000
    78  Na    c     9.007518    2.286926    2.091850    0.000000    1.000000
    79  Na    c    -4.499731    2.286926    2.091850    0.000000    1.000000
    80  Cl    c     4.560426   -4.577771    4.577761    0.000000    1.485000
    81  Cl    c    -0.052638   -4.577771    4.577761    0.000000    1.485000
    82  Na    c     4.507273   -2.278145    6.717823    0.000000    1.000000
    83  Na    c     0.000514   -2.278145    6.717823    0.000000    1.000000
    84  Na    c    -2.243178    2.613372   -4.450320    0.000000    1.000000
    85  Na    c     6.750966    2.613372   -4.450320    0.000000    1.000000
    86  Na    c    -2.364324    7.117196   -0.003086    0.000000    1.000000
    87  Na    c     6.872112    7.117196   -0.003086    0.000000    1.000000
    88  O     c    -2.273848    6.784496    2.255410    0.000000    0.183000
    89  O     c     6.781635    6.784496    2.255410    0.000000    0.183000
    90  O     c    -2.282264    2.254374    6.790606    0.000000    0.183000
    91  O     c     6.790052    2.254374    6.790606    0.000000    0.183000
    92  Na    c    -2.194727    0.007954    6.442203    0.000000    1.000000
    93  Na    c     6.702515    0.007954    6.442203    0.000000    1.000000
    94  Na    c     6.539399   -4.449285    1.930291    0.000000    1.000000
    95  Na    c    -2.031611   -4.449285    1.930291    0.000000    1.000000
    96  Cl    c     9.038378    4.522478    0.033655    0.000000    1.485000
    97  Cl    c    -4.530591    4.522478    0.033655    0.000000    1.485000
    98  Na    c     8.994428    2.153091   -2.106668    0.000000    1.000000
    99  Na    c    -4.486640    2.153091   -2.106668    0.000000    1.000000
   100  Cl    c     9.029218    0.062379    4.563484    0.000000    1.485000
   101  Cl    c    -4.521431    0.062379    4.563484    0.000000    1.485000
   102  Na    c     8.980778   -2.319164    2.250333    0.000000    1.000000
   103  Na    c    -4.472991   -2.319164    2.250333    0.000000    1.000000
   104  Na    c     2.253894    6.309396   -4.473150    0.000000    1.000000
   105  O     c    -2.268714    6.755423   -2.255002    0.000000    0.183000
   106  O     c     6.776501    6.755423   -2.255002    0.000000    0.183000
   107  O     c     2.253894    2.270868   -6.752314    0.000000    0.183000
   108  Na    c     2.253894    9.044284    2.695298    0.000000    1.000000
   109  Na    c     2.253894    0.021362   -6.633616    0.000000    1.000000
   110  Na    c    -2.178429    6.480064    4.513734    0.000000    1.000000
   111  Na    c     6.686216    6.480064    4.513734    0.000000    1.000000
   112  Na    c    -2.226927   -2.570155   -4.480227    0.000000    1.000000
   113  Na    c     6.734714   -2.570155   -4.480227    0.000000    1.000000
   114  O     c     2.253894    6.716670    6.697401    0.000000    0.183000
   115  Na    c    -2.248896    4.511823    7.061218    0.000000    1.000000
   116  Na    c     6.756684    4.511823    7.061218    0.000000    1.000000
   117  Na    c     6.761421   -4.490874   -1.922999    0.000000    1.000000
   118  Na    c    -2.253634   -4.490874   -1.922999    0.000000    1.000000
   119  Na    c     2.253894    2.568308    9.054254    0.000000    1.000000
   120  Na    c     2.253894   -6.401755    0.016124    0.000000    1.000000
   121  O     c     2.253894   -6.763999    2.262472    0.000000    0.183000
   122  O     c     6.770607   -2.247791    6.742655    0.000000    0.183000
   123  O     c    -2.262820   -2.247791    6.742655    0.000000    0.183000
   124  Na    c     2.253894   -4.490082    6.328026    0.000000    1.000000
[...]
    327 y         -2.253894     -2.243842     0.010051    Cartesian   -0.45
    327 z         -6.761681     -6.730111     0.031570    Cartesian   -0.47
    328 x          2.253894      2.253894     0.000000    Cartesian    0.00
    328 y         -6.761681     -6.751509     0.010171    Cartesian   -0.15
    328 z         -2.253894     -2.235777     0.018116    Cartesian   -0.80
    329 x          4.507787      4.548687     0.040900    Cartesian    0.91
    329 y          9.015574      9.097084     0.081509    Cartesian    0.90
    329 z          4.507787      4.508886     0.001099    Cartesian    0.02
    330 x          9.015574      9.041820     0.026246    Cartesian    0.29
    330 y          0.000000      0.001067     0.001067    Cartesian    0.00
    330 z         -4.507787     -4.511796    -0.004009    Cartesian    0.09
    331 x          4.507787      4.496498    -0.011290    Cartesian   -0.25
    331 y          4.507787      4.513261     0.005474    Cartesian    0.12
    331 z          9.015574      9.054782     0.039207    Cartesian    0.43
    332 x          9.015574      9.048063     0.032488    Cartesian    0.36
    332 y         -4.507787     -4.523665    -0.015878    Cartesian    0.35
    332 z          0.000000      0.016147     0.016147    Cartesian    0.00
    333 x         -2.253894     -2.258311    -0.004417    Cartesian    0.20
    333 y          2.253894      2.256518     0.002624    Cartesian    0.12
    333 z         -6.761681     -6.721054     0.040627    Cartesian   -0.60
    334 x          6.761681      6.781032     0.019351    Cartesian    0.29
    334 y          6.761681      6.769453     0.007772    Cartesian    0.11
    334 z          6.761681      6.769613     0.007932    Cartesian    0.12
    335 x         11.269468     11.265549    -0.003919    Cartesian   -0.03
    335 y          2.253894      2.245656    -0.008238    Cartesian   -0.37
    335 z          2.253894      2.248083    -0.005811    Cartesian   -0.26
    336 x          6.761681      6.758775    -0.002906    Cartesian   -0.04
    336 y         -6.761681     -6.718847     0.042833    Cartesian   -0.63
    336 z          2.253894      2.243628    -0.010266    Cartesian   -0.46
    337 x          9.015574      9.042587     0.027012    Cartesian    0.30
    337 y          4.507787      4.563560     0.055773    Cartesian    1.24
    337 z         -4.507787     -4.535207    -0.027420    Cartesian    0.61
    338 x          9.015574      9.038999     0.023425    Cartesian    0.26
    338 y         -4.507787     -4.507582     0.000205    Cartesian   -0.00
    338 z          4.507787      4.540479     0.032692    Cartesian    0.73
    339 x          2.253894      2.253894     0.000000    Cartesian    0.00
    339 y          6.761681      6.742612    -0.019069    Cartesian   -0.28
    339 z         -6.761681     -6.735815     0.025865    Cartesian   -0.38
    340 x          6.761681      6.766014     0.004333    Cartesian    0.06
    340 y         -2.253894     -2.252639     0.001254    Cartesian   -0.06
    340 z         -6.761681     -6.735020     0.026661    Cartesian   -0.39
    341 x         11.269468     11.264161    -0.005307    Cartesian   -0.05
    341 y          2.253894      2.241312    -0.012582    Cartesian   -0.56
    341 z         -2.253894     -2.236524     0.017369    Cartesian   -0.77
    342 x          6.761681      6.775996     0.014315    Cartesian    0.21
    342 y         -6.761681     -6.750209     0.011472    Cartesian   -0.17
    342 z         -2.253894     -2.243670     0.010224    Cartesian   -0.45
    343 x         11.269468     11.253178    -0.016290    Cartesian   -0.14
    343 y         -2.253894     -2.237430     0.016464    Cartesian   -0.73
    343 z          2.253894      2.253375    -0.000519    Cartesian   -0.02
    344 x          2.253894      2.253894     0.000000    Cartesian    0.00
    344 y         -6.761681     -6.745916     0.015765    Cartesian   -0.23
    344 z          6.761681      6.736847    -0.024833    Cartesian   -0.37
    345 x          4.507787      4.538433     0.030646    Cartesian    0.68
    345 y          9.015574      9.094725     0.079150    Cartesian    0.88
    345 z         -4.507787     -4.539188    -0.031401    Cartesian    0.70
    346 x          4.507787      4.521349     0.013561    Cartesian    0.30
    346 y         -4.507787     -4.527576    -0.019789    Cartesian    0.44
    346 z          9.015574      9.050393     0.034819    Cartesian    0.39
    347 x          2.253894      2.253894     0.000000    Cartesian    0.00
    347 y         11.269468     11.260683    -0.008785    Cartesian   -0.08
    347 z          2.253894      2.252419    -0.001475    Cartesian   -0.07
    348 x         11.269468     11.267872    -0.001596    Cartesian   -0.01
    348 y         -2.253894     -2.220950     0.032943    Cartesian   -1.46
    348 z         -2.253894     -2.246709     0.007185    Cartesian   -0.32
    349 x          2.253894      2.253894     0.000000    Cartesian    0.00
    349 y          2.253894      2.244804    -0.009090    Cartesian   -0.40
    349 z         11.269468     11.279344     0.009876    Cartesian    0.09
    350 x          4.507787      4.527202     0.019415    Cartesian    0.43
    350 y          0.000000      0.001164     0.001164    Cartesian    0.00
    350 z         -9.015574     -9.079271    -0.063697    Cartesian    0.71
    351 x          9.015574      9.047356     0.031782    Cartesian    0.35
    351 y          9.015574      9.067670     0.052095    Cartesian    0.58
    351 z          0.000000     -0.001870    -0.001870    Cartesian    0.00
    352 x          9.015574      9.060768     0.045194    Cartesian    0.50
    352 y         -4.507787     -4.516132    -0.008345    Cartesian    0.19
    352 z         -4.507787     -4.525726    -0.017939    Cartesian    0.40
    353 x          9.015574      9.037589     0.022015    Cartesian    0.24
    353 y          0.000000      0.008091     0.008091    Cartesian    0.00
    353 z          9.015574      9.060122     0.044548    Cartesian    0.49
    354 x          4.507787      4.505360    -0.002427    Cartesian   -0.05
    354 y         -9.015574     -9.031645    -0.016071    Cartesian    0.18
    354 z          0.000000      0.004105     0.004105    Cartesian    0.00
    355 x          2.253894      2.253894     0.000000    Cartesian    0.00
    355 y         11.269468     11.227108    -0.042360    Cartesian   -0.38
    355 z         -2.253894     -2.255974    -0.002080    Cartesian    0.09
    356 x         -2.253894     -2.261243    -0.007349    Cartesian    0.33
    356 y          6.761681      6.749349    -0.012332    Cartesian   -0.18
    356 z         -6.761681     -6.756091     0.005590    Cartesian   -0.08
    357 x         11.269468     11.277642     0.008174    Cartesian    0.07
    357 y          6.761681      6.752105    -0.009576    Cartesian   -0.14
    357 z          2.253894      2.238502    -0.015392    Cartesian   -0.68
    358 x         11.269468     11.272970     0.003502    Cartesian    0.03
    358 y          2.253894      2.258022     0.004128    Cartesian    0.18
    358 z          6.761681      6.744773    -0.016908    Cartesian   -0.25
    359 x          6.761681      6.771359     0.009678    Cartesian    0.14
    359 y         -6.761681     -6.741204     0.020477    Cartesian   -0.30
    359 z          6.761681      6.770162     0.008481    Cartesian    0.13
    360 x          2.253894      2.253894     0.000000    Cartesian    0.00
    360 y         -2.253894     -2.262393    -0.008500    Cartesian    0.38
    360 z         11.269468     11.236499    -0.032969    Cartesian   -0.29
    361 x          4.507787      4.512521     0.004734    Cartesian    0.11
    361 y          4.507787      4.509665     0.001878    Cartesian    0.04
    361 z         -9.015574     -8.998341     0.017234    Cartesian   -0.19
    362 x          9.015574      9.042140     0.026566    Cartesian    0.29
    362 y          9.015574      9.063467     0.047893    Cartesian    0.53
    362 z          4.507787      4.504177    -0.003610    Cartesian   -0.08
    363 x          9.015574      9.084132     0.068558    Cartesian    0.76
    363 y          4.507787      4.513102     0.005315    Cartesian    0.12
    363 z          9.015574      9.039926     0.024351    Cartesian    0.27
    364 x          4.507787      4.549637     0.041850    Cartesian    0.93
    364 y         -9.015574     -9.058252    -0.042677    Cartesian    0.47
    364 z          4.507787      4.494780    -0.013007    Cartesian   -0.29
    365 x         11.269468     11.262867    -0.006601    Cartesian   -0.06
    365 y          6.761681      6.751528    -0.010153    Cartesian   -0.15
    365 z         -2.253894     -2.240108     0.013785    Cartesian   -0.61
    366 x         -2.253894     -2.255844    -0.001951    Cartesian    0.09
    366 y         11.269468     11.269663     0.000195    Cartesian    0.00
    366 z          2.253894      2.263559     0.009666    Cartesian    0.43
    367 x          2.253894      2.253894     0.000000    Cartesian    0.00
    367 y         -6.761681     -6.769557    -0.007876    Cartesian    0.12
    367 z         -6.761681     -6.737506     0.024175    Cartesian   -0.36
    368 x         11.269468     11.271644     0.002176    Cartesian    0.02
    368 y         -2.253894     -2.251151     0.002742    Cartesian   -0.12
    368 z          6.761681      6.727304    -0.034377    Cartesian   -0.51
    369 x         -2.253894     -2.254847    -0.000954    Cartesian    0.04
    369 y          2.253894      2.239522    -0.014372    Cartesian   -0.64
    369 z         11.269468     11.270282     0.000814    Cartesian    0.01
    370 x         13.523362     13.577564     0.054202    Cartesian    0.40
    370 y          0.000000     -0.025108    -0.025108    Cartesian    0.00
    370 z          0.000000      0.006272     0.006272    Cartesian    0.00
    371 x          4.507787      4.531724     0.023936    Cartesian    0.53
    371 y          9.015574      9.028837     0.013263    Cartesian    0.15
    371 z          9.015574      9.046290     0.030716    Cartesian    0.34
    372 x         -2.253894     -2.249242     0.004652    Cartesian   -0.21
    372 y         11.269468     11.259525    -0.009943    Cartesian   -0.09
    372 z         -2.253894     -2.266613    -0.012720    Cartesian    0.56
    373 x          2.253894      2.253894     0.000000    Cartesian    0.00
    373 y         11.269468     11.261245    -0.008223    Cartesian   -0.07
    373 z          6.761681      6.737769    -0.023911    Cartesian   -0.35
    374 x          2.253894      2.253894     0.000000    Cartesian    0.00
    374 y          6.761681      6.749879    -0.011802    Cartesian   -0.17
    374 z         11.269468     11.261639    -0.007829    Cartesian   -0.07
    375 x          6.761681      6.772661     0.010980    Cartesian    0.16
    375 y         -2.253894     -2.235396     0.018498    Cartesian   -0.82
    375 z         11.269468     11.259815    -0.009653    Cartesian   -0.09
    376 x          9.015574      9.030386     0.014812    Cartesian    0.16
    376 y          9.015574      9.051592     0.036018    Cartesian    0.40
    376 z         -4.507787     -4.508984    -0.001197    Cartesian    0.03
    377 x         13.523362     13.572124     0.048762    Cartesian    0.36
    377 y          4.507787      4.519917     0.012130    Cartesian    0.27
    377 z          0.000000     -0.021025    -0.021025    Cartesian    0.00
    378 x          4.507787      4.530388     0.022600    Cartesian    0.50
    378 y         -4.507787     -4.542188    -0.034401    Cartesian    0.76
    378 z         -9.015574     -9.027660    -0.012086    Cartesian    0.13
    379 x         13.523362     13.582920     0.059558    Cartesian    0.44
    379 y          0.000000      0.002680     0.002680    Cartesian    0.00
    379 z          4.507787      4.494285    -0.013502    Cartesian   -0.30
    380 x          4.507787      4.543386     0.035599    Cartesian    0.79
    380 y         -9.015574     -9.051329    -0.035755    Cartesian    0.40
    380 z         -4.507787     -4.520922    -0.013135    Cartesian    0.29
    381 x          9.015574      9.072666     0.057092    Cartesian    0.63
    381 y         -4.507787     -4.519643    -0.011856    Cartesian    0.26
    381 z          9.015574      9.042174     0.026600    Cartesian    0.30
    382 x         11.269468     11.264278    -0.005190    Cartesian   -0.05
    382 y          2.253894      2.264651     0.010757    Cartesian    0.48
    382 z         -6.761681     -6.743194     0.018487    Cartesian   -0.27
    383 x          6.761681      6.766199     0.004518    Cartesian    0.07
    383 y         -6.761681     -6.742564     0.019117    Cartesian   -0.28
    383 z         -6.761681     -6.772146    -0.010466    Cartesian    0.15
    384 x         11.269468     11.281592     0.012124    Cartesian    0.11
    384 y          6.761681      6.751023    -0.010658    Cartesian   -0.16
    384 z          6.761681      6.762457     0.000776    Cartesian    0.01
    385 x         11.269468     11.269617     0.000149    Cartesian    0.00
    385 y         -6.761681     -6.736746     0.024935    Cartesian   -0.37
    385 z          2.253894      2.237371    -0.016522    Cartesian   -0.73
    386 x          9.015574      8.982411    -0.033164    Cartesian   -0.37
    386 y          0.000000     -0.000431    -0.000431    Cartesian    0.00
    386 z         -9.015574     -9.070680    -0.055106    Cartesian    0.61
    387 x         13.523362     13.573190     0.049829    Cartesian    0.37
    387 y          4.507787      4.492658    -0.015130    Cartesian   -0.34
    387 z          4.507787      4.517140     0.009353    Cartesian    0.21
    388 x          9.015574      9.085639     0.070065    Cartesian    0.78
    388 y         -9.015574     -9.041580    -0.026006    Cartesian    0.29
    388 z          0.000000     -0.005850    -0.005850    Cartesian    0.00
    389 x          2.253894      2.253894     0.000000    Cartesian    0.00
    389 y          2.253894      2.242403    -0.011491    Cartesian   -0.51
    389 z        -11.269468    -11.260307     0.009161    Cartesian   -0.08
    390 x         -2.253894     -2.256374    -0.002480    Cartesian    0.11
    390 y         11.269468     11.277617     0.008149    Cartesian    0.07
    390 z          6.761681      6.757124    -0.004557    Cartesian   -0.07
    391 x         11.269468     11.278342     0.008874    Cartesian    0.08
    391 y         -2.253894     -2.256670    -0.002777    Cartesian    0.12
    391 z         -6.761681     -6.741357     0.020324    Cartesian   -0.30
    392 x          6.761681      6.768353     0.006673    Cartesian    0.10
    392 y          6.761681      6.773011     0.011330    Cartesian    0.17
    392 z         11.269468     11.256651    -0.012817    Cartesian   -0.11
    393 x         11.269468     11.266748    -0.002720    Cartesian   -0.02
    393 y         -6.761681     -6.760062     0.001619    Cartesian   -0.02
    393 z         -2.253894     -2.247539     0.006355    Cartesian   -0.28
    394 x          2.253894      2.253894     0.000000    Cartesian    0.00
    394 y        -11.269468    -11.259367     0.010101    Cartesian   -0.09
    394 z          2.253894      2.226953    -0.026941    Cartesian   -1.20
    395 x          4.507787      4.458882    -0.048905    Cartesian   -1.08
    395 y         13.523362     13.595091     0.071730    Cartesian    0.53
    395 z          0.000000     -0.003046    -0.003046    Cartesian    0.00
    396 x          9.015574      9.090834     0.075260    Cartesian    0.83
    396 y          4.507787      4.513401     0.005614    Cartesian    0.12
    396 z         -9.015574     -9.029737    -0.014163    Cartesian    0.16
    397 x         13.523362     13.566502     0.043140    Cartesian    0.32
    397 y          0.000000     -0.000659    -0.000659    Cartesian    0.00
    397 z         -4.507787     -4.531267    -0.023479    Cartesian    0.52
    398 x         13.523362     13.565812     0.042450    Cartesian    0.31
    398 y         -4.507787     -4.497702     0.010085    Cartesian   -0.22
    398 z          0.000000     -0.010324    -0.010324    Cartesian    0.00
    399 x          2.253894      2.253894     0.000000    Cartesian    0.00
    399 y         11.269468     11.268043    -0.001425    Cartesian   -0.01
    399 z         -6.761681     -6.747094     0.014587    Cartesian   -0.22
    400 x          4.507787      4.529006     0.021219    Cartesian    0.47
    400 y          0.000000      0.002620     0.002620    Cartesian    0.00
    400 z         13.523362     13.590354     0.066992    Cartesian    0.50
    401 x          9.015574      8.984044    -0.031530    Cartesian   -0.35
    401 y         -9.015574     -9.074063    -0.058488    Cartesian    0.65
    401 z          4.507787      4.523509     0.015721    Cartesian    0.35
    402 x          2.253894      2.253894     0.000000    Cartesian    0.00
    402 y         -2.253894     -2.263173    -0.009279    Cartesian    0.41
    402 z        -11.269468    -11.260424     0.009044    Cartesian   -0.08
    403 x          2.253894      2.253894     0.000000    Cartesian    0.00
    403 y        -11.269468    -11.280808    -0.011340    Cartesian    0.10
    403 z         -2.253894     -2.240661     0.013232    Cartesian   -0.59
    404 x          4.507787      4.514290     0.006503    Cartesian    0.14
    404 y          9.015574      9.014828    -0.000747    Cartesian   -0.01
    404 z         -9.015574     -9.084835    -0.069261    Cartesian    0.77
    405 x          2.253894      2.253894     0.000000    Cartesian    0.00
    405 y         -6.761681     -6.746854     0.014827    Cartesian   -0.22
    405 z         11.269468     11.283098     0.013630    Cartesian    0.12
    406 x         13.523362     13.562740     0.039379    Cartesian    0.29
    406 y          4.507787      4.511093     0.003306    Cartesian    0.07
    406 z         -4.507787     -4.497387     0.010400    Cartesian   -0.23
    407 x          4.507787      4.536901     0.029114    Cartesian    0.65
    407 y         13.523362     13.547756     0.024394    Cartesian    0.18
    407 z          4.507787      4.540806     0.033019    Cartesian    0.73
--------------------------------------------------------------------------------


  Time to end of optimisation  =      382.4038 seconds


  Peak dynamic memory used =     151.58 MB 


  Timing analysis for GULP :

--------------------------------------------------------------------------------
  Task / Subroutine                                          Time (Seconds)
--------------------------------------------------------------------------------
  Calculation of reciprocal space energy and derivatives          0.0007
  Calculation of reciprocal space energy using symmetry           0.0010
  Calculation of real space energy and derivatives                0.0041
  Calculation of real space energy using symmetry                 0.0097
  Calculation for region 1 energy and derivatives (2-b)         129.7477
  Calculation for region 2a energy                              241.9512
  Calculation for region 2b energy                                0.0353
  Calculation and manipulation of Hessian matrix                  0.2876
  Calculation of matrix inversion                                 9.6031
  Symmetry generation of equivalent positions                     0.0049
--------------------------------------------------------------------------------
  Total CPU time                                                382.4039
--------------------------------------------------------------------------------


  Dump file written as Na3OCl.grs


  Job Finished at 14:36.13  3rd December   2020                               

