********************************************************************************
*                       GENERAL UTILITY LATTICE PROGRAM                        *
*                                 Julian Gale                                  *
*                       Curtin Institute for Computation                       *
*                    School of Molecular and Life Sciences                     *
*                    Curtin University, Western Australia                      *
********************************************************************************
* Version = 5.2.0 * Last modified =  10th September 2020                       *
********************************************************************************
*  optimise     - perform optimisation run                                     *
*  conp         - constant pressure calculation                                *
*  property     - calculate properties for final geometry                      *
*  defect       - perform defect calculation after bulk run                    *
*  compare      - compare initial and final structures                         *
********************************************************************************

  Job Started  at 14:29.56  3rd December   2020                               

  Number of CPUs =     1


  Total number of configurations input =      1

********************************************************************************
*  Input for Configuration =   1                                               *
********************************************************************************

  Formula = ClONa3                                                      

  Number of irreducible atoms/shells =       5


  Total number atoms/shells =       7

  Dimensionality = 3               :  Bulk   


  Symmetry :

  Crystal family                   :  Cubic       
  Crystal class  (Groth - 1921)    :  Cubic Hexakisoctahedral              

  Space group (centrosymmetric)    :  P M 3 M         

  Patterson group                  :  P m -3 m 

  Cartesian lattice vectors (Angstroms) :

        4.504000    0.000000    0.000000
        0.000000    4.504000    0.000000
        0.000000    0.000000    4.504000

  Cell parameters (Angstroms/Degrees):

  a =       4.5040    alpha =  90.0000
  b =       4.5040    beta  =  90.0000
  c =       4.5040    gamma =  90.0000

  Initial cell volume =          91.368216 Angs**3

  Temperature of configuration =   0.00     K 

  Pressure of configuration =         0.000 GPa 

  Fractional coordinates of asymmetric unit :

--------------------------------------------------------------------------------
   No.  Atomic       x           y          z         Charge      Occupancy
        Label      (Frac)      (Frac)     (Frac)        (e)         (Frac)  
--------------------------------------------------------------------------------
      1 Cl    c    0.000000    0.000000    0.000000     1.48500    1.000000    
      2 O     c    0.500000    0.500000    0.500000     0.18300    1.000000    
      3 Na    c    0.500000    0.500000    0.000000     1.00000    1.000000    
      4 Cl    s    0.000000    0.000000    0.000000    -2.48500    1.000000    
      5 O     s    0.500000    0.500000    0.500000    -2.18300    1.000000    
--------------------------------------------------------------------------------


  Constraints : 

--------------------------------------------------------------------------------
  Constraint no.      Unconstrained     Constrained    Coefficient    Offset
                         Variable         Variable
--------------------------------------------------------------------------------
           1              Strain 1        Strain 2       1.00000      0.0000
           2              Strain 1        Strain 3       1.00000      0.0000
--------------------------------------------------------------------------------


********************************************************************************
*  General input information                                                   *
********************************************************************************

  Species output for all configurations : 

--------------------------------------------------------------------------------
  Species    Type    Atomic    Atomic    Charge       Radii (Angs)     Library
                     Number     Mass       (e)     Cova   Ionic  VDW   Symbol
--------------------------------------------------------------------------------
    Na       Core       11      22.99   1.000000   0.970  0.000  2.300          
    O        Core        8      16.00   0.183000   0.730  0.000  1.360          
    O        Shell       8       0.00  -2.183000   0.730  0.000  0.000          
    Cl       Core       17      35.45   1.485000   0.990  0.000  1.650          
    Cl       Shell      17       0.00  -2.485000   0.990  0.000  0.000          
    Mg       Core       12      24.31   0.415000   1.100  0.000  0.000          
    Mg       Shell      12       0.00   1.585000   1.100  0.000  0.000          
    Ca       Core       20      40.08  -1.135000   0.990  0.000  0.000          
    Ca       Shell      20       0.00   3.135000   0.990  0.000  0.000          
    Sr       Core       38      87.62  -1.251000   1.120  0.000  0.000          
    Sr       Shell      38       0.00   3.251000   1.120  0.000  0.000          
    Ba       Core       56     137.33  -7.203000   1.340  0.000  0.000          
    Ba       Shell      56       0.00   9.203000   1.340  0.000  0.000          
--------------------------------------------------------------------------------


  Lattice summation method               =    Ewald          (3-D)
                                         =    Parry          (2-D)
                                         =    Saunders et al (1-D)
  Accuracy factor for lattice sums       =   12.000


  Analytic derivatives to be used

  Time limit = Infinity

  Maximum range for interatomic potentials =    100000.000000 Angstroms

  General interatomic potentials :

--------------------------------------------------------------------------------
Atom  Types   Potential      Parameter       Value         Units   Cutoffs(Ang)
  1     2                                                            Min /  Max 
--------------------------------------------------------------------------------
O    c O    s Spring (c-s)  Spring k 2       593.71600    eV*Ang^-2 0.000  0.800
                            Spring k 4       0.0000000    eV*Ang^-4 
--------------------------------------------------------------------------------
Cl   c Cl   s Spring (c-s)  Spring k 2       29.380000    eV*Ang^-2 0.000  0.800
                            Spring k 4       0.0000000    eV*Ang^-4 
--------------------------------------------------------------------------------
Mg   c Mg   s Spring (c-s)  Spring k 2       361.60000    eV*Ang^-2 0.000  0.800
                            Spring k 4       0.0000000    eV*Ang^-4 
--------------------------------------------------------------------------------
Ca   c Ca   s Spring (c-s)  Spring k 2       110.20000    eV*Ang^-2 0.000  0.800
                            Spring k 4       0.0000000    eV*Ang^-4 
--------------------------------------------------------------------------------
Sr   c Sr   s Spring (c-s)  Spring k 2       71.700000    eV*Ang^-2 0.000  0.800
                            Spring k 4       0.0000000    eV*Ang^-4 
--------------------------------------------------------------------------------
Ba   c Ba   s Spring (c-s)  Spring k 2       495.20000    eV*Ang^-2 0.000  0.800
                            Spring k 4       0.0000000    eV*Ang^-4 
--------------------------------------------------------------------------------
Na   c Na   c Buckingham    Buckingham A     1788.1900    eV        0.000 12.000
                            Buckingham rho  0.15900000    Ang       
                            Buckingham C     0.0000000    eV*Ang^6  
--------------------------------------------------------------------------------
Na   c O    s Buckingham    Buckingham A     1226.8400    eV        0.000 12.000
                            Buckingham rho  0.30700000    Ang       
                            Buckingham C     0.0000000    eV*Ang^6  
--------------------------------------------------------------------------------
Na   c Cl   s Buckingham    Buckingham A     2314.7000    eV        0.000 12.000
                            Buckingham rho  0.29000000    Ang       
                            Buckingham C     0.0000000    eV*Ang^6  
--------------------------------------------------------------------------------
O    s O    s Buckingham    Buckingham A     22764.300    eV        0.000 12.000
                            Buckingham rho  0.14900000    Ang       
                            Buckingham C     13.190000    eV*Ang^6  
--------------------------------------------------------------------------------
O    s Cl   s Buckingham    Buckingham A     8286.9100    eV        0.000 12.000
                            Buckingham rho  0.25900000    Ang       
                            Buckingham C     62.200000    eV*Ang^6  
--------------------------------------------------------------------------------
Cl   s Cl   s Buckingham    Buckingham A     1227.2000    eV        0.000 12.000
                            Buckingham rho  0.32100000    Ang       
                            Buckingham C     14.530000    eV*Ang^6  
--------------------------------------------------------------------------------
O    s Mg   s Buckingham    Buckingham A     1428.5000    eV        0.000 12.000
                            Buckingham rho  0.29450000    Ang       
                            Buckingham C     0.0000000    eV*Ang^6  
--------------------------------------------------------------------------------
Mg   s Cl   s Buckingham    Buckingham A     4914.5400    eV        0.000 12.000
                            Buckingham rho  0.25700000    Ang       
                            Buckingham C     0.0000000    eV*Ang^6  
--------------------------------------------------------------------------------
O    s Ca   s Buckingham    Buckingham A     1090.4000    eV        0.000 12.000
                            Buckingham rho  0.34370000    Ang       
                            Buckingham C     0.0000000    eV*Ang^6  
--------------------------------------------------------------------------------
Cl   s Ca   s Buckingham    Buckingham A     2302.0000    eV        0.000 12.000
                            Buckingham rho  0.34020000    Ang       
                            Buckingham C     0.0000000    eV*Ang^6  
--------------------------------------------------------------------------------
O    s Sr   s Buckingham    Buckingham A     959.10000    eV        0.000 12.000
                            Buckingham rho  0.37210000    Ang       
                            Buckingham C     0.0000000    eV*Ang^6  
--------------------------------------------------------------------------------
Cl   s Sr   s Buckingham    Buckingham A     2191.0900    eV        0.000 12.000
                            Buckingham rho  0.34570000    Ang       
                            Buckingham C     0.0000000    eV*Ang^6  
--------------------------------------------------------------------------------
O    s Ba   s Buckingham    Buckingham A     905.70000    eV        0.000 12.000
                            Buckingham rho  0.39760000    Ang       
                            Buckingham C     0.0000000    eV*Ang^6  
--------------------------------------------------------------------------------
Cl   s Ba   s Buckingham    Buckingham A     2704.5500    eV        0.000 12.000
                            Buckingham rho  0.35280000    Ang       
                            Buckingham C     0.0000000    eV*Ang^6  
--------------------------------------------------------------------------------

********************************************************************************
*  Output for configuration   1                                                *
********************************************************************************


  Components of energy : 

--------------------------------------------------------------------------------
  Interatomic potentials     =           5.13022605 eV    
  Monopole - monopole (real) =         -10.03624526 eV    
  Monopole - monopole (recip)=         -29.53581274 eV    
  Monopole - monopole (total)=         -39.57205800 eV    
--------------------------------------------------------------------------------
  Total lattice energy       =         -34.44183194 eV    
--------------------------------------------------------------------------------
  Total lattice energy       =           -3323.1103 kJ/(mole unit cells)
--------------------------------------------------------------------------------


  Number of variables =        1

  Maximum number of calculations  =          1000
  Maximum Hessian update interval =            10
  Maximum step size               =   1.000000000
  Maximum parameter tolerance     =   0.000010000
  Maximum function  tolerance     =   0.000010000
  Maximum gradient  tolerance     =   0.001000000
  Maximum gradient  component     =   0.010000000

  Symmetry constrained optimisation

  Symmetry used for second derivatives

  Cell parameters to be optimised using strains

  Newton-Raphson optimiser to be used

  BFGS hessian update to be used

  Lower half triangular hessian to be used

  Start of bulk optimisation :

  Cycle:      0 Energy:       -34.441832  Gnorm:      0.196570  CPU:    0.015
  ** Hessian calculated **
  Cycle:      1 Energy:       -34.441914  Gnorm:      0.000103  CPU:    0.018


  **** Optimisation achieved ****


  Final energy =     -34.44191447 eV
  Final Gnorm  =       0.00000000

  Components of energy : 

--------------------------------------------------------------------------------
  Interatomic potentials     =           5.09689708 eV    
  Monopole - monopole (real) =         -10.02781331 eV    
  Monopole - monopole (recip)=         -29.51099824 eV    
  Monopole - monopole (total)=         -39.53881155 eV    
--------------------------------------------------------------------------------
  Total lattice energy       =         -34.44191447 eV    
--------------------------------------------------------------------------------
  Total lattice energy       =           -3323.1183 kJ/(mole unit cells)
--------------------------------------------------------------------------------

  Final asymmetric unit coordinates :

--------------------------------------------------------------------------------
   No.  Atomic        x           y           z         Radius
        Label       (Frac)      (Frac)      (Frac)       (Angs) 
--------------------------------------------------------------------------------
     1  Cl    c     0.000000    0.000000    0.000000    0.000000
     2  O     c     0.500000    0.500000    0.500000    0.000000
     3  Na    c     0.500000    0.500000    0.000000    0.000000
     4  Cl    s     0.000000    0.000000    0.000000    0.000000
     5  O     s     0.500000    0.500000    0.500000    0.000000
--------------------------------------------------------------------------------

  Final Cartesian lattice vectors (Angstroms) :

        4.507787    0.000000    0.000000
        0.000000    4.507787    0.000000
        0.000000    0.000000    4.507787


  Final cell parameters and derivatives :

--------------------------------------------------------------------------------
       a            4.507787 Angstrom     dE/de1(xx)     0.000000 eV/strain
       b            4.507787 Angstrom     dE/de2(yy)     0.000000 eV/strain
       c            4.507787 Angstrom     dE/de3(zz)     0.000000 eV/strain
       alpha       90.000000 Degrees      dE/de4(yz)     0.000000 eV/strain
       beta        90.000000 Degrees      dE/de5(xz)     0.000000 eV/strain
       gamma       90.000000 Degrees      dE/de6(xy)     0.000000 eV/strain
--------------------------------------------------------------------------------

  Primitive cell volume =            91.598892 Angs**3

  Density of cell =      2.183054 g/cm**3

  Non-primitive cell volume =            91.598892 Angs**3


  Final internal derivatives :

--------------------------------------------------------------------------------
   No.  Atomic          a             b             c           Radius
        Label          (eV)          (eV)          (eV)        (eV/Angs)
--------------------------------------------------------------------------------
      1 Cl    c       0.000000      0.000000      0.000000      0.000000
      2 O     c       0.000000      0.000000      0.000000      0.000000
      3 Na    c       0.000000      0.000000      0.000000      0.000000
      4 Cl    s       0.000000      0.000000      0.000000      0.000000
      5 O     s       0.000000      0.000000      0.000000      0.000000
--------------------------------------------------------------------------------
  Maximum abs         0.000000      0.000000      0.000000      0.000000
--------------------------------------------------------------------------------

  Comparison of initial and final structures : 

--------------------------------------------------------------------------------
  Parameter   Initial value   Final value   Difference    Units      Percent
--------------------------------------------------------------------------------
    Volume        91.368216     91.598892     0.230676    Angs**3      0.25
    a              4.504000      4.507787     0.003787    Angstroms    0.08
    b              4.504000      4.507787     0.003787    Angstroms    0.08
    c              4.504000      4.507787     0.003787    Angstroms    0.08
    alpha         90.000000     90.000000     0.000000    Degrees      0.00
    beta          90.000000     90.000000     0.000000    Degrees      0.00
    gamma         90.000000     90.000000     0.000000    Degrees      0.00
      1 x          0.000000      0.000000     0.000000    Fractional   0.00
      1 y          0.000000      0.000000     0.000000    Fractional   0.00
      1 z          0.000000      0.000000     0.000000    Fractional   0.00
      2 x          0.500000      0.500000     0.000000    Fractional   0.00
      2 y          0.500000      0.500000     0.000000    Fractional   0.00
      2 z          0.500000      0.500000     0.000000    Fractional   0.00
      3 x          0.500000      0.500000     0.000000    Fractional   0.00
      3 y          0.500000      0.500000     0.000000    Fractional   0.00
      3 z          0.000000      0.000000     0.000000    Fractional   0.00
      4 x          0.000000      0.000000     0.000000    Fractional   0.00
      4 y          0.000000      0.000000     0.000000    Fractional   0.00
      4 z          0.000000      0.000000     0.000000    Fractional   0.00
      5 x          0.500000      0.500000     0.000000    Fractional   0.00
      5 y          0.500000      0.500000     0.000000    Fractional   0.00
      5 z          0.500000      0.500000     0.000000    Fractional   0.00
--------------------------------------------------------------------------------


  Born effective charge tensors : 

-------------------------------------------------------------------------------
  Atom             x           y             z
-------------------------------------------------------------------------------
    1 Cl    x      -1.0181     -0.0000      0.0000
            y      -0.0000     -1.0181      0.0000
            z       0.0000      0.0000     -1.0181
-------------------------------------------------------------------------------
    2 O     x      -2.2647      0.0000     -0.0000
            y       0.0000     -2.2647     -0.0000
            z      -0.0000     -0.0000     -2.2647
-------------------------------------------------------------------------------
    3 Na    x       1.2258     -0.0000      0.0000
            y      -0.0000      1.2258     -0.0000
            z       0.0000     -0.0000      0.8313
-------------------------------------------------------------------------------




  Elastic Constant Matrix: (Units=GPa)

-------------------------------------------------------------------------------
  Indices      1         2         3         4         5         6    
-------------------------------------------------------------------------------
       1     95.8177   20.0737   20.0737   -0.0000   -0.0000    0.0000
       2     20.0737   95.8177   20.0737   -0.0000   -0.0000    0.0000
       3     20.0737   20.0737   95.8177   -0.0000   -0.0000    0.0000
       4     -0.0000   -0.0000   -0.0000   20.0737   -0.0000    0.0000
       5     -0.0000   -0.0000   -0.0000   -0.0000   20.0737    0.0000
       6      0.0000    0.0000    0.0000    0.0000    0.0000   20.0737
-------------------------------------------------------------------------------


  Elastic Compliance Matrix: (Units=1/GPa)

-------------------------------------------------------------------------------
  Indices      1         2         3         4         5         6    
-------------------------------------------------------------------------------
       1    0.011253 -0.001949 -0.001949  0.000000  0.000000 -0.000000
       2   -0.001949  0.011253 -0.001949  0.000000  0.000000  0.000000
       3   -0.001949 -0.001949  0.011253  0.000000  0.000000 -0.000000
       4    0.000000  0.000000  0.000000  0.049816  0.000000 -0.000000
       5    0.000000  0.000000  0.000000  0.000000  0.049816 -0.000000
       6   -0.000000  0.000000 -0.000000 -0.000000 -0.000000  0.049816
-------------------------------------------------------------------------------

  Mechanical properties :

-------------------------------------------------------------------------------
  Convention :                    Reuss         Voigt         Hill
-------------------------------------------------------------------------------
  Bulk  Modulus (GPa)     =      45.32174      45.32174      45.32174
  Shear Modulus (GPa)     =      24.72085      27.19304      25.95695
-------------------------------------------------------------------------------
  Velocity S-wave (km/s)  =       3.36511       3.52937       3.44822
  Velocity P-wave (km/s)  =       5.98827       6.11304       6.05098
-------------------------------------------------------------------------------
  Compressibility (1/GPa) =    0.02206447
-------------------------------------------------------------------------------
  Stress axis :                     x             y             z
-------------------------------------------------------------------------------
  Youngs Moduli (GPa)     =      88.86373      88.86373      88.86373
-------------------------------------------------------------------------------
  Poissons Ratio (x)      =                     0.17321       0.17321
  Poissons Ratio (y)      =       0.17321                     0.17321
  Poissons Ratio (z)      =       0.17321       0.17321
-------------------------------------------------------------------------------


  Piezoelectric Strain Matrix: (Units=C/m**2)

-------------------------------------------------------------------------------
  Indices      1         2         3         4         5         6    
-------------------------------------------------------------------------------
       x    -0.00000  -0.00000  -0.00000   0.00000  -0.00000  -0.00000
       y    -0.00000  -0.00000   0.00000  -0.00000   0.00000   0.00000
       z    -0.00000  -0.00000  -0.00000  -0.00000   0.00000   0.00000
-------------------------------------------------------------------------------


  Piezoelectric Stress Matrix: (Units=10**-11 C/N)

-------------------------------------------------------------------------------
  Indices      1         2         3         4         5         6    
-------------------------------------------------------------------------------
       x    -0.00000   0.00000   0.00000   0.00000  -0.00000  -0.00000
       y    -0.00000  -0.00000   0.00000  -0.00000   0.00000   0.00000
       z     0.00000   0.00000  -0.00000  -0.00000   0.00000   0.00000
-------------------------------------------------------------------------------


  Static dielectric constant tensor : 

-------------------------------------------------------------------------------
              x         y         z
-------------------------------------------------------------------------------
       x    22.84729   0.00000   0.00000
       y     0.00000  22.84729  -0.00000
       z     0.00000  -0.00000  22.84729
--------------------------------------------------------------------------------

  High frequency dielectric constant tensor : 

-------------------------------------------------------------------------------
              x         y         z
-------------------------------------------------------------------------------
       x     1.47557   0.00000  -0.00000
       y     0.00000   1.47557  -0.00000
       z    -0.00000  -0.00000   1.47557
-------------------------------------------------------------------------------

  Static refractive indices : 

-------------------------------------------------------------------------------
    1 =    4.77988      2 =    4.77988      3 =    4.77988
-------------------------------------------------------------------------------

  High frequency refractive indices : 

-------------------------------------------------------------------------------
    1 =    1.21473      2 =    1.21473      3 =    1.21473
-------------------------------------------------------------------------------


  Time to end of optimisation =       0.0271 seconds

********************************************************************************
*  Defect calculation for configuration   1 :                                  *
********************************************************************************

  Total number of defects =      3

  Total charge on defect  =  -1.00

  Defect centre is at   0.5000   0.2800   0.2200  Frac

  Region 1 radius =  13.0000      Number of ions =    699

  Number of symmetry inequivalent region 1 ions  =    403

  Region 2 radius =  21.0000      Number of ions =   2252

  Number of symmetry inequivalent region 2a ions =   1209

  Region 2a mode = 4 : screened electrostatics due to region 1 
                       neglect correction to region 1 forces from 2a
                       region 2a displacements based on defects only

  Region 2a ions will only interact with defects in region 1

  Vacancies:

--------------------------------------------------------------------------------
    Specification type     Symbol/Number         x          y          z
--------------------------------------------------------------------------------
    Fractional                               0.500000   0.500000   0.000000
    Fractional                               0.500000   0.000000   0.500000
--------------------------------------------------------------------------------

  Interstitials:

--------------------------------------------------------------------------------
    Specification type     Symbol/Number         x          y          z
--------------------------------------------------------------------------------
    Atom/Fractional         Na               0.500000   0.280000   0.220000
--------------------------------------------------------------------------------


  Symmetry reduced region 1 (Relative to defect centre) :

--------------------------------------------------------------------------------
   No.   Atomic       x            y             z       Radius  Multiplicity   
         Label      (Angs)       (Angs)        (Angs)    (Angs)     
--------------------------------------------------------------------------------
     1  Na    c      0.0000       0.0000       0.0000    0.0000     1    Defect
     2  O     c      0.0000       0.9917 *     1.2622 *  0.0000     1          
     3  Na    c      2.2539 *     0.9917 *     1.2622 *  0.0000     2          
     4  Cl    c      2.2539 *    -1.2622 *    -0.9917 *  0.0000     2          
     5  O     c      0.0000       0.9917 *    -3.2456 *  0.0000     1          
     6  Na    c      0.0000      -1.2622 *    -3.2456 *  0.0000     1          
     7  Na    c      0.0000       3.2456 *     1.2622 *  0.0000     1          
     8  Na    c      0.0000       0.9917 *     3.5161 *  0.0000     1          
     9  Na    c      0.0000      -3.5161 *    -0.9917 *  0.0000     1          
    10  O     c      0.0000      -3.5161 *     1.2622 *  0.0000     1          
    11  Cl    c      2.2539 *     3.2456 *    -0.9917 *  0.0000     2          
    12  Na    c      2.2539 *     0.9917 *    -3.2456 *  0.0000     2          
    13  Cl    c      2.2539 *    -1.2622 *     3.5161 *  0.0000     2          
    14  Na    c      2.2539 *    -3.5161 *     1.2622 *  0.0000     2          
    15  Na    c      0.0000       3.2456 *    -3.2456 *  0.0000     1          
    16  Na    c     -4.5078 *     0.9917 *    -0.9917 *  0.0000     2          
    17  O     c      0.0000      -3.5161 *    -3.2456 *  0.0000     1          
    18  O     c     -4.5078 *     0.9917 *     1.2622 *  0.0000     2          
    19  Na    c     -4.5078 *    -1.2622 *     1.2622 *  0.0000     2          
    20  Na    c      0.0000      -3.5161 *     3.5161 *  0.0000     1          
    21  Cl    c      2.2539 *     3.2456 *     3.5161 *  0.0000     2          
    22  Na    c      2.2539 *    -3.5161 *    -3.2456 *  0.0000     2          
    23  Na    c      0.0000       5.4995 *    -0.9917 *  0.0000     1          
    24  Na    c      0.0000       0.9917 *    -5.4995 *  0.0000     1          
    25  O     c      0.0000       5.4995 *     1.2622 *  0.0000     1          
    26  O     c     -4.5078 *     0.9917 *    -3.2456 *  0.0000     2          
    27  Na    c     -4.5078 *    -1.2622 *    -3.2456 *  0.0000     2          
    28  Na    c     -4.5078 *     3.2456 *     1.2622 *  0.0000     2          
    29  Na    c     -4.5078 *     0.9917 *     3.5161 *  0.0000     2          
    30  Na    c     -4.5078 *    -3.5161 *    -0.9917 *  0.0000     2          
    31  O     c      0.0000       0.9917 *     5.7700 *  0.0000     1          
    32  O     c     -4.5078 *    -3.5161 *     1.2622 *  0.0000     2          
    33  Na    c      0.0000      -1.2622 *     5.7700 *  0.0000     1          
    34  Na    c      0.0000      -5.7700 *     1.2622 *  0.0000     1          
    35  Na    c      2.2539 *     5.4995 *     1.2622 *  0.0000     2          
    36  Cl    c      2.2539 *    -1.2622 *    -5.4995 *  0.0000     2          
    37  Cl    c      2.2539 *    -5.7700 *    -0.9917 *  0.0000     2          
    38  Na    c      2.2539 *     0.9917 *     5.7700 *  0.0000     2          
    39  O     c      0.0000       5.4995 *    -3.2456 *  0.0000     1          
    40  Na    c      4.5078 *     3.2456 *    -3.2456 *  0.0000     2          
    41  Na    c      0.0000       5.4995 *     3.5161 *  0.0000     1          
    42  Na    c      0.0000      -3.5161 *    -5.4995 *  0.0000     1          
    43  O     c     -4.5078 *    -3.5161 *    -3.2456 *  0.0000     2          
    44  Na    c      0.0000       3.2456 *     5.7700 *  0.0000     1          
    45  Na    c      0.0000      -5.7700 *    -3.2456 *  0.0000     1          
    46  Na    c     -4.5078 *    -3.5161 *     3.5161 *  0.0000     2          
    47  O     c      0.0000      -3.5161 *     5.7700 *  0.0000     1          
    48  Na    c      2.2539 *     5.4995 *    -3.2456 *  0.0000     2          
    49  Cl    c      2.2539 *     3.2456 *    -5.4995 *  0.0000     2          
    50  Cl    c      6.7617 *    -1.2622 *    -0.9917 *  0.0000     2          
    51  Na    c      6.7617 *     0.9917 *     1.2622 *  0.0000     2          
    52  Cl    c      2.2539 *    -5.7700 *     3.5161 *  0.0000     2          
    53  Na    c      2.2539 *    -3.5161 *     5.7700 *  0.0000     2          
    54  Na    c     -4.5078 *     5.4995 *    -0.9917 *  0.0000     2          
    55  Na    c     -4.5078 *     0.9917 *    -5.4995 *  0.0000     2          
    56  O     c     -4.5078 *     5.4995 *     1.2622 *  0.0000     2          
    57  O     c     -4.5078 *     0.9917 *     5.7700 *  0.0000     2          
    58  Na    c     -4.5078 *    -5.7700 *     1.2622 *  0.0000     2          
    59  Na    c      4.5078 *    -1.2622 *     5.7700 *  0.0000     2          
    60  Cl    c      6.7617 *     3.2456 *    -0.9917 *  0.0000     2          
    61  Na    c      6.7617 *     0.9917 *    -3.2456 *  0.0000     2          
    62  Cl    c      6.7617 *    -1.2622 *     3.5161 *  0.0000     2          
    63  Na    c      6.7617 *    -3.5161 *     1.2622 *  0.0000     2          
    64  Na    c      0.0000       5.4995 *    -5.4995 *  0.0000     1          
    65  O     c     -4.5078 *     5.4995 *    -3.2456 *  0.0000     2          
    66  O     c      0.0000       0.9917 *    -7.7534 *  0.0000     1          
    67  Na    c      0.0000      -1.2622 *    -7.7534 *  0.0000     1          
    68  Na    c      0.0000       7.7534 *     1.2622 *  0.0000     1          
    69  Na    c     -4.5078 *     5.4995 *     3.5161 *  0.0000     2          
    70  Na    c     -4.5078 *    -3.5161 *    -5.4995 *  0.0000     2          
    71  O     c      0.0000       5.4995 *     5.7700 *  0.0000     1          
    72  Na    c     -4.5078 *    -5.7700 *    -3.2456 *  0.0000     2          
    73  Na    c      4.5078 *     3.2456 *     5.7700 *  0.0000     2          
    74  Na    c      0.0000       0.9917 *     8.0239 *  0.0000     1          
    75  Na    c      0.0000      -8.0239 *    -0.9917 *  0.0000     1          
    76  O     c      0.0000      -8.0239 *     1.2622 *  0.0000     1          
    77  O     c      4.5078 *    -3.5161 *     5.7700 *  0.0000     2          
    78  Cl    c      2.2539 *     7.7534 *    -0.9917 *  0.0000     2          
    79  Na    c      2.2539 *     0.9917 *    -7.7534 *  0.0000     2          
    80  Na    c      0.0000      -5.7700 *     5.7700 *  0.0000     1          
    81  Na    c      2.2539 *     5.4995 *     5.7700 *  0.0000     2          
    82  Cl    c      2.2539 *    -5.7700 *    -5.4995 *  0.0000     2          
    83  Cl    c      6.7617 *     3.2456 *     3.5161 *  0.0000     2          
    84  Na    c      6.7617 *    -3.5161 *    -3.2456 *  0.0000     2          
    85  Na    c      0.0000       3.2456 *    -7.7534 *  0.0000     1          
    86  Na    c      0.0000       7.7534 *    -3.2456 *  0.0000     1          
    87  Na    c      2.2539 *    -8.0239 *     1.2622 *  0.0000     2          
    88  Cl    c      2.2539 *    -1.2622 *     8.0239 *  0.0000     2          
    89  O     c      0.0000      -3.5161 *    -7.7534 *  0.0000     1          
    90  O     c      0.0000      -8.0239 *    -3.2456 *  0.0000     1          
    91  Na    c      0.0000      -3.5161 *     8.0239 *  0.0000     1          
    92  Na    c      0.0000      -8.0239 *     3.5161 *  0.0000     1          
    93  Na    c      2.2539 *    -3.5161 *    -7.7534 *  0.0000     2          
    94  Na    c      6.7617 *     5.4995 *     1.2622 *  0.0000     2          
    95  Cl    c      2.2539 *     7.7534 *     3.5161 *  0.0000     2          
    96  Cl    c      6.7617 *    -1.2622 *    -5.4995 *  0.0000     2          
    97  Cl    c      2.2539 *     3.2456 *     8.0239 *  0.0000     2          
    98  Na    c      2.2539 *    -8.0239 *    -3.2456 *  0.0000     2          
    99  Cl    c      6.7617 *    -5.7700 *    -0.9917 *  0.0000     2          
   100  Na    c      6.7617 *     0.9917 *     5.7700 *  0.0000     2          
   101  Na    c     -4.5078 *     5.4995 *    -5.4995 *  0.0000     2          
   102  O     c     -4.5078 *     0.9917 *    -7.7534 *  0.0000     2          
   103  Na    c     -4.5078 *    -1.2622 *    -7.7534 *  0.0000     2          
   104  Na    c      4.5078 *     7.7534 *     1.2622 *  0.0000     2          
   105  Na    c      9.0156 *     0.9917 *    -0.9917 *  0.0000     2          
   106  O     c     -4.5078 *     5.4995 *     5.7700 *  0.0000     2          
   107  O     c      9.0156 *     0.9917 *     1.2622 *  0.0000     2          
   108  Na    c      9.0156 *    -1.2622 *     1.2622 *  0.0000     2          
   109  Na    c     -4.5078 *    -8.0239 *    -0.9917 *  0.0000     2          
   110  Na    c      4.5078 *     0.9917 *     8.0239 *  0.0000     2          
   111  O     c     -4.5078 *    -8.0239 *     1.2622 *  0.0000     2          
   112  Na    c      6.7617 *     5.4995 *    -3.2456 *  0.0000     2          
   113  Cl    c      6.7617 *     3.2456 *    -5.4995 *  0.0000     2          
   114  Na    c     -4.5078 *    -5.7700 *     5.7700 *  0.0000     2          
   115  O     c      0.0000       5.4995 *    -7.7534 *  0.0000     1          
   116  Na    c      4.5078 *     7.7534 *    -3.2456 *  0.0000     2          
   117  Na    c     -4.5078 *     3.2456 *    -7.7534 *  0.0000     2          
   118  Cl    c      6.7617 *    -5.7700 *     3.5161 *  0.0000     2          
   119  Na    c      6.7617 *    -3.5161 *     5.7700 *  0.0000     2          
   120  O     c      9.0156 *     0.9917 *    -3.2456 *  0.0000     2          
   121  O     c      4.5078 *    -3.5161 *    -7.7534 *  0.0000     2          
   122  Na    c      0.0000       7.7534 *     5.7700 *  0.0000     1          
   123  Na    c      0.0000      -5.7700 *    -7.7534 *  0.0000     1          
   124  Na    c      9.0156 *    -1.2622 *    -3.2456 *  0.0000     2          
   125  Na    c      9.0156 *     3.2456 *     1.2622 *  0.0000     2          
   126  Na    c      0.0000       5.4995 *     8.0239 *  0.0000     1          
   127  Na    c      0.0000      -8.0239 *    -5.4995 *  0.0000     1          
   128  Na    c      9.0156 *     0.9917 *     3.5161 *  0.0000     2          
   129  Na    c      9.0156 *    -3.5161 *    -0.9917 *  0.0000     2          
   130  O     c     -4.5078 *    -8.0239 *    -3.2456 *  0.0000     2          
   131  O     c      9.0156 *    -3.5161 *     1.2622 *  0.0000     2          
   132  Na    c      2.2539 *     5.4995 *    -7.7534 *  0.0000     2          
   133  Cl    c      2.2539 *     7.7534 *    -5.4995 *  0.0000     2          
   134  Na    c      4.5078 *    -3.5161 *     8.0239 *  0.0000     2          
   135  Na    c     -4.5078 *    -8.0239 *     3.5161 *  0.0000     2          
   136  O     c      0.0000      -8.0239 *     5.7700 *  0.0000     1          
   137  Na    c      0.0000       0.9917 *   -10.0073 *  0.0000     1          
   138  Na    c      0.0000      10.0073 *    -0.9917 *  0.0000     1          
   139  O     c      0.0000      10.0073 *     1.2622 *  0.0000     1          
   140  Na    c      9.0156 *     3.2456 *    -3.2456 *  0.0000     2          
   141  Cl    c      2.2539 *    -5.7700 *     8.0239 *  0.0000     2          
   142  Na    c      2.2539 *    -8.0239 *     5.7700 *  0.0000     2          
   143  O     c      9.0156 *    -3.5161 *    -3.2456 *  0.0000     2          
   144  Na    c      9.0156 *    -3.5161 *     3.5161 *  0.0000     2          
   145  O     c      0.0000       0.9917 *    10.2778 *  0.0000     1          
   146  Cl    c      6.7617 *     7.7534 *    -0.9917 *  0.0000     2          
   147  Na    c      2.2539 *    10.0073 *     1.2622 *  0.0000     2          
   148  Cl    c      2.2539 *    -1.2622 *   -10.0073 *  0.0000     2          
   149  Na    c      6.7617 *     0.9917 *    -7.7534 *  0.0000     2          
   150  Na    c      0.0000      -1.2622 *    10.2778 *  0.0000     1          
   151  Na    c      0.0000     -10.2778 *     1.2622 *  0.0000     1          
   152  Cl    c      6.7617 *    -5.7700 *    -5.4995 *  0.0000     2          
   153  Na    c      6.7617 *     5.4995 *     5.7700 *  0.0000     2          
   154  O     c     -4.5078 *     5.4995 *    -7.7534 *  0.0000     2          
   155  O     c      0.0000      10.0073 *    -3.2456 *  0.0000     1          
   156  Cl    c      6.7617 *    -1.2622 *     8.0239 *  0.0000     2          
   157  Na    c      6.7617 *    -8.0239 *     1.2622 *  0.0000     2          
   158  Cl    c      2.2539 *   -10.2778 *    -0.9917 *  0.0000     2          
   159  Na    c      2.2539 *     0.9917 *    10.2778 *  0.0000     2          
   160  Na    c      9.0156 *     5.4995 *    -0.9917 *  0.0000     2          
   161  Na    c      0.0000      10.0073 *     3.5161 *  0.0000     1          
   162  Na    c      0.0000      -3.5161 *   -10.0073 *  0.0000     1          
   163  Na    c      9.0156 *     0.9917 *    -5.4995 *  0.0000     2          
   164  O     c      9.0156 *     5.4995 *     1.2622 *  0.0000     2          
   165  Na    c      4.5078 *     7.7534 *     5.7700 *  0.0000     2          
   166  Na    c      4.5078 *    -5.7700 *    -7.7534 *  0.0000     2          
   167  Na    c     -4.5078 *     5.4995 *     8.0239 *  0.0000     2          
   168  Na    c      4.5078 *    -8.0239 *    -5.4995 *  0.0000     2          
   169  O     c      9.0156 *     0.9917 *     5.7700 *  0.0000     2          
   170  Cl    c      2.2539 *     3.2456 *   -10.0073 *  0.0000     2          
   171  Na    c      2.2539 *    10.0073 *    -3.2456 *  0.0000     2          
   172  Na    c      0.0000       3.2456 *    10.2778 *  0.0000     1          
   173  Na    c      0.0000     -10.2778 *    -3.2456 *  0.0000     1          
   174  Na    c      9.0156 *    -1.2622 *     5.7700 *  0.0000     2          
   175  Na    c      9.0156 *    -5.7700 *     1.2622 *  0.0000     2          
   176  O     c     -4.5078 *    -8.0239 *     5.7700 *  0.0000     2          
   177  O     c      0.0000      -3.5161 *    10.2778 *  0.0000     1          
   178  Cl    c      6.7617 *     7.7534 *     3.5161 *  0.0000     2          
   179  Na    c      6.7617 *    -3.5161 *    -7.7534 *  0.0000     2          
   180  Na    c      0.0000       7.7534 *    -7.7534 *  0.0000     1          
   181  Cl    c      6.7617 *     3.2456 *     8.0239 *  0.0000     2          
   182  Na    c      6.7617 *    -8.0239 *    -3.2456 *  0.0000     2          
   183  Na    c     -4.5078 *    10.0073 *    -0.9917 *  0.0000     2          
   184  Na    c      4.5078 *     0.9917 *   -10.0073 *  0.0000     2          
   185  O     c      9.0156 *     5.4995 *    -3.2456 *  0.0000     2          
   186  O     c     -4.5078 *    10.0073 *     1.2622 *  0.0000     2          
   187  Cl    c      2.2539 *   -10.2778 *     3.5161 *  0.0000     2          
   188  Na    c      2.2539 *    -3.5161 *    10.2778 *  0.0000     2          
   189  Na    c      9.0156 *     5.4995 *     3.5161 *  0.0000     2          
   190  Na    c      9.0156 *    -3.5161 *    -5.4995 *  0.0000     2          
   191  O     c      0.0000      -8.0239 *    -7.7534 *  0.0000     1          
   192  Na    c      9.0156 *     3.2456 *     5.7700 *  0.0000     2          
   193  Na    c      9.0156 *    -5.7700 *    -3.2456 *  0.0000     2          
   194  O     c      9.0156 *    -3.5161 *     5.7700 *  0.0000     2          
   195  O     c      4.5078 *     0.9917 *    10.2778 *  0.0000     2          
   196  Na    c      4.5078 *    -1.2622 *    10.2778 *  0.0000     2          
   197  Na    c     -4.5078 *   -10.2778 *     1.2622 *  0.0000     2          
   198  Na    c      0.0000      -8.0239 *     8.0239 *  0.0000     1          
   199  Na    c     11.2695 *     0.9917 *     1.2622 *  0.0000     2          
   200  Cl    c      2.2539 *     7.7534 *     8.0239 *  0.0000     2          
   201  Cl    c     11.2695 *    -1.2622 *    -0.9917 *  0.0000     2          
   202  Na    c      2.2539 *    -8.0239 *    -7.7534 *  0.0000     2          
   203  Na    c      0.0000       5.4995 *   -10.0073 *  0.0000     1          
   204  Na    c      0.0000      10.0073 *    -5.4995 *  0.0000     1          
   205  O     c      4.5078 *    10.0073 *    -3.2456 *  0.0000     2          
   206  Na    c      4.5078 *    10.0073 *     3.5161 *  0.0000     2          
   207  Na    c      4.5078 *    -3.5161 *   -10.0073 *  0.0000     2          
   208  O     c      0.0000      10.0073 *     5.7700 *  0.0000     1          
   209  O     c      0.0000       5.4995 *    10.2778 *  0.0000     1          
   210  Cl    c      6.7617 *     7.7534 *    -5.4995 *  0.0000     2          
   211  Na    c      6.7617 *     5.4995 *    -7.7534 *  0.0000     2          
   212  Na    c      4.5078 *     3.2456 *    10.2778 *  0.0000     2          
   213  Na    c      4.5078 *   -10.2778 *    -3.2456 *  0.0000     2          
   214  O     c      4.5078 *    -3.5161 *    10.2778 *  0.0000     2          
   215  Na    c     11.2695 *     0.9917 *    -3.2456 *  0.0000     2          
   216  Cl    c      2.2539 *    -5.7700 *   -10.0073 *  0.0000     2          
   217  Cl    c     11.2695 *     3.2456 *    -0.9917 *  0.0000     2          
   218  Na    c      2.2539 *    10.0073 *     5.7700 *  0.0000     2          
   219  Na    c      0.0000      -5.7700 *    10.2778 *  0.0000     1          
   220  Na    c      0.0000     -10.2778 *     5.7700 *  0.0000     1          
   221  Na    c      4.5078 *     7.7534 *    -7.7534 *  0.0000     2          
   222  Cl    c     11.2695 *    -1.2622 *     3.5161 *  0.0000     2          
   223  Na    c      2.2539 *     5.4995 *    10.2778 *  0.0000     2          
   224  Na    c     11.2695 *    -3.5161 *     1.2622 *  0.0000     2          
   225  Cl    c      2.2539 *   -10.2778 *    -5.4995 *  0.0000     2          
   226  Na    c      9.0156 *     5.4995 *    -5.4995 *  0.0000     2          
   227  O     c      9.0156 *     0.9917 *    -7.7534 *  0.0000     2          
   228  Na    c      9.0156 *    -1.2622 *    -7.7534 *  0.0000     2          
   229  Na    c      9.0156 *     7.7534 *     1.2622 *  0.0000     2          
   230  Cl    c      6.7617 *    -5.7700 *     8.0239 *  0.0000     2          
   231  Na    c      6.7617 *    -8.0239 *     5.7700 *  0.0000     2          
   232  O     c      4.5078 *    -8.0239 *    -7.7534 *  0.0000     2          
   233  O     c      9.0156 *     5.4995 *     5.7700 *  0.0000     2          
   234  Na    c      9.0156 *     0.9917 *     8.0239 *  0.0000     2          
   235  Na    c      9.0156 *    -8.0239 *    -0.9917 *  0.0000     2          
   236  O     c      9.0156 *    -8.0239 *     1.2622 *  0.0000     2          
   237  Cl    c      6.7617 *    -1.2622 *   -10.0073 *  0.0000     2          
   238  Na    c      6.7617 *    10.0073 *     1.2622 *  0.0000     2          
   239  Na    c      9.0156 *    -5.7700 *     5.7700 *  0.0000     2          
   240  Na    c      4.5078 *    -8.0239 *     8.0239 *  0.0000     2          
   241  Cl    c     11.2695 *     3.2456 *     3.5161 *  0.0000     2          
   242  Na    c     11.2695 *    -3.5161 *    -3.2456 *  0.0000     2          
   243  Na    c      4.5078 *     5.4995 *   -10.0073 *  0.0000     2          
   244  Na    c      4.5078 *    10.0073 *    -5.4995 *  0.0000     2          
   245  O     c      0.0000       0.9917 *   -12.2612 *  0.0000     1          
   246  Na    c      0.0000      -1.2622 *   -12.2612 *  0.0000     1          
   247  Na    c      9.0156 *     3.2456 *    -7.7534 *  0.0000     2          
   248  Na    c      9.0156 *     7.7534 *    -3.2456 *  0.0000     2          
   249  Na    c      0.0000      12.2612 *     1.2622 *  0.0000     1          
   250  Na    c      6.7617 *     0.9917 *    10.2778 *  0.0000     2          
   251  Cl    c      6.7617 *   -10.2778 *    -0.9917 *  0.0000     2          
   252  O     c      9.0156 *    -3.5161 *    -7.7534 *  0.0000     2          
   253  O     c     -4.5078 *    10.0073 *     5.7700 *  0.0000     2          
   254  O     c      9.0156 *    -8.0239 *    -3.2456 *  0.0000     2          
   255  O     c      4.5078 *     5.4995 *    10.2778 *  0.0000     2          
   256  Cl    c      6.7617 *     3.2456 *   -10.0073 *  0.0000     2          
   257  Na    c      2.2539 *     0.9917 *   -12.2612 *  0.0000     2          
   258  Cl    c      2.2539 *    12.2612 *    -0.9917 *  0.0000     2          
   259  Na    c      6.7617 *    10.0073 *    -3.2456 *  0.0000     2          
   260  Na    c      0.0000       0.9917 *    12.5316 *  0.0000     1          
   261  Na    c      0.0000     -12.5316 *    -0.9917 *  0.0000     1          
   262  Na    c      9.0156 *    -3.5161 *     8.0239 *  0.0000     2          
   263  Na    c      9.0156 *    -8.0239 *     3.5161 *  0.0000     2          
   264  O     c      0.0000     -12.5316 *     1.2622 *  0.0000     1          
   265  Na    c     11.2695 *     5.4995 *     1.2622 *  0.0000     2          
   266  Cl    c     11.2695 *    -1.2622 *    -5.4995 *  0.0000     2          
   267  Na    c     -4.5078 *    -5.7700 *    10.2778 *  0.0000     2          
   268  Na    c     -4.5078 *   -10.2778 *     5.7700 *  0.0000     2          
   269  O     c      0.0000      10.0073 *    -7.7534 *  0.0000     1          
   270  Na    c      0.0000       3.2456 *   -12.2612 *  0.0000     1          
   271  Na    c      0.0000      12.2612 *    -3.2456 *  0.0000     1          
   272  Cl    c     11.2695 *    -5.7700 *    -0.9917 *  0.0000     2          
   273  Na    c     11.2695 *     0.9917 *     5.7700 *  0.0000     2          
   274  O     c      0.0000      -3.5161 *   -12.2612 *  0.0000     1          
   275  Cl    c      2.2539 *    -1.2622 *    12.5316 *  0.0000     2          
   276  Na    c      2.2539 *   -12.5316 *     1.2622 *  0.0000     2          
   277  Cl    c      6.7617 *   -10.2778 *     3.5161 *  0.0000     2          
   278  Na    c      6.7617 *    -3.5161 *    10.2778 *  0.0000     2          
   279  Na    c      0.0000      10.0073 *     8.0239 *  0.0000     1          
   280  Na    c      0.0000      -8.0239 *   -10.0073 *  0.0000     1          
   281  Cl    c      2.2539 *     7.7534 *   -10.0073 *  0.0000     2          
   282  Na    c      2.2539 *    10.0073 *    -7.7534 *  0.0000     2          
   283  Na    c      0.0000       7.7534 *    10.2778 *  0.0000     1          
   284  Na    c      0.0000     -10.2778 *    -7.7534 *  0.0000     1          
   285  O     c      0.0000     -12.5316 *    -3.2456 *  0.0000     1          
   286  Na    c     11.2695 *     5.4995 *    -3.2456 *  0.0000     2          
   287  Cl    c     11.2695 *     3.2456 *    -5.4995 *  0.0000     2          
   288  Na    c      2.2539 *    -3.5161 *   -12.2612 *  0.0000     2          
   289  Cl    c      2.2539 *    12.2612 *     3.5161 *  0.0000     2          
   290  O     s      0.0000       0.9917 *     1.2622 *  0.0000     1          
   291  Cl    s      2.2539 *    -1.2622 *    -0.9917 *  0.0000     2          
   292  O     s      0.0000       0.9917 *    -3.2456 *  0.0000     1          
   293  O     s      0.0000      -3.5161 *     1.2622 *  0.0000     1          
   294  Cl    s      2.2539 *     3.2456 *    -0.9917 *  0.0000     2          
   295  Cl    s      2.2539 *    -1.2622 *     3.5161 *  0.0000     2          
   296  O     s      0.0000      -3.5161 *    -3.2456 *  0.0000     1          
   297  O     s     -4.5078 *     0.9917 *     1.2622 *  0.0000     2          
   298  Cl    s      2.2539 *     3.2456 *     3.5161 *  0.0000     2          
   299  O     s      0.0000       5.4995 *     1.2622 *  0.0000     1          
   300  O     s     -4.5078 *     0.9917 *    -3.2456 *  0.0000     2          
   301  O     s      0.0000       0.9917 *     5.7700 *  0.0000     1          
   302  O     s     -4.5078 *    -3.5161 *     1.2622 *  0.0000     2          
   303  Cl    s      2.2539 *    -1.2622 *    -5.4995 *  0.0000     2          
   304  Cl    s      2.2539 *    -5.7700 *    -0.9917 *  0.0000     2          
   305  O     s      0.0000       5.4995 *    -3.2456 *  0.0000     1          
   306  O     s     -4.5078 *    -3.5161 *    -3.2456 *  0.0000     2          
   307  O     s      0.0000      -3.5161 *     5.7700 *  0.0000     1          
   308  Cl    s      2.2539 *     3.2456 *    -5.4995 *  0.0000     2          
   309  Cl    s      6.7617 *    -1.2622 *    -0.9917 *  0.0000     2          
   310  Cl    s      2.2539 *    -5.7700 *     3.5161 *  0.0000     2          
   311  O     s     -4.5078 *     5.4995 *     1.2622 *  0.0000     2          
   312  O     s     -4.5078 *     0.9917 *     5.7700 *  0.0000     2          
   313  Cl    s      6.7617 *     3.2456 *    -0.9917 *  0.0000     2          
   314  Cl    s      6.7617 *    -1.2622 *     3.5161 *  0.0000     2          
   315  O     s     -4.5078 *     5.4995 *    -3.2456 *  0.0000     2          
   316  O     s      0.0000       0.9917 *    -7.7534 *  0.0000     1          
   317  O     s      0.0000       5.4995 *     5.7700 *  0.0000     1          
   318  O     s      0.0000      -8.0239 *     1.2622 *  0.0000     1          
   319  O     s      4.5078 *    -3.5161 *     5.7700 *  0.0000     2          
   320  Cl    s      2.2539 *     7.7534 *    -0.9917 *  0.0000     2          
   321  Cl    s      2.2539 *    -5.7700 *    -5.4995 *  0.0000     2          
   322  Cl    s      6.7617 *     3.2456 *     3.5161 *  0.0000     2          
   323  Cl    s      2.2539 *    -1.2622 *     8.0239 *  0.0000     2          
   324  O     s      0.0000      -3.5161 *    -7.7534 *  0.0000     1          
   325  O     s      0.0000      -8.0239 *    -3.2456 *  0.0000     1          
   326  Cl    s      2.2539 *     7.7534 *     3.5161 *  0.0000     2          
   327  Cl    s      6.7617 *    -1.2622 *    -5.4995 *  0.0000     2          
   328  Cl    s      2.2539 *     3.2456 *     8.0239 *  0.0000     2          
   329  Cl    s      6.7617 *    -5.7700 *    -0.9917 *  0.0000     2          
   330  O     s     -4.5078 *     0.9917 *    -7.7534 *  0.0000     2          
   331  O     s     -4.5078 *     5.4995 *     5.7700 *  0.0000     2          
   332  O     s      9.0156 *     0.9917 *     1.2622 *  0.0000     2          
   333  O     s     -4.5078 *    -8.0239 *     1.2622 *  0.0000     2          
   334  Cl    s      6.7617 *     3.2456 *    -5.4995 *  0.0000     2          
   335  O     s      0.0000       5.4995 *    -7.7534 *  0.0000     1          
   336  Cl    s      6.7617 *    -5.7700 *     3.5161 *  0.0000     2          
   337  O     s      9.0156 *     0.9917 *    -3.2456 *  0.0000     2          
   338  O     s      4.5078 *    -3.5161 *    -7.7534 *  0.0000     2          
   339  O     s     -4.5078 *    -8.0239 *    -3.2456 *  0.0000     2          
   340  O     s      9.0156 *    -3.5161 *     1.2622 *  0.0000     2          
   341  Cl    s      2.2539 *     7.7534 *    -5.4995 *  0.0000     2          
   342  O     s      0.0000      -8.0239 *     5.7700 *  0.0000     1          
   343  O     s      0.0000      10.0073 *     1.2622 *  0.0000     1          
   344  Cl    s      2.2539 *    -5.7700 *     8.0239 *  0.0000     2          
   345  O     s      9.0156 *    -3.5161 *    -3.2456 *  0.0000     2          
   346  O     s      0.0000       0.9917 *    10.2778 *  0.0000     1          
   347  Cl    s      6.7617 *     7.7534 *    -0.9917 *  0.0000     2          
   348  Cl    s      2.2539 *    -1.2622 *   -10.0073 *  0.0000     2          
   349  Cl    s      6.7617 *    -5.7700 *    -5.4995 *  0.0000     2          
   350  O     s     -4.5078 *     5.4995 *    -7.7534 *  0.0000     2          
   351  O     s      0.0000      10.0073 *    -3.2456 *  0.0000     1          
   352  Cl    s      6.7617 *    -1.2622 *     8.0239 *  0.0000     2          
   353  Cl    s      2.2539 *   -10.2778 *    -0.9917 *  0.0000     2          
   354  O     s      9.0156 *     5.4995 *     1.2622 *  0.0000     2          
   355  O     s      9.0156 *     0.9917 *     5.7700 *  0.0000     2          
   356  Cl    s      2.2539 *     3.2456 *   -10.0073 *  0.0000     2          
   357  O     s     -4.5078 *    -8.0239 *     5.7700 *  0.0000     2          
   358  O     s      0.0000      -3.5161 *    10.2778 *  0.0000     1          
   359  Cl    s      6.7617 *     7.7534 *     3.5161 *  0.0000     2          
   360  Cl    s      6.7617 *     3.2456 *     8.0239 *  0.0000     2          
   361  O     s      9.0156 *     5.4995 *    -3.2456 *  0.0000     2          
   362  O     s     -4.5078 *    10.0073 *     1.2622 *  0.0000     2          
   363  Cl    s      2.2539 *   -10.2778 *     3.5161 *  0.0000     2          
   364  O     s      0.0000      -8.0239 *    -7.7534 *  0.0000     1          
   365  O     s      9.0156 *    -3.5161 *     5.7700 *  0.0000     2          
   366  O     s      4.5078 *     0.9917 *    10.2778 *  0.0000     2          
   367  Cl    s      2.2539 *     7.7534 *     8.0239 *  0.0000     2          
   368  Cl    s     11.2695 *    -1.2622 *    -0.9917 *  0.0000     2          
   369  O     s      4.5078 *    10.0073 *    -3.2456 *  0.0000     2          
   370  O     s      0.0000      10.0073 *     5.7700 *  0.0000     1          
   371  O     s      0.0000       5.4995 *    10.2778 *  0.0000     1          
   372  Cl    s      6.7617 *     7.7534 *    -5.4995 *  0.0000     2          
   373  O     s      4.5078 *    -3.5161 *    10.2778 *  0.0000     2          
   374  Cl    s      2.2539 *    -5.7700 *   -10.0073 *  0.0000     2          
   375  Cl    s     11.2695 *     3.2456 *    -0.9917 *  0.0000     2          
   376  Cl    s     11.2695 *    -1.2622 *     3.5161 *  0.0000     2          
   377  Cl    s      2.2539 *   -10.2778 *    -5.4995 *  0.0000     2          
   378  O     s      9.0156 *     0.9917 *    -7.7534 *  0.0000     2          
   379  Cl    s      6.7617 *    -5.7700 *     8.0239 *  0.0000     2          
   380  O     s      4.5078 *    -8.0239 *    -7.7534 *  0.0000     2          
   381  O     s      9.0156 *     5.4995 *     5.7700 *  0.0000     2          
   382  O     s      9.0156 *    -8.0239 *     1.2622 *  0.0000     2          
   383  Cl    s      6.7617 *    -1.2622 *   -10.0073 *  0.0000     2          
   384  Cl    s     11.2695 *     3.2456 *     3.5161 *  0.0000     2          
   385  O     s      0.0000       0.9917 *   -12.2612 *  0.0000     1          
   386  Cl    s      6.7617 *   -10.2778 *    -0.9917 *  0.0000     2          
   387  O     s      9.0156 *    -3.5161 *    -7.7534 *  0.0000     2          
   388  O     s     -4.5078 *    10.0073 *     5.7700 *  0.0000     2          
   389  O     s      9.0156 *    -8.0239 *    -3.2456 *  0.0000     2          
   390  O     s      4.5078 *     5.4995 *    10.2778 *  0.0000     2          
   391  Cl    s      6.7617 *     3.2456 *   -10.0073 *  0.0000     2          
   392  Cl    s      2.2539 *    12.2612 *    -0.9917 *  0.0000     2          
   393  O     s      0.0000     -12.5316 *     1.2622 *  0.0000     1          
   394  Cl    s     11.2695 *    -1.2622 *    -5.4995 *  0.0000     2          
   395  O     s      0.0000      10.0073 *    -7.7534 *  0.0000     1          
   396  Cl    s     11.2695 *    -5.7700 *    -0.9917 *  0.0000     2          
   397  O     s      0.0000      -3.5161 *   -12.2612 *  0.0000     1          
   398  Cl    s      2.2539 *    -1.2622 *    12.5316 *  0.0000     2          
   399  Cl    s      6.7617 *   -10.2778 *     3.5161 *  0.0000     2          
   400  Cl    s      2.2539 *     7.7534 *   -10.0073 *  0.0000     2          
   401  O     s      0.0000     -12.5316 *    -3.2456 *  0.0000     1          
   402  Cl    s     11.2695 *     3.2456 *    -5.4995 *  0.0000     2          
   403  Cl    s      2.2539 *    12.2612 *     3.5161 *  0.0000     2          
--------------------------------------------------------------------------------

  Components of defect energy : 

--------------------------------------------------------------------------------
  Region 1 - region 1                   =     10.26462350 eV
  Region 1 - region 2a (unrelaxed)      =      0.35405726 eV
  Region 1 - 2a (relaxed - correction)  =     -0.40154344 eV
  Region 1 (Total)                      =     10.21713732 eV
  Region 2a                             =      0.20070802 eV
  Region 2b                             =     -0.32821424 eV
--------------------------------------------------------------------------------
  Total defect energy                   =     10.08963110 eV
--------------------------------------------------------------------------------

  Largest displacement in region 2 =   0.0199 Angstroms


  Number of variables =     1100

  Maximum number of calculations  =        1000
  Maximum Hessian update interval =          10
  Maximum step size               =   1.0000000
  Maximum parameter tolerance     =   0.0000100
  Maximum function  tolerance     =   0.0000100
  Maximum gradient  tolerance     =   0.0010000

  Symmetry adapted optimisation

  Symmetry to be used for second derivatives

  Newton-Raphson optimiser to be used

  BFGS hessian update to be used

  Lower half triangular hessian to be used

  Start of defect optimisation :

  Cycle:      0 Defect Energy:  10.089631  Gnorm:     0.018729  CPU:   10.260
  ** Hessian calculated **
  Cycle:      1 Defect Energy:   8.528583  Gnorm:     0.010762  CPU:   23.271
  Cycle:      2 Defect Energy:   7.968328  Gnorm:     0.009795  CPU:   33.871
  Cycle:      3 Defect Energy:   7.708564  Gnorm:     0.008139  CPU:   47.211
  Cycle:      4 Defect Energy:   7.262008  Gnorm:     0.008427  CPU:   61.157
  Cycle:      5 Defect Energy:   6.819675  Gnorm:     0.005859  CPU:   71.618
  Cycle:      6 Defect Energy:   6.345482  Gnorm:     0.006623  CPU:   87.007
  Cycle:      7 Defect Energy:   5.931379  Gnorm:     0.006187  CPU:   95.988
  Cycle:      8 Defect Energy:   5.603794  Gnorm:     0.003756  CPU:  106.783
  Cycle:      9 Defect Energy:   5.472441  Gnorm:     0.003642  CPU:  120.282
  Cycle:     10 Defect Energy:   5.377462  Gnorm:     0.002147  CPU:  129.744
  ** Hessian calculated **
  Cycle:     11 Defect Energy:   5.354019  Gnorm:     0.001575  CPU:  135.612
  Cycle:     12 Defect Energy:   5.335734  Gnorm:     0.001486  CPU:  137.939
  Cycle:     13 Defect Energy:   5.313321  Gnorm:     0.001457  CPU:  140.178
  Cycle:     14 Defect Energy:   5.285311  Gnorm:     0.001424  CPU:  142.344
  Cycle:     15 Defect Energy:   5.260060  Gnorm:     0.001374  CPU:  144.530
  Cycle:     16 Defect Energy:   5.241138  Gnorm:     0.001321  CPU:  150.817
  Cycle:     17 Defect Energy:   5.224938  Gnorm:     0.001275  CPU:  153.501
  Cycle:     18 Defect Energy:   5.210822  Gnorm:     0.001216  CPU:  156.290
  Cycle:     19 Defect Energy:   5.196043  Gnorm:     0.001160  CPU:  158.863
  Cycle:     20 Defect Energy:   5.180483  Gnorm:     0.001107  CPU:  161.350
  ** Hessian calculated **
  Cycle:     21 Defect Energy:   5.159089  Gnorm:     0.001048  CPU:  167.470
  Cycle:     22 Defect Energy:   5.152860  Gnorm:     0.001025  CPU:  169.875
  ** Hessian calculated **
  Cycle:     23 Defect Energy:   5.149501  Gnorm:     0.000999  CPU:  175.529
  Cycle:     24 Defect Energy:   5.144915  Gnorm:     0.000990  CPU:  177.687
  Cycle:     25 Defect Energy:   5.138263  Gnorm:     0.000980  CPU:  180.573
  Cycle:     26 Defect Energy:   5.129083  Gnorm:     0.000969  CPU:  186.622
  Cycle:     27 Defect Energy:   5.116757  Gnorm:     0.000958  CPU:  189.317
  Cycle:     28 Defect Energy:   5.101708  Gnorm:     0.000953  CPU:  192.061
  Cycle:     29 Defect Energy:   5.091087  Gnorm:     0.000954  CPU:  194.901
  Cycle:     30 Defect Energy:   5.081865  Gnorm:     0.000956  CPU:  197.453
  Cycle:     31 Defect Energy:   5.071532  Gnorm:     0.000966  CPU:  200.059
  Cycle:     32 Defect Energy:   5.058639  Gnorm:     0.000979  CPU:  202.436
  ** Hessian calculated **
  Cycle:     33 Defect Energy:   5.039458  Gnorm:     0.000915  CPU:  208.413
  Cycle:     34 Defect Energy:   5.010601  Gnorm:     0.000829  CPU:  210.755
  Cycle:     35 Defect Energy:   5.005383  Gnorm:     0.000783  CPU:  212.996
  ** Hessian calculated **
  Cycle:     36 Defect Energy:   4.982276  Gnorm:     0.000699  CPU:  223.055
  Cycle:     37 Defect Energy:   4.975966  Gnorm:     0.000746  CPU:  225.765
  ** Hessian calculated **
  Cycle:     38 Defect Energy:   4.946504  Gnorm:     0.000527  CPU:  232.281
  Cycle:     39 Defect Energy:   4.929346  Gnorm:     0.000388  CPU:  234.780
  Cycle:     40 Defect Energy:   4.924714  Gnorm:     0.000356  CPU:  237.353
  ** Hessian calculated **
  Cycle:     41 Defect Energy:   4.910002  Gnorm:     0.000487  CPU:  243.117
  Cycle:     42 Defect Energy:   4.903351  Gnorm:     0.000435  CPU:  245.433
  ** Hessian calculated **
  Cycle:     43 Defect Energy:   4.884125  Gnorm:     0.000381  CPU:  250.962
  Cycle:     44 Defect Energy:   4.879157  Gnorm:     0.000560  CPU:  256.965
  ** Hessian calculated **
  Cycle:     45 Defect Energy:   4.859679  Gnorm:     0.000404  CPU:  263.824
  Cycle:     46 Defect Energy:   4.848642  Gnorm:     0.000298  CPU:  266.567
  Cycle:     47 Defect Energy:   4.841712  Gnorm:     0.000211  CPU:  269.095
  Cycle:     48 Defect Energy:   4.837562  Gnorm:     0.000153  CPU:  271.691
  Cycle:     49 Defect Energy:   4.835066  Gnorm:     0.000105  CPU:  274.015
  Cycle:     50 Defect Energy:   4.833619  Gnorm:     0.000079  CPU:  276.552
  Cycle:     51 Defect Energy:   4.832764  Gnorm:     0.000045  CPU:  278.911
  Cycle:     52 Defect Energy:   4.832254  Gnorm:     0.000043  CPU:  281.305
  Cycle:     53 Defect Energy:   4.831956  Gnorm:     0.000021  CPU:  283.522
  Cycle:     54 Defect Energy:   4.831791  Gnorm:     0.000017  CPU:  285.815
  ** Hessian calculated **
  Cycle:     55 Defect Energy:   4.831819  Gnorm:     0.000012  CPU:  295.530
  Cycle:     56 Defect Energy:   4.831844  Gnorm:     0.000009  CPU:  298.308
  Cycle:     57 Defect Energy:   4.831866  Gnorm:     0.000006  CPU:  300.900
  Cycle:     58 Defect Energy:   4.831882  Gnorm:     0.000004  CPU:  303.586
  Cycle:     59 Defect Energy:   4.831895  Gnorm:     0.000003  CPU:  306.111


  **** Optimisation achieved ****


  Final defect energy  =        4.83190410
  Final defect Gnorm   =        0.00000218

  Components of defect energy : 

--------------------------------------------------------------------------------
  Region 1 - region 1                   =      5.78791233 eV
  Region 1 - region 2a (unrelaxed)      =     -0.45826344 eV
  Region 1 - 2a (relaxed - correction)  =     -0.33896051 eV
  Region 1 (Total)                      =      4.99068838 eV
  Region 2a                             =      0.16938760 eV
  Region 2b                             =     -0.32817188 eV
--------------------------------------------------------------------------------
  Total defect energy                   =      4.83190410 eV
--------------------------------------------------------------------------------

  Largest displacement in region 2 =   0.0199 Angstroms

  Final coordinates of region 1 :

--------------------------------------------------------------------------------
   No.  Atomic        x           y           z          Radius      Charge
        Label       (Angs)      (Angs)      (Angs)       (Angs)       (e) 
--------------------------------------------------------------------------------
     1  Na    c     2.253894    1.262180    0.991713    0.000000    1.000000
     2  O     c     2.253894    2.474038    2.701522    0.000000    0.183000
     3  Na    c     4.506651    2.386353    2.797480    0.000000    1.000000
     4  Na    c     0.001136    2.386353    2.797480    0.000000    1.000000
     5  Cl    c     4.553998   -0.023098   -0.059387    0.000000    1.485000
     6  Cl    c    -0.046211   -0.023098   -0.059387    0.000000    1.485000
     7  O     c     2.253894    2.306374   -2.301980    0.000000    0.183000
     8  Na    c     2.253894    0.058919   -2.385167    0.000000    1.000000
     9  Na    c     2.253894    4.596959    2.228753    0.000000    1.000000
    10  Na    c     2.253894    1.532907    4.660567    0.000000    1.000000
    11  Na    c     2.253894   -2.043015    0.068523    0.000000    1.000000
    12  O     c     2.253894   -2.252206    2.280209    0.000000    0.183000
    13  Cl    c     4.637151    4.635891    0.054443    0.000000    1.485000
    14  Cl    c    -0.129364    4.635891    0.054443    0.000000    1.485000
    15  Na    c     4.464672    2.338427   -2.220105    0.000000    1.000000
    16  Na    c     0.043116    2.338427   -2.220105    0.000000    1.000000
    17  Cl    c     4.657281    0.004096    4.677761    0.000000    1.485000
    18  Cl    c    -0.149494    0.004096    4.677761    0.000000    1.485000
    19  Na    c     4.436160   -1.813659    2.267847    0.000000    1.000000
    20  Na    c     0.071627   -1.813659    2.267847    0.000000    1.000000
    21  Na    c     2.253894    4.415716   -1.544208    0.000000    1.000000
    22  Na    c    -1.898617    2.280965    0.074934    0.000000    1.000000
    23  Na    c     6.406405    2.280965    0.074934    0.000000    1.000000
    24  O     c     2.253894   -2.244669   -2.211864    0.000000    0.183000
    25  O     c    -2.251238    2.284279    2.322910    0.000000    0.183000
    26  O     c     6.759025    2.284279    2.322910    0.000000    0.183000
    27  Na    c    -2.453813    0.037956    2.214190    0.000000    1.000000
    28  Na    c     6.961600    0.037956    2.214190    0.000000    1.000000
    29  Na    c     2.253894   -1.872551    4.480037    0.000000    1.000000
    30  Cl    c     4.668385    4.672453    4.602909    0.000000    1.485000
    31  Cl    c    -0.160598    4.672453    4.602909    0.000000    1.485000
    32  Na    c     4.503103   -2.307787   -2.192152    0.000000    1.000000
    33  Na    c     0.004684   -2.307787   -2.192152    0.000000    1.000000
    34  Na    c     2.253894    7.149986   -0.011594    0.000000    1.000000
    35  Na    c     2.253894    2.718269   -4.488112    0.000000    1.000000
    36  O     c     2.253894    6.851743    2.237870    0.000000    0.183000
    37  O     c    -2.239149    2.260831   -2.192086    0.000000    0.183000
    38  O     c     6.746937    2.260831   -2.192086    0.000000    0.183000
    39  Na    c    -2.063939    0.012304   -2.364274    0.000000    1.000000
    40  Na    c     6.571726    0.012304   -2.364274    0.000000    1.000000
    41  Na    c    -2.190686    4.543810    2.435793    0.000000    1.000000
    42  Na    c     6.698473    4.543810    2.435793    0.000000    1.000000
    43  Na    c    -2.574586    2.071711    4.560068    0.000000    1.000000
    44  Na    c     7.082373    2.071711    4.560068    0.000000    1.000000
    45  Na    c    -2.268530   -2.154025    0.008983    0.000000    1.000000
    46  Na    c     6.776317   -2.154025    0.008983    0.000000    1.000000
    47  O     c     2.253894    2.218866    6.819499    0.000000    0.183000
    48  O     c    -2.206620   -2.210639    2.265530    0.000000    0.183000
    49  O     c     6.714407   -2.210639    2.265530    0.000000    0.183000
    50  Na    c     2.253894   -0.012713    7.316609    0.000000    1.000000
    51  Na    c     2.253894   -4.477126    2.322907    0.000000    1.000000
    52  Na    c     4.513056    6.805142    2.140546    0.000000    1.000000
    53  Na    c    -0.005269    6.805142    2.140546    0.000000    1.000000
    54  Cl    c     4.572166   -0.048744   -4.540454    0.000000    1.485000
    55  Cl    c    -0.064379   -0.048744   -4.540454    0.000000    1.485000
    56  Cl    c     4.563748   -4.585530   -0.094948    0.000000    1.485000
    57  Cl    c    -0.055961   -4.585530   -0.094948    0.000000    1.485000
    58  Na    c     4.524419    2.294692    6.694976    0.000000    1.000000
    59  Na    c    -0.016632    2.294692    6.694976    0.000000    1.000000
    60  O     c     2.253894    6.669013   -2.218845    0.000000    0.183000
    61  Na    c     7.008730    4.500438   -2.134068    0.000000    1.000000
    62  Na    c    -2.500943    4.500438   -2.134068    0.000000    1.000000
    63  Na    c     2.253894    6.897165    4.501611    0.000000    1.000000
    64  Na    c     2.253894   -2.527502   -4.470766    0.000000    1.000000
    65  O     c    -2.257386   -2.244298   -2.250787    0.000000    0.183000
    66  O     c     6.765174   -2.244298   -2.250787    0.000000    0.183000
    67  Na    c     2.253894    4.422431    6.219631    0.000000    1.000000
    68  Na    c     2.253894   -4.487189   -1.930121    0.000000    1.000000
    69  Na    c    -2.206965   -2.139342    4.520213    0.000000    1.000000
    70  Na    c     6.714752   -2.139342    4.520213    0.000000    1.000000
    71  O     c     2.253894   -2.231782    6.765585    0.000000    0.183000
    72  Na    c     4.516060    6.509478   -2.235180    0.000000    1.000000
    73  Na    c    -0.008273    6.509478   -2.235180    0.000000    1.000000
    74  Cl    c     4.603852    4.531904   -4.577738    0.000000    1.485000
    75  Cl    c    -0.096065    4.531904   -4.577738    0.000000    1.485000
    76  Cl    c     9.011918   -0.025207    0.063341    0.000000    1.485000
    77  Cl    c    -4.504131   -0.025207    0.063341    0.000000    1.485000
    78  Na    c     9.002482    2.463158    1.960817    0.000000    1.000000
    79  Na    c    -4.494694    2.463158    1.960817    0.000000    1.000000
    80  Cl    c     4.571898   -4.584846    4.607271    0.000000    1.485000
    81  Cl    c    -0.064110   -4.584846    4.607271    0.000000    1.485000
    82  Na    c     4.506368   -2.269988    6.727371    0.000000    1.000000
    83  Na    c     0.001420   -2.269988    6.727371    0.000000    1.000000
    84  Na    c    -2.325779    6.669498    0.017069    0.000000    1.000000
    85  Na    c     6.833566    6.669498    0.017069    0.000000    1.000000
    86  Na    c    -2.355358    2.426576   -4.462606    0.000000    1.000000
    87  Na    c     6.863145    2.426576   -4.462606    0.000000    1.000000
    88  O     c    -2.264883    6.798065    2.275274    0.000000    0.183000
    89  O     c     6.772670    6.798065    2.275274    0.000000    0.183000
    90  O     c    -2.283953    2.271417    6.797230    0.000000    0.183000
    91  O     c     6.791741    2.271417    6.797230    0.000000    0.183000
    92  Na    c    -1.891664   -4.459224    2.246951    0.000000    1.000000
    93  Na    c     6.399452   -4.459224    2.246951    0.000000    1.000000
    94  Na    c     6.656822    0.009799    6.949079    0.000000    1.000000
    95  Na    c    -2.149035    0.009799    6.949079    0.000000    1.000000
    96  Cl    c     9.038383    4.546778   -0.002263    0.000000    1.485000
    97  Cl    c    -4.530596    4.546778   -0.002263    0.000000    1.485000
    98  Na    c     8.998754    1.992961   -1.983725    0.000000    1.000000
    99  Na    c    -4.490967    1.992961   -1.983725    0.000000    1.000000
   100  Cl    c     9.049680   -0.032916    4.525493    0.000000    1.485000
   101  Cl    c    -4.541893   -0.032916    4.525493    0.000000    1.485000
   102  Na    c     8.969860   -2.515293    2.311010    0.000000    1.000000
   103  Na    c    -4.462072   -2.515293    2.311010    0.000000    1.000000
   104  Na    c     2.253894    6.305312   -4.470642    0.000000    1.000000
   105  O     c    -2.267873    6.755403   -2.248630    0.000000    0.183000
   106  O     c     6.775660    6.755403   -2.248630    0.000000    0.183000
   107  O     c     2.253894    2.256812   -6.728187    0.000000    0.183000
   108  Na    c     2.253894    0.019026   -6.322120    0.000000    1.000000
   109  Na    c     2.253894    9.070764    2.458019    0.000000    1.000000
   110  Na    c    -2.068928    6.978459    4.520972    0.000000    1.000000
   111  Na    c     6.576716    6.978459    4.520972    0.000000    1.000000
   112  Na    c    -2.169954   -2.447226   -4.495925    0.000000    1.000000
   113  Na    c     6.677741   -2.447226   -4.495925    0.000000    1.000000
   114  O     c     2.253894    6.676456    6.746466    0.000000    0.183000
   115  Na    c    -2.373277   -4.496787   -2.085240    0.000000    1.000000
   116  Na    c     6.881064   -4.496787   -2.085240    0.000000    1.000000
   117  Na    c     6.865634    4.521130    6.505650    0.000000    1.000000
   118  Na    c    -2.357847    4.521130    6.505650    0.000000    1.000000
   119  Na    c     2.253894    2.663837    9.027176    0.000000    1.000000
   120  Na    c     2.253894   -6.864473    0.001237    0.000000    1.000000
   121  O     c     2.253894   -6.778061    2.256758    0.000000    0.183000
   122  O     c     6.766203   -2.248016    6.779952    0.000000    0.183000
   123  O     c    -2.258416   -2.248016    6.779952    0.000000    0.183000
   124  Cl    c     4.515461    9.070805    0.026929    0.000000    1.485000
   125  Cl    c    -0.007673    9.070805    0.026929    0.000000    1.485000
   126  Na    c     4.511000    2.191032   -6.643148    0.000000    1.000000
   127  Na    c    -0.003212    2.191032   -6.643148    0.000000    1.000000
   128  Na    c     2.253894   -4.480436    6.405880    0.000000    1.000000
   129  Na    c     4.512795    6.609327    6.849427    0.000000    1.000000
   130  Na    c    -0.005008    6.609327    6.849427    0.000000    1.000000
   131  Cl    c     4.521489   -4.512213   -4.529568    0.000000    1.485000
   132  Cl    c    -0.013702   -4.512213   -4.529568    0.000000    1.485000
   133  Cl    c     9.072493    4.512589    4.494498    0.000000    1.485000
   134  Cl    c    -4.564706    4.512589    4.494498    0.000000    1.485000
   135  Na    c     9.011823   -2.056673   -2.351212    0.000000    1.000000
   136  Na    c    -4.504036   -2.056673   -2.351212    0.000000    1.000000
   137  Na    c     2.253894    4.491015   -7.156565    0.000000    1.000000
   138  Na    c     2.253894    8.945458   -2.581678    0.000000    1.000000
   139  Na    c     4.494507   -6.877833    2.237314    0.000000    1.000000
   140  Na    c     0.013280   -6.877833    2.237314    0.000000    1.000000
   141  Cl    c     4.554439   -0.013545    9.088784    0.000000    1.485000
   142  Cl    c    -0.046652   -0.013545    9.088784    0.000000    1.485000
   143  O     c     2.253894   -2.219085   -6.736290    0.000000    0.183000
   144  O     c     2.253894   -6.724586   -2.255862    0.000000    0.183000
   145  Na    c     2.253894   -2.639686    9.002358    0.000000    1.000000
   146  Na    c     2.253894   -6.892170    4.504296    0.000000    1.000000
   147  Na    c     4.509463   -2.155201   -6.757235    0.000000    1.000000
   148  Na    c    -0.001675   -2.155201   -6.757235    0.000000    1.000000
   149  Na    c     9.020845    6.692712    2.407887    0.000000    1.000000
   150  Na    c    -4.513058    6.692712    2.407887    0.000000    1.000000
   151  Cl    c     4.470414    9.068590    4.499707    0.000000    1.485000
   152  Cl    c     0.037373    9.068590    4.499707    0.000000    1.485000
   153  Cl    c     9.048221    0.011810   -4.494575    0.000000    1.485000
   154  Cl    c    -4.540433    0.011810   -4.494575    0.000000    1.485000
   155  Cl    c     4.548592    4.538406    9.092118    0.000000    1.485000
   156  Cl    c    -0.040805    4.538406    9.092118    0.000000    1.485000
   157  Na    c     4.515922   -6.649752   -2.263913    0.000000    1.000000
[...]
    323 y          0.000000     -0.015199    -0.015199    Cartesian    0.00
    323 z          9.015574      9.090386     0.074812    Cartesian    0.83
    324 x          2.253894      2.253894     0.000000    Cartesian    0.00
    324 y         -2.253894     -2.219089     0.034804    Cartesian   -1.54
    324 z         -6.761681     -6.736294     0.025387    Cartesian   -0.38
    325 x          2.253894      2.253894     0.000000    Cartesian    0.00
    325 y         -6.761681     -6.724547     0.037134    Cartesian   -0.55
    325 z         -2.253894     -2.255832    -0.001938    Cartesian    0.09
    326 x          4.507787      4.468732    -0.039055    Cartesian   -0.87
    326 y          9.015574      9.067778     0.052204    Cartesian    0.58
    326 z          4.507787      4.494677    -0.013110    Cartesian   -0.29
    327 x          9.015574      9.050415     0.034841    Cartesian    0.39
    327 y          0.000000      0.011439     0.011439    Cartesian    0.00
    327 z         -4.507787     -4.495231     0.012557    Cartesian   -0.28
    328 x          4.507787      4.549320     0.041532    Cartesian    0.92
    328 y          4.507787      4.539177     0.031390    Cartesian    0.70
    328 z          9.015574      9.096085     0.080511    Cartesian    0.89
    329 x          9.015574      9.064591     0.049017    Cartesian    0.54
    329 y         -4.507787     -4.517715    -0.009928    Cartesian    0.22
    329 z          0.000000      0.001477     0.001477    Cartesian    0.00
    330 x         -2.253894     -2.258088    -0.004194    Cartesian    0.19
    330 y          2.253894      2.252040    -0.001853    Cartesian   -0.08
    330 z         -6.761681     -6.739400     0.022281    Cartesian   -0.33
    331 x         -2.253894     -2.267521    -0.013628    Cartesian    0.60
    331 y          6.761681      6.774896     0.013215    Cartesian    0.20
    331 z          6.761681      6.769517     0.007836    Cartesian    0.12
    332 x         11.269468     11.249092    -0.020376    Cartesian   -0.18
    332 y          2.253894      2.258133     0.004239    Cartesian    0.19
    332 z          2.253894      2.253520    -0.000373    Cartesian   -0.02
    333 x         -2.253894     -2.234208     0.019685    Cartesian   -0.87
    333 y         -6.761681     -6.729748     0.031933    Cartesian   -0.47
    333 z          2.253894      2.253210    -0.000684    Cartesian   -0.03
    334 x          9.015574      9.030708     0.015133    Cartesian    0.17
    334 y          4.507787      4.517173     0.009386    Cartesian    0.21
    334 z         -4.507787     -4.531767    -0.023980    Cartesian    0.53
    335 x          2.253894      2.253894     0.000000    Cartesian    0.00
    335 y          6.761681      6.732345    -0.029336    Cartesian   -0.43
    335 z         -6.761681     -6.734461     0.027220    Cartesian   -0.40
    336 x          9.015574      9.056992     0.041417    Cartesian    0.46
    336 y         -4.507787     -4.510138    -0.002351    Cartesian    0.05
    336 z          4.507787      4.541619     0.033832    Cartesian    0.75
    337 x         11.269468     11.257981    -0.011487    Cartesian   -0.10
    337 y          2.253894      2.250968    -0.002925    Cartesian   -0.13
    337 z         -2.253894     -2.235190     0.018704    Cartesian   -0.83
    338 x          6.761681      6.768627     0.006947    Cartesian    0.10
    338 y         -2.253894     -2.252248     0.001646    Cartesian   -0.07
    338 z         -6.761681     -6.749464     0.012217    Cartesian   -0.18
    339 x         -2.253894     -2.267518    -0.013624    Cartesian    0.60
    339 y         -6.761681     -6.755767     0.005913    Cartesian   -0.09
    339 z         -2.253894     -2.258744    -0.004850    Cartesian    0.22
    340 x         11.269468     11.237878    -0.031590    Cartesian   -0.28
    340 y         -2.253894     -2.262413    -0.008520    Cartesian    0.38
    340 z          2.253894      2.252595    -0.001299    Cartesian   -0.06
    341 x          4.507787      4.509849     0.002061    Cartesian    0.05
    341 y          9.015574      9.069022     0.053448    Cartesian    0.59
    341 z         -4.507787     -4.536081    -0.028293    Cartesian    0.63
    342 x          2.253894      2.253894     0.000000    Cartesian    0.00
    342 y         -6.761681     -6.731060     0.030620    Cartesian   -0.45
    342 z          6.761681      6.750503    -0.011177    Cartesian   -0.17
    343 x          2.253894      2.253894     0.000000    Cartesian    0.00
    343 y         11.269468     11.287714     0.018246    Cartesian    0.16
    343 z          2.253894      2.248494    -0.005399    Cartesian   -0.24
    344 x          4.507787      4.516081     0.008293    Cartesian    0.18
    344 y         -4.507787     -4.511844    -0.004056    Cartesian    0.09
    344 z          9.015574      9.087100     0.071526    Cartesian    0.79
    345 x         11.269468     11.269669     0.000201    Cartesian    0.00
    345 y         -2.253894     -2.238455     0.015438    Cartesian   -0.68
    345 z         -2.253894     -2.250869     0.003025    Cartesian   -0.13
    346 x          2.253894      2.253894     0.000000    Cartesian    0.00
    346 y          2.253894      2.242899    -0.010995    Cartesian   -0.49
    346 z         11.269468     11.265103    -0.004365    Cartesian   -0.04
    347 x          9.015574      9.033758     0.018184    Cartesian    0.20
    347 y          9.015574      9.054366     0.038791    Cartesian    0.43
    347 z          0.000000     -0.000789    -0.000789    Cartesian    0.00
    348 x          4.507787      4.518014     0.010227    Cartesian    0.23
    348 y          0.000000     -0.015028    -0.015028    Cartesian    0.00
    348 z         -9.015574     -9.085635    -0.070060    Cartesian    0.78
    349 x          9.015574      9.044078     0.028504    Cartesian    0.32
    349 y         -4.507787     -4.506269     0.001518    Cartesian   -0.03
    349 z         -4.507787     -4.523690    -0.015903    Cartesian    0.35
    350 x         -2.253894     -2.249950     0.003944    Cartesian   -0.17
    350 y          6.761681      6.758032    -0.003649    Cartesian   -0.05
    350 z         -6.761681     -6.762662    -0.000981    Cartesian    0.01
    351 x          2.253894      2.253894     0.000000    Cartesian    0.00
    351 y         11.269468     11.238236    -0.031232    Cartesian   -0.28
    351 z         -2.253894     -2.259550    -0.005657    Cartesian    0.25
    352 x          9.015574      9.055422     0.039848    Cartesian    0.44
    352 y          0.000000     -0.010907    -0.010907    Cartesian    0.00
    352 z          9.015574      9.026076     0.010501    Cartesian    0.12
    353 x          4.507787      4.499228    -0.008559    Cartesian   -0.19
    353 y         -9.015574     -9.013471     0.002103    Cartesian   -0.02
    353 z          0.000000      0.043776     0.043776    Cartesian    0.00
    354 x         11.269468     11.280255     0.010787    Cartesian    0.10
    354 y          6.761681      6.752305    -0.009375    Cartesian   -0.14
    354 z          2.253894      2.262031     0.008138    Cartesian    0.36
    355 x         11.269468     11.258004    -0.011464    Cartesian   -0.10
    355 y          2.253894      2.253704    -0.000190    Cartesian   -0.01
    355 z          6.761681      6.766400     0.004719    Cartesian    0.07
    356 x          4.507787      4.533152     0.025365    Cartesian    0.56
    356 y          4.507787      4.519539     0.011752    Cartesian    0.26
    356 z         -9.015574     -9.032319    -0.016744    Cartesian    0.19
    357 x         -2.253894     -2.264795    -0.010901    Cartesian    0.48
    357 y         -6.761681     -6.756011     0.005670    Cartesian   -0.08
    357 z          6.761681      6.761349    -0.000332    Cartesian   -0.00
    358 x          2.253894      2.253894     0.000000    Cartesian    0.00
    358 y         -2.253894     -2.269737    -0.015843    Cartesian    0.70
    358 z         11.269468     11.249026    -0.020442    Cartesian   -0.18
    359 x          9.015574      9.077329     0.061755    Cartesian    0.68
    359 y          9.015574      9.027973     0.012399    Cartesian    0.14
    359 z          4.507787      4.505786    -0.002001    Cartesian   -0.04
    360 x          9.015574      9.038539     0.022964    Cartesian    0.25
    360 y          4.507787      4.488492    -0.019295    Cartesian   -0.43
    360 z          9.015574      9.049331     0.033757    Cartesian    0.37
    361 x         11.269468     11.241059    -0.028409    Cartesian   -0.25
    361 y          6.761681      6.766033     0.004352    Cartesian    0.06
    361 z         -2.253894     -2.253223     0.000671    Cartesian   -0.03
    362 x         -2.253894     -2.266677    -0.012783    Cartesian    0.57
    362 y         11.269468     11.277061     0.007593    Cartesian    0.07
    362 z          2.253894      2.245479    -0.008415    Cartesian   -0.37
    363 x          4.507787      4.489270    -0.018518    Cartesian   -0.41
    363 y         -9.015574     -9.023563    -0.007989    Cartesian    0.09
    363 z          4.507787      4.475251    -0.032537    Cartesian   -0.72
    364 x          2.253894      2.253894     0.000000    Cartesian    0.00
    364 y         -6.761681     -6.734713     0.026967    Cartesian   -0.40
    364 z         -6.761681     -6.759046     0.002635    Cartesian   -0.04
    365 x         11.269468     11.274438     0.004969    Cartesian    0.04
    365 y         -2.253894     -2.242266     0.011628    Cartesian   -0.52
    365 z          6.761681      6.757277    -0.004404    Cartesian   -0.07
    366 x          6.761681      6.752276    -0.009405    Cartesian   -0.14
    366 y          2.253894      2.266456     0.012562    Cartesian    0.56
    366 z         11.269468     11.272489     0.003021    Cartesian    0.03
    367 x          4.507787      4.520488     0.012701    Cartesian    0.28
    367 y          9.015574      9.064269     0.048695    Cartesian    0.54
    367 z          9.015574      9.025679     0.010104    Cartesian    0.11
    368 x         13.523362     13.535044     0.011682    Cartesian    0.09
    368 y          0.000000     -0.015711    -0.015711    Cartesian    0.00
    368 z          0.000000      0.026234     0.026234    Cartesian    0.00
    369 x          6.761681      6.742632    -0.019049    Cartesian   -0.28
    369 y         11.269468     11.260321    -0.009147    Cartesian   -0.08
    369 z         -2.253894     -2.254993    -0.001100    Cartesian    0.05
    370 x          2.253894      2.253894     0.000000    Cartesian    0.00
    370 y         11.269468     11.259427    -0.010041    Cartesian   -0.09
    370 z          6.761681      6.769649     0.007969    Cartesian    0.12
    371 x          2.253894      2.253894     0.000000    Cartesian    0.00
    371 y          6.761681      6.731108    -0.030573    Cartesian   -0.45
    371 z         11.269468     11.260347    -0.009121    Cartesian   -0.08
    372 x          9.015574      9.044000     0.028425    Cartesian    0.32
    372 y          9.015574      9.029708     0.014134    Cartesian    0.16
    372 z         -4.507787     -4.521120    -0.013333    Cartesian    0.30
    373 x          6.761681      6.768022     0.006341    Cartesian    0.09
    373 y         -2.253894     -2.256446    -0.002552    Cartesian    0.11
    373 z         11.269468     11.272078     0.002610    Cartesian    0.02
    374 x          4.507787      4.533165     0.025378    Cartesian    0.56
    374 y         -4.507787     -4.539717    -0.031930    Cartesian    0.71
    374 z         -9.015574     -9.013478     0.002096    Cartesian   -0.02
    375 x         13.523362     13.551535     0.028174    Cartesian    0.21
    375 y          4.507787      4.537787     0.030000    Cartesian    0.67
    375 z          0.000000     -0.022796    -0.022796    Cartesian    0.00
    376 x         13.523362     13.603481     0.080119    Cartesian    0.59
    376 y          0.000000      0.020787     0.020787    Cartesian    0.00
    376 z          4.507787      4.516094     0.008307    Cartesian    0.18
    377 x          4.507787      4.505152    -0.002635    Cartesian   -0.06
    377 y         -9.015574     -9.079784    -0.064209    Cartesian    0.71
    377 z         -4.507787     -4.516795    -0.009008    Cartesian    0.20
    378 x         11.269468     11.259930    -0.009538    Cartesian   -0.08
    378 y          2.253894      2.258263     0.004370    Cartesian    0.19
    378 z         -6.761681     -6.757860     0.003820    Cartesian   -0.06
    379 x          9.015574      9.030082     0.014507    Cartesian    0.16
    379 y         -4.507787     -4.511072    -0.003284    Cartesian    0.07
    379 z          9.015574      9.055308     0.039734    Cartesian    0.44
    380 x          6.761681      6.762214     0.000533    Cartesian    0.01
    380 y         -6.761681     -6.754734     0.006947    Cartesian   -0.10
    380 z         -6.761681     -6.768996    -0.007315    Cartesian    0.11
    381 x         11.269468     11.275295     0.005827    Cartesian    0.05
    381 y          6.761681      6.772980     0.011299    Cartesian    0.17
    381 z          6.761681      6.754464    -0.007217    Cartesian   -0.11
    382 x         11.269468     11.271194     0.001726    Cartesian    0.02
    382 y         -6.761681     -6.746527     0.015154    Cartesian   -0.22
    382 z          2.253894      2.249386    -0.004508    Cartesian   -0.20
    383 x          9.015574      9.014842    -0.000732    Cartesian   -0.01
    383 y          0.000000      0.012000     0.012000    Cartesian    0.00
    383 z         -9.015574     -9.066429    -0.050855    Cartesian    0.56
    384 x         13.523362     13.559117     0.035755    Cartesian    0.26
    384 y          4.507787      4.513036     0.005249    Cartesian    0.12
    384 z          4.507787      4.522511     0.014724    Cartesian    0.33
    385 x          2.253894      2.253894     0.000000    Cartesian    0.00
    385 y          2.253894      2.233402    -0.020492    Cartesian   -0.91
    385 z        -11.269468    -11.253220     0.016248    Cartesian   -0.14
    386 x          9.015574      9.040256     0.024682    Cartesian    0.27
    386 y         -9.015574     -9.039505    -0.023931    Cartesian    0.27
    386 z          0.000000     -0.027889    -0.027889    Cartesian    0.00
    387 x         11.269468     11.274079     0.004611    Cartesian    0.04
    387 y         -2.253894     -2.258322    -0.004428    Cartesian    0.20
    387 z         -6.761681     -6.758902     0.002779    Cartesian   -0.04
    388 x         -2.253894     -2.253595     0.000299    Cartesian   -0.01
    388 y         11.269468     11.261431    -0.008037    Cartesian   -0.07
    388 z          6.761681      6.770608     0.008928    Cartesian    0.13
    389 x         11.269468     11.262734    -0.006734    Cartesian   -0.06
    389 y         -6.761681     -6.769820    -0.008139    Cartesian    0.12
    389 z         -2.253894     -2.255991    -0.002097    Cartesian    0.09
    390 x          6.761681      6.768334     0.006654    Cartesian    0.10
    390 y          6.761681      6.758317    -0.003364    Cartesian   -0.05
    390 z         11.269468     11.275523     0.006054    Cartesian    0.05
    391 x          9.015574      9.066969     0.051395    Cartesian    0.57
    391 y          4.507787      4.502886    -0.004901    Cartesian   -0.11
    391 z         -9.015574     -9.001739     0.013836    Cartesian   -0.15
    392 x          4.507787      4.512019     0.004232    Cartesian    0.09
    392 y         13.523362     13.576939     0.053577    Cartesian    0.40
    392 z          0.000000     -0.032593    -0.032593    Cartesian    0.00
    393 x          2.253894      2.253894     0.000000    Cartesian    0.00
    393 y        -11.269468    -11.274627    -0.005159    Cartesian    0.05
    393 z          2.253894      2.250971    -0.002922    Cartesian   -0.13
    394 x         13.523362     13.533156     0.009794    Cartesian    0.07
    394 y          0.000000     -0.003662    -0.003662    Cartesian    0.00
    394 z         -4.507787     -4.510266    -0.002479    Cartesian    0.05
    395 x          2.253894      2.253894     0.000000    Cartesian    0.00
    395 y         11.269468     11.264051    -0.005417    Cartesian   -0.05
    395 z         -6.761681     -6.750547     0.011134    Cartesian   -0.16
    396 x         13.523362     13.571439     0.048077    Cartesian    0.36
    396 y         -4.507787     -4.517294    -0.009506    Cartesian    0.21
    396 z          0.000000      0.009271     0.009271    Cartesian    0.00
    397 x          2.253894      2.253894     0.000000    Cartesian    0.00
    397 y         -2.253894     -2.246807     0.007087    Cartesian   -0.31
    397 z        -11.269468    -11.264292     0.005176    Cartesian   -0.05
    398 x          4.507787      4.483618    -0.024169    Cartesian   -0.54
    398 y          0.000000      0.016387     0.016387    Cartesian    0.00
    398 z         13.523362     13.584621     0.061259    Cartesian    0.45
    399 x          9.015574      9.008577    -0.006997    Cartesian   -0.08
    399 y         -9.015574     -9.060731    -0.045156    Cartesian    0.50
    399 z          4.507787      4.529100     0.021313    Cartesian    0.47
    400 x          4.507787      4.502995    -0.004792    Cartesian   -0.11
    400 y          9.015574      9.011145    -0.004429    Cartesian   -0.05
    400 z         -9.015574     -9.078971    -0.063396    Cartesian    0.70
    401 x          2.253894      2.253894     0.000000    Cartesian    0.00
    401 y        -11.269468    -11.260900     0.008568    Cartesian   -0.08
    401 z         -2.253894     -2.261223    -0.007330    Cartesian    0.33
    402 x         13.523362     13.605472     0.082110    Cartesian    0.61
    402 y          4.507787      4.513844     0.006056    Cartesian    0.13
    402 z         -4.507787     -4.507830    -0.000043    Cartesian    0.00
    403 x          4.507787      4.503842    -0.003945    Cartesian   -0.09
    403 y         13.523362     13.547713     0.024352    Cartesian    0.18
    403 z          4.507787      4.529500     0.021713    Cartesian    0.48
--------------------------------------------------------------------------------


  Time to end of optimisation  =      308.5210 seconds


  Peak dynamic memory used =     149.72 MB 


  Timing analysis for GULP :

--------------------------------------------------------------------------------
  Task / Subroutine                                          Time (Seconds)
--------------------------------------------------------------------------------
  Calculation of reciprocal space energy and derivatives          0.0006
  Calculation of reciprocal space energy using symmetry           0.0009
  Calculation of real space energy and derivatives                0.0036
  Calculation of real space energy using symmetry                 0.0086
  Calculation for region 1 energy and derivatives (2-b)         105.1951
  Calculation for region 2a energy                              189.6097
  Calculation for region 2b energy                                0.0259
  Calculation and manipulation of Hessian matrix                  0.4228
  Calculation of matrix inversion                                12.5947
  Symmetry generation of equivalent positions                     0.0044
--------------------------------------------------------------------------------
  Total CPU time                                                308.5211
--------------------------------------------------------------------------------


  Dump file written as Na3OCl.grs


  Job Finished at 14:35.14  3rd December   2020                               

