********************************************************************************
*                       GENERAL UTILITY LATTICE PROGRAM                        *
*                                 Julian Gale                                  *
*                       Curtin Institute for Computation                       *
*                    School of Molecular and Life Sciences                     *
*                    Curtin University, Western Australia                      *
********************************************************************************
* Version = 5.2.0 * Last modified =  10th September 2020                       *
********************************************************************************
*  optimise     - perform optimisation run                                     *
*  conp         - constant pressure calculation                                *
*  property     - calculate properties for final geometry                      *
*  defect       - perform defect calculation after bulk run                    *
*  compare      - compare initial and final structures                         *
********************************************************************************

  Job Started  at 14:42.09  3rd December   2020                               

  Number of CPUs =     1


  Total number of configurations input =      1

********************************************************************************
*  Input for Configuration =   1                                               *
********************************************************************************

  Formula = ClONa3                                                      

  Number of irreducible atoms/shells =       5


  Total number atoms/shells =       7

  Dimensionality = 3               :  Bulk   


  Symmetry :

  Crystal family                   :  Cubic       
  Crystal class  (Groth - 1921)    :  Cubic Hexakisoctahedral              

  Space group (centrosymmetric)    :  P M 3 M         

  Patterson group                  :  P m -3 m 

  Cartesian lattice vectors (Angstroms) :

        4.504000    0.000000    0.000000
        0.000000    4.504000    0.000000
        0.000000    0.000000    4.504000

  Cell parameters (Angstroms/Degrees):

  a =       4.5040    alpha =  90.0000
  b =       4.5040    beta  =  90.0000
  c =       4.5040    gamma =  90.0000

  Initial cell volume =          91.368216 Angs**3

  Temperature of configuration =   0.00     K 

  Pressure of configuration =         0.000 GPa 

  Fractional coordinates of asymmetric unit :

--------------------------------------------------------------------------------
   No.  Atomic       x           y          z         Charge      Occupancy
        Label      (Frac)      (Frac)     (Frac)        (e)         (Frac)  
--------------------------------------------------------------------------------
      1 Cl    c    0.000000    0.000000    0.000000     1.48500    1.000000    
      2 O     c    0.500000    0.500000    0.500000     0.18300    1.000000    
      3 Na    c    0.500000    0.500000    0.000000     1.00000    1.000000    
      4 Cl    s    0.000000    0.000000    0.000000    -2.48500    1.000000    
      5 O     s    0.500000    0.500000    0.500000    -2.18300    1.000000    
--------------------------------------------------------------------------------


  Constraints : 

--------------------------------------------------------------------------------
  Constraint no.      Unconstrained     Constrained    Coefficient    Offset
                         Variable         Variable
--------------------------------------------------------------------------------
           1              Strain 1        Strain 2       1.00000      0.0000
           2              Strain 1        Strain 3       1.00000      0.0000
--------------------------------------------------------------------------------


********************************************************************************
*  General input information                                                   *
********************************************************************************

  Species output for all configurations : 

--------------------------------------------------------------------------------
  Species    Type    Atomic    Atomic    Charge       Radii (Angs)     Library
                     Number     Mass       (e)     Cova   Ionic  VDW   Symbol
--------------------------------------------------------------------------------
    Na       Core       11      22.99   1.000000   0.970  0.000  2.300          
    O        Core        8      16.00   0.183000   0.730  0.000  1.360          
    O        Shell       8       0.00  -2.183000   0.730  0.000  0.000          
    Cl       Core       17      35.45   1.485000   0.990  0.000  1.650          
    Cl       Shell      17       0.00  -2.485000   0.990  0.000  0.000          
    Mg       Core       12      24.31   0.415000   1.100  0.000  0.000          
    Mg       Shell      12       0.00   1.585000   1.100  0.000  0.000          
    Ca       Core       20      40.08  -1.135000   0.990  0.000  0.000          
    Ca       Shell      20       0.00   3.135000   0.990  0.000  0.000          
    Sr       Core       38      87.62  -1.251000   1.120  0.000  0.000          
    Sr       Shell      38       0.00   3.251000   1.120  0.000  0.000          
    Ba       Core       56     137.33  -7.203000   1.340  0.000  0.000          
    Ba       Shell      56       0.00   9.203000   1.340  0.000  0.000          
--------------------------------------------------------------------------------


  Lattice summation method               =    Ewald          (3-D)
                                         =    Parry          (2-D)
                                         =    Saunders et al (1-D)
  Accuracy factor for lattice sums       =   12.000


  Analytic derivatives to be used

  Time limit = Infinity

  Maximum range for interatomic potentials =    100000.000000 Angstroms

  General interatomic potentials :

--------------------------------------------------------------------------------
Atom  Types   Potential      Parameter       Value         Units   Cutoffs(Ang)
  1     2                                                            Min /  Max 
--------------------------------------------------------------------------------
O    c O    s Spring (c-s)  Spring k 2       593.71600    eV*Ang^-2 0.000  0.800
                            Spring k 4       0.0000000    eV*Ang^-4 
--------------------------------------------------------------------------------
Cl   c Cl   s Spring (c-s)  Spring k 2       29.380000    eV*Ang^-2 0.000  0.800
                            Spring k 4       0.0000000    eV*Ang^-4 
--------------------------------------------------------------------------------
Mg   c Mg   s Spring (c-s)  Spring k 2       361.60000    eV*Ang^-2 0.000  0.800
                            Spring k 4       0.0000000    eV*Ang^-4 
--------------------------------------------------------------------------------
Ca   c Ca   s Spring (c-s)  Spring k 2       110.20000    eV*Ang^-2 0.000  0.800
                            Spring k 4       0.0000000    eV*Ang^-4 
--------------------------------------------------------------------------------
Sr   c Sr   s Spring (c-s)  Spring k 2       71.700000    eV*Ang^-2 0.000  0.800
                            Spring k 4       0.0000000    eV*Ang^-4 
--------------------------------------------------------------------------------
Ba   c Ba   s Spring (c-s)  Spring k 2       495.20000    eV*Ang^-2 0.000  0.800
                            Spring k 4       0.0000000    eV*Ang^-4 
--------------------------------------------------------------------------------
Na   c Na   c Buckingham    Buckingham A     1788.1900    eV        0.000 12.000
                            Buckingham rho  0.15900000    Ang       
                            Buckingham C     0.0000000    eV*Ang^6  
--------------------------------------------------------------------------------
Na   c O    s Buckingham    Buckingham A     1226.8400    eV        0.000 12.000
                            Buckingham rho  0.30700000    Ang       
                            Buckingham C     0.0000000    eV*Ang^6  
--------------------------------------------------------------------------------
Na   c Cl   s Buckingham    Buckingham A     2314.7000    eV        0.000 12.000
                            Buckingham rho  0.29000000    Ang       
                            Buckingham C     0.0000000    eV*Ang^6  
--------------------------------------------------------------------------------
O    s O    s Buckingham    Buckingham A     22764.300    eV        0.000 12.000
                            Buckingham rho  0.14900000    Ang       
                            Buckingham C     13.190000    eV*Ang^6  
--------------------------------------------------------------------------------
O    s Cl   s Buckingham    Buckingham A     8286.9100    eV        0.000 12.000
                            Buckingham rho  0.25900000    Ang       
                            Buckingham C     62.200000    eV*Ang^6  
--------------------------------------------------------------------------------
Cl   s Cl   s Buckingham    Buckingham A     1227.2000    eV        0.000 12.000
                            Buckingham rho  0.32100000    Ang       
                            Buckingham C     14.530000    eV*Ang^6  
--------------------------------------------------------------------------------
O    s Mg   s Buckingham    Buckingham A     1428.5000    eV        0.000 12.000
                            Buckingham rho  0.29450000    Ang       
                            Buckingham C     0.0000000    eV*Ang^6  
--------------------------------------------------------------------------------
Mg   s Cl   s Buckingham    Buckingham A     4914.5400    eV        0.000 12.000
                            Buckingham rho  0.25700000    Ang       
                            Buckingham C     0.0000000    eV*Ang^6  
--------------------------------------------------------------------------------
O    s Ca   s Buckingham    Buckingham A     1090.4000    eV        0.000 12.000
                            Buckingham rho  0.34370000    Ang       
                            Buckingham C     0.0000000    eV*Ang^6  
--------------------------------------------------------------------------------
Cl   s Ca   s Buckingham    Buckingham A     2302.0000    eV        0.000 12.000
                            Buckingham rho  0.34020000    Ang       
                            Buckingham C     0.0000000    eV*Ang^6  
--------------------------------------------------------------------------------
O    s Sr   s Buckingham    Buckingham A     959.10000    eV        0.000 12.000
                            Buckingham rho  0.37210000    Ang       
                            Buckingham C     0.0000000    eV*Ang^6  
--------------------------------------------------------------------------------
Cl   s Sr   s Buckingham    Buckingham A     2191.0900    eV        0.000 12.000
                            Buckingham rho  0.34570000    Ang       
                            Buckingham C     0.0000000    eV*Ang^6  
--------------------------------------------------------------------------------
O    s Ba   s Buckingham    Buckingham A     905.70000    eV        0.000 12.000
                            Buckingham rho  0.39760000    Ang       
                            Buckingham C     0.0000000    eV*Ang^6  
--------------------------------------------------------------------------------
Cl   s Ba   s Buckingham    Buckingham A     2704.5500    eV        0.000 12.000
                            Buckingham rho  0.35280000    Ang       
                            Buckingham C     0.0000000    eV*Ang^6  
--------------------------------------------------------------------------------

********************************************************************************
*  Output for configuration   1                                                *
********************************************************************************


  Components of energy : 

--------------------------------------------------------------------------------
  Interatomic potentials     =           5.13022605 eV    
  Monopole - monopole (real) =         -10.03624526 eV    
  Monopole - monopole (recip)=         -29.53581274 eV    
  Monopole - monopole (total)=         -39.57205800 eV    
--------------------------------------------------------------------------------
  Total lattice energy       =         -34.44183194 eV    
--------------------------------------------------------------------------------
  Total lattice energy       =           -3323.1103 kJ/(mole unit cells)
--------------------------------------------------------------------------------


  Number of variables =        1

  Maximum number of calculations  =          1000
  Maximum Hessian update interval =            10
  Maximum step size               =   1.000000000
  Maximum parameter tolerance     =   0.000010000
  Maximum function  tolerance     =   0.000010000
  Maximum gradient  tolerance     =   0.001000000
  Maximum gradient  component     =   0.010000000

  Symmetry constrained optimisation

  Symmetry used for second derivatives

  Cell parameters to be optimised using strains

  Newton-Raphson optimiser to be used

  BFGS hessian update to be used

  Lower half triangular hessian to be used

  Start of bulk optimisation :

  Cycle:      0 Energy:       -34.441832  Gnorm:      0.196570  CPU:    0.015
  ** Hessian calculated **
  Cycle:      1 Energy:       -34.441914  Gnorm:      0.000103  CPU:    0.019


  **** Optimisation achieved ****


  Final energy =     -34.44191447 eV
  Final Gnorm  =       0.00000000

  Components of energy : 

--------------------------------------------------------------------------------
  Interatomic potentials     =           5.09689708 eV    
  Monopole - monopole (real) =         -10.02781331 eV    
  Monopole - monopole (recip)=         -29.51099824 eV    
  Monopole - monopole (total)=         -39.53881155 eV    
--------------------------------------------------------------------------------
  Total lattice energy       =         -34.44191447 eV    
--------------------------------------------------------------------------------
  Total lattice energy       =           -3323.1183 kJ/(mole unit cells)
--------------------------------------------------------------------------------

  Final asymmetric unit coordinates :

--------------------------------------------------------------------------------
   No.  Atomic        x           y           z         Radius
        Label       (Frac)      (Frac)      (Frac)       (Angs) 
--------------------------------------------------------------------------------
     1  Cl    c     0.000000    0.000000    0.000000    0.000000
     2  O     c     0.500000    0.500000    0.500000    0.000000
     3  Na    c     0.500000    0.500000    0.000000    0.000000
     4  Cl    s     0.000000    0.000000    0.000000    0.000000
     5  O     s     0.500000    0.500000    0.500000    0.000000
--------------------------------------------------------------------------------

  Final Cartesian lattice vectors (Angstroms) :

        4.507787    0.000000    0.000000
        0.000000    4.507787    0.000000
        0.000000    0.000000    4.507787


  Final cell parameters and derivatives :

--------------------------------------------------------------------------------
       a            4.507787 Angstrom     dE/de1(xx)     0.000000 eV/strain
       b            4.507787 Angstrom     dE/de2(yy)     0.000000 eV/strain
       c            4.507787 Angstrom     dE/de3(zz)     0.000000 eV/strain
       alpha       90.000000 Degrees      dE/de4(yz)     0.000000 eV/strain
       beta        90.000000 Degrees      dE/de5(xz)     0.000000 eV/strain
       gamma       90.000000 Degrees      dE/de6(xy)     0.000000 eV/strain
--------------------------------------------------------------------------------

  Primitive cell volume =            91.598892 Angs**3

  Density of cell =      2.183054 g/cm**3

  Non-primitive cell volume =            91.598892 Angs**3


  Final internal derivatives :

--------------------------------------------------------------------------------
   No.  Atomic          a             b             c           Radius
        Label          (eV)          (eV)          (eV)        (eV/Angs)
--------------------------------------------------------------------------------
      1 Cl    c       0.000000      0.000000      0.000000      0.000000
      2 O     c       0.000000      0.000000      0.000000      0.000000
      3 Na    c       0.000000      0.000000      0.000000      0.000000
      4 Cl    s       0.000000      0.000000      0.000000      0.000000
      5 O     s       0.000000      0.000000      0.000000      0.000000
--------------------------------------------------------------------------------
  Maximum abs         0.000000      0.000000      0.000000      0.000000
--------------------------------------------------------------------------------

  Comparison of initial and final structures : 

--------------------------------------------------------------------------------
  Parameter   Initial value   Final value   Difference    Units      Percent
--------------------------------------------------------------------------------
    Volume        91.368216     91.598892     0.230676    Angs**3      0.25
    a              4.504000      4.507787     0.003787    Angstroms    0.08
    b              4.504000      4.507787     0.003787    Angstroms    0.08
    c              4.504000      4.507787     0.003787    Angstroms    0.08
    alpha         90.000000     90.000000     0.000000    Degrees      0.00
    beta          90.000000     90.000000     0.000000    Degrees      0.00
    gamma         90.000000     90.000000     0.000000    Degrees      0.00
      1 x          0.000000      0.000000     0.000000    Fractional   0.00
      1 y          0.000000      0.000000     0.000000    Fractional   0.00
      1 z          0.000000      0.000000     0.000000    Fractional   0.00
      2 x          0.500000      0.500000     0.000000    Fractional   0.00
      2 y          0.500000      0.500000     0.000000    Fractional   0.00
      2 z          0.500000      0.500000     0.000000    Fractional   0.00
      3 x          0.500000      0.500000     0.000000    Fractional   0.00
      3 y          0.500000      0.500000     0.000000    Fractional   0.00
      3 z          0.000000      0.000000     0.000000    Fractional   0.00
      4 x          0.000000      0.000000     0.000000    Fractional   0.00
      4 y          0.000000      0.000000     0.000000    Fractional   0.00
      4 z          0.000000      0.000000     0.000000    Fractional   0.00
      5 x          0.500000      0.500000     0.000000    Fractional   0.00
      5 y          0.500000      0.500000     0.000000    Fractional   0.00
      5 z          0.500000      0.500000     0.000000    Fractional   0.00
--------------------------------------------------------------------------------


  Born effective charge tensors : 

-------------------------------------------------------------------------------
  Atom             x           y             z
-------------------------------------------------------------------------------
    1 Cl    x      -1.0181     -0.0000      0.0000
            y      -0.0000     -1.0181      0.0000
            z       0.0000      0.0000     -1.0181
-------------------------------------------------------------------------------
    2 O     x      -2.2647      0.0000     -0.0000
            y       0.0000     -2.2647     -0.0000
            z      -0.0000     -0.0000     -2.2647
-------------------------------------------------------------------------------
    3 Na    x       1.2258     -0.0000      0.0000
            y      -0.0000      1.2258     -0.0000
            z       0.0000     -0.0000      0.8313
-------------------------------------------------------------------------------




  Elastic Constant Matrix: (Units=GPa)

-------------------------------------------------------------------------------
  Indices      1         2         3         4         5         6    
-------------------------------------------------------------------------------
       1     95.8177   20.0737   20.0737   -0.0000   -0.0000    0.0000
       2     20.0737   95.8177   20.0737   -0.0000   -0.0000    0.0000
       3     20.0737   20.0737   95.8177   -0.0000   -0.0000    0.0000
       4     -0.0000   -0.0000   -0.0000   20.0737   -0.0000    0.0000
       5     -0.0000   -0.0000   -0.0000   -0.0000   20.0737    0.0000
       6      0.0000    0.0000    0.0000    0.0000    0.0000   20.0737
-------------------------------------------------------------------------------


  Elastic Compliance Matrix: (Units=1/GPa)

-------------------------------------------------------------------------------
  Indices      1         2         3         4         5         6    
-------------------------------------------------------------------------------
       1    0.011253 -0.001949 -0.001949  0.000000  0.000000 -0.000000
       2   -0.001949  0.011253 -0.001949  0.000000  0.000000  0.000000
       3   -0.001949 -0.001949  0.011253  0.000000  0.000000 -0.000000
       4    0.000000  0.000000  0.000000  0.049816  0.000000 -0.000000
       5    0.000000  0.000000  0.000000  0.000000  0.049816 -0.000000
       6   -0.000000  0.000000 -0.000000 -0.000000 -0.000000  0.049816
-------------------------------------------------------------------------------

  Mechanical properties :

-------------------------------------------------------------------------------
  Convention :                    Reuss         Voigt         Hill
-------------------------------------------------------------------------------
  Bulk  Modulus (GPa)     =      45.32174      45.32174      45.32174
  Shear Modulus (GPa)     =      24.72085      27.19304      25.95695
-------------------------------------------------------------------------------
  Velocity S-wave (km/s)  =       3.36511       3.52937       3.44822
  Velocity P-wave (km/s)  =       5.98827       6.11304       6.05098
-------------------------------------------------------------------------------
  Compressibility (1/GPa) =    0.02206447
-------------------------------------------------------------------------------
  Stress axis :                     x             y             z
-------------------------------------------------------------------------------
  Youngs Moduli (GPa)     =      88.86373      88.86373      88.86373
-------------------------------------------------------------------------------
  Poissons Ratio (x)      =                     0.17321       0.17321
  Poissons Ratio (y)      =       0.17321                     0.17321
  Poissons Ratio (z)      =       0.17321       0.17321
-------------------------------------------------------------------------------


  Piezoelectric Strain Matrix: (Units=C/m**2)

-------------------------------------------------------------------------------
  Indices      1         2         3         4         5         6    
-------------------------------------------------------------------------------
       x    -0.00000  -0.00000  -0.00000   0.00000  -0.00000  -0.00000
       y    -0.00000  -0.00000   0.00000  -0.00000   0.00000   0.00000
       z    -0.00000  -0.00000  -0.00000  -0.00000   0.00000   0.00000
-------------------------------------------------------------------------------


  Piezoelectric Stress Matrix: (Units=10**-11 C/N)

-------------------------------------------------------------------------------
  Indices      1         2         3         4         5         6    
-------------------------------------------------------------------------------
       x    -0.00000   0.00000   0.00000   0.00000  -0.00000  -0.00000
       y    -0.00000  -0.00000   0.00000  -0.00000   0.00000   0.00000
       z     0.00000   0.00000  -0.00000  -0.00000   0.00000   0.00000
-------------------------------------------------------------------------------


  Static dielectric constant tensor : 

-------------------------------------------------------------------------------
              x         y         z
-------------------------------------------------------------------------------
       x    22.84729   0.00000   0.00000
       y     0.00000  22.84729  -0.00000
       z     0.00000  -0.00000  22.84729
--------------------------------------------------------------------------------

  High frequency dielectric constant tensor : 

-------------------------------------------------------------------------------
              x         y         z
-------------------------------------------------------------------------------
       x     1.47557   0.00000  -0.00000
       y     0.00000   1.47557  -0.00000
       z    -0.00000  -0.00000   1.47557
-------------------------------------------------------------------------------

  Static refractive indices : 

-------------------------------------------------------------------------------
    1 =    4.77988      2 =    4.77988      3 =    4.77988
-------------------------------------------------------------------------------

  High frequency refractive indices : 

-------------------------------------------------------------------------------
    1 =    1.21473      2 =    1.21473      3 =    1.21473
-------------------------------------------------------------------------------


  Time to end of optimisation =       0.0271 seconds

********************************************************************************
*  Defect calculation for configuration   1 :                                  *
********************************************************************************

  Total number of defects =      3

  Total charge on defect  =  -1.00

  Defect centre is at   0.5000   0.4200   0.0800  Frac

  Region 1 radius =  13.0000      Number of ions =    697

  Number of symmetry inequivalent region 1 ions  =    399

  Region 2 radius =  21.0000      Number of ions =   2247

  Number of symmetry inequivalent region 2a ions =   1210

  Region 2a mode = 4 : screened electrostatics due to region 1 
                       neglect correction to region 1 forces from 2a
                       region 2a displacements based on defects only

  Region 2a ions will only interact with defects in region 1

  Vacancies:

--------------------------------------------------------------------------------
    Specification type     Symbol/Number         x          y          z
--------------------------------------------------------------------------------
    Fractional                               0.500000   0.500000   0.000000
    Fractional                               0.500000   0.000000   0.500000
--------------------------------------------------------------------------------

  Interstitials:

--------------------------------------------------------------------------------
    Specification type     Symbol/Number         x          y          z
--------------------------------------------------------------------------------
    Atom/Fractional         Na               0.500000   0.420000   0.080000
--------------------------------------------------------------------------------


  Symmetry reduced region 1 (Relative to defect centre) :

--------------------------------------------------------------------------------
   No.   Atomic       x            y             z       Radius  Multiplicity   
         Label      (Angs)       (Angs)        (Angs)    (Angs)     
--------------------------------------------------------------------------------
     1  Na    c      0.0000       0.0000       0.0000    0.0000     1    Defect
     2  O     c      0.0000       0.3606 *     1.8933 *  0.0000     1          
     3  O     c      0.0000       0.3606 *    -2.6145 *  0.0000     1          
     4  Na    c      2.2539 *     0.3606 *     1.8933 *  0.0000     2          
     5  Cl    c      2.2539 *    -1.8933 *    -0.3606 *  0.0000     2          
     6  Na    c      0.0000       2.6145 *     1.8933 *  0.0000     1          
     7  Na    c      0.0000      -1.8933 *    -2.6145 *  0.0000     1          
     8  Cl    c      2.2539 *     2.6145 *    -0.3606 *  0.0000     2          
     9  Na    c      2.2539 *     0.3606 *    -2.6145 *  0.0000     2          
    10  Na    c      0.0000       2.6145 *    -2.6145 *  0.0000     1          
    11  Na    c      0.0000       0.3606 *     4.1472 *  0.0000     1          
    12  Na    c      0.0000      -4.1472 *    -0.3606 *  0.0000     1          
    13  Na    c     -4.5078 *     0.3606 *    -0.3606 *  0.0000     2          
    14  O     c      0.0000      -4.1472 *     1.8933 *  0.0000     1          
    15  Na    c      0.0000       0.3606 *    -4.8684 *  0.0000     1          
    16  Na    c      0.0000       4.8684 *    -0.3606 *  0.0000     1          
    17  O     c     -4.5078 *     0.3606 *     1.8933 *  0.0000     2          
    18  O     c      0.0000      -4.1472 *    -2.6145 *  0.0000     1          
    19  Na    c      2.2539 *    -4.1472 *     1.8933 *  0.0000     2          
    20  Cl    c      2.2539 *    -1.8933 *     4.1472 *  0.0000     2          
    21  O     c      0.0000       4.8684 *     1.8933 *  0.0000     1          
    22  O     c     -4.5078 *     0.3606 *    -2.6145 *  0.0000     2          
    23  Na    c     -4.5078 *    -1.8933 *     1.8933 *  0.0000     2          
    24  Cl    c      2.2539 *     2.6145 *     4.1472 *  0.0000     2          
    25  Na    c      2.2539 *    -4.1472 *    -2.6145 *  0.0000     2          
    26  O     c      0.0000       4.8684 *    -2.6145 *  0.0000     1          
    27  Na    c     -4.5078 *     2.6145 *     1.8933 *  0.0000     2          
    28  Na    c     -4.5078 *    -1.8933 *    -2.6145 *  0.0000     2          
    29  Cl    c      2.2539 *    -1.8933 *    -4.8684 *  0.0000     2          
    30  Na    c      2.2539 *     4.8684 *     1.8933 *  0.0000     2          
    31  Na    c     -4.5078 *     2.6145 *    -2.6145 *  0.0000     2          
    32  Na    c      0.0000      -4.1472 *     4.1472 *  0.0000     1          
    33  Cl    c      2.2539 *     2.6145 *    -4.8684 *  0.0000     2          
    34  Na    c      2.2539 *     4.8684 *    -2.6145 *  0.0000     2          
    35  Na    c     -4.5078 *     0.3606 *     4.1472 *  0.0000     2          
    36  Na    c     -4.5078 *    -4.1472 *    -0.3606 *  0.0000     2          
    37  Na    c      0.0000       4.8684 *     4.1472 *  0.0000     1          
    38  Na    c      0.0000      -4.1472 *    -4.8684 *  0.0000     1          
    39  O     c      0.0000       0.3606 *     6.4011 *  0.0000     1          
    40  O     c     -4.5078 *    -4.1472 *     1.8933 *  0.0000     2          
    41  Na    c     -4.5078 *     0.3606 *    -4.8684 *  0.0000     2          
    42  Na    c     -4.5078 *     4.8684 *    -0.3606 *  0.0000     2          
    43  O     c     -4.5078 *    -4.1472 *    -2.6145 *  0.0000     2          
    44  Na    c      0.0000      -6.4011 *     1.8933 *  0.0000     1          
    45  Na    c      0.0000      -1.8933 *     6.4011 *  0.0000     1          
    46  Cl    c      2.2539 *    -6.4011 *    -0.3606 *  0.0000     2          
    47  Na    c      2.2539 *     0.3606 *     6.4011 *  0.0000     2          
    48  Na    c      0.0000       4.8684 *    -4.8684 *  0.0000     1          
    49  O     c     -4.5078 *     4.8684 *     1.8933 *  0.0000     2          
    50  Na    c      0.0000       2.6145 *     6.4011 *  0.0000     1          
    51  Na    c      0.0000      -6.4011 *    -2.6145 *  0.0000     1          
    52  Na    c      6.7617 *     0.3606 *     1.8933 *  0.0000     2          
    53  Cl    c      6.7617 *    -1.8933 *    -0.3606 *  0.0000     2          
    54  O     c      0.0000       0.3606 *    -7.1223 *  0.0000     1          
    55  O     c     -4.5078 *     4.8684 *    -2.6145 *  0.0000     2          
    56  Cl    c      6.7617 *     2.6145 *    -0.3606 *  0.0000     2          
    57  Na    c      6.7617 *     0.3606 *    -2.6145 *  0.0000     2          
    58  Na    c      0.0000       7.1223 *     1.8933 *  0.0000     1          
    59  Na    c      0.0000      -1.8933 *    -7.1223 *  0.0000     1          
    60  Na    c      4.5078 *    -4.1472 *     4.1472 *  0.0000     2          
    61  Cl    c      2.2539 *     7.1223 *    -0.3606 *  0.0000     2          
    62  Na    c      2.2539 *     0.3606 *    -7.1223 *  0.0000     2          
    63  Na    c      0.0000       7.1223 *    -2.6145 *  0.0000     1          
    64  Na    c      0.0000       2.6145 *    -7.1223 *  0.0000     1          
    65  O     c      0.0000      -4.1472 *     6.4011 *  0.0000     1          
    66  Na    c      4.5078 *     4.8684 *     4.1472 *  0.0000     2          
    67  Na    c      4.5078 *    -4.1472 *    -4.8684 *  0.0000     2          
    68  O     c     -4.5078 *     0.3606 *     6.4011 *  0.0000     2          
    69  Cl    c      2.2539 *    -6.4011 *     4.1472 *  0.0000     2          
    70  Na    c      2.2539 *    -4.1472 *     6.4011 *  0.0000     2          
    71  O     c      0.0000       4.8684 *     6.4011 *  0.0000     1          
    72  Na    c     -4.5078 *    -6.4011 *     1.8933 *  0.0000     2          
    73  Na    c      4.5078 *    -1.8933 *     6.4011 *  0.0000     2          
    74  Cl    c      6.7617 *    -1.8933 *     4.1472 *  0.0000     2          
    75  Na    c      6.7617 *    -4.1472 *     1.8933 *  0.0000     2          
    76  Na    c      4.5078 *     4.8684 *    -4.8684 *  0.0000     2          
    77  O     c      0.0000      -4.1472 *    -7.1223 *  0.0000     1          
    78  Na    c     -4.5078 *     2.6145 *     6.4011 *  0.0000     2          
    79  Na    c     -4.5078 *    -6.4011 *    -2.6145 *  0.0000     2          
    80  Cl    c      2.2539 *    -6.4011 *    -4.8684 *  0.0000     2          
    81  Na    c      2.2539 *     4.8684 *     6.4011 *  0.0000     2          
    82  Cl    c      6.7617 *     2.6145 *     4.1472 *  0.0000     2          
    83  Na    c      6.7617 *    -4.1472 *    -2.6145 *  0.0000     2          
    84  O     c     -4.5078 *     0.3606 *    -7.1223 *  0.0000     2          
    85  Cl    c      2.2539 *     7.1223 *     4.1472 *  0.0000     2          
    86  Cl    c      6.7617 *    -1.8933 *    -4.8684 *  0.0000     2          
    87  Na    c      2.2539 *    -4.1472 *    -7.1223 *  0.0000     2          
    88  Na    c      6.7617 *     4.8684 *     1.8933 *  0.0000     2          
    89  O     c      0.0000       4.8684 *    -7.1223 *  0.0000     1          
    90  Na    c      4.5078 *     7.1223 *     1.8933 *  0.0000     2          
    91  Na    c      4.5078 *    -1.8933 *    -7.1223 *  0.0000     2          
    92  Na    c      0.0000       0.3606 *     8.6550 *  0.0000     1          
    93  Na    c      0.0000      -8.6550 *    -0.3606 *  0.0000     1          
    94  Cl    c      6.7617 *     2.6145 *    -4.8684 *  0.0000     2          
    95  Na    c      6.7617 *     4.8684 *    -2.6145 *  0.0000     2          
    96  Na    c      4.5078 *     2.6145 *    -7.1223 *  0.0000     2          
    97  Na    c      4.5078 *     7.1223 *    -2.6145 *  0.0000     2          
    98  O     c      4.5078 *    -4.1472 *     6.4011 *  0.0000     2          
    99  O     c      0.0000      -8.6550 *     1.8933 *  0.0000     1          
   100  Cl    c      2.2539 *     7.1223 *    -4.8684 *  0.0000     2          
   101  Na    c      2.2539 *     4.8684 *    -7.1223 *  0.0000     2          
   102  Na    c      9.0156 *     0.3606 *    -0.3606 *  0.0000     2          
   103  O     c      0.0000      -8.6550 *    -2.6145 *  0.0000     1          
   104  Na    c      0.0000      -6.4011 *     6.4011 *  0.0000     1          
   105  Na    c      2.2539 *    -8.6550 *     1.8933 *  0.0000     2          
   106  Cl    c      2.2539 *    -1.8933 *     8.6550 *  0.0000     2          
   107  O     c      9.0156 *     0.3606 *     1.8933 *  0.0000     2          
   108  O     c     -4.5078 *     4.8684 *     6.4011 *  0.0000     2          
   109  Cl    c      6.7617 *    -6.4011 *    -0.3606 *  0.0000     2          
   110  Na    c      6.7617 *     0.3606 *     6.4011 *  0.0000     2          
   111  Cl    c      2.2539 *     2.6145 *     8.6550 *  0.0000     2          
   112  Na    c      2.2539 *    -8.6550 *    -2.6145 *  0.0000     2          
   113  Na    c      0.0000       0.3606 *    -9.3762 *  0.0000     1          
   114  Na    c      0.0000       9.3762 *    -0.3606 *  0.0000     1          
   115  O     c      9.0156 *     0.3606 *    -2.6145 *  0.0000     2          
   116  O     c     -4.5078 *    -4.1472 *    -7.1223 *  0.0000     2          
   117  Na    c      9.0156 *    -1.8933 *     1.8933 *  0.0000     2          
   118  O     c      0.0000       9.3762 *     1.8933 *  0.0000     1          
   119  Na    c      0.0000       7.1223 *     6.4011 *  0.0000     1          
   120  Na    c      0.0000      -6.4011 *    -7.1223 *  0.0000     1          
   121  Na    c      9.0156 *     2.6145 *     1.8933 *  0.0000     2          
   122  Na    c      9.0156 *    -1.8933 *    -2.6145 *  0.0000     2          
   123  Na    c      0.0000      -4.1472 *     8.6550 *  0.0000     1          
   124  Na    c      0.0000      -8.6550 *     4.1472 *  0.0000     1          
   125  O     c      0.0000       9.3762 *    -2.6145 *  0.0000     1          
   126  O     c      4.5078 *     4.8684 *    -7.1223 *  0.0000     2          
   127  Na    c      9.0156 *     2.6145 *    -2.6145 *  0.0000     2          
   128  Na    c     -4.5078 *     0.3606 *     8.6550 *  0.0000     2          
   129  Na    c     -4.5078 *    -8.6550 *    -0.3606 *  0.0000     2          
   130  Na    c      2.2539 *     9.3762 *     1.8933 *  0.0000     2          
   131  Cl    c      2.2539 *    -1.8933 *    -9.3762 *  0.0000     2          
   132  Cl    c      6.7617 *     7.1223 *    -0.3606 *  0.0000     2          
   133  Na    c      6.7617 *     0.3606 *    -7.1223 *  0.0000     2          
   134  Na    c      9.0156 *     0.3606 *     4.1472 *  0.0000     2          
   135  Na    c      9.0156 *    -4.1472 *    -0.3606 *  0.0000     2          
   136  Na    c      0.0000       4.8684 *     8.6550 *  0.0000     1          
   137  Na    c      0.0000      -8.6550 *    -4.8684 *  0.0000     1          
   138  O     c     -4.5078 *    -8.6550 *     1.8933 *  0.0000     2          
   139  Cl    c      2.2539 *     2.6145 *    -9.3762 *  0.0000     2          
   140  Na    c      2.2539 *     9.3762 *    -2.6145 *  0.0000     2          
   141  Na    c      0.0000       7.1223 *    -7.1223 *  0.0000     1          
   142  O     c      9.0156 *    -4.1472 *     1.8933 *  0.0000     2          
   143  O     c     -4.5078 *    -8.6550 *    -2.6145 *  0.0000     2          
   144  Na    c     -4.5078 *    -6.4011 *     6.4011 *  0.0000     2          
   145  Cl    c      6.7617 *    -6.4011 *     4.1472 *  0.0000     2          
   146  Na    c      6.7617 *    -4.1472 *     6.4011 *  0.0000     2          
   147  Na    c      0.0000       9.3762 *     4.1472 *  0.0000     1          
   148  Na    c      0.0000      -4.1472 *    -9.3762 *  0.0000     1          
   149  Na    c      9.0156 *     0.3606 *    -4.8684 *  0.0000     2          
   150  Na    c      9.0156 *     4.8684 *    -0.3606 *  0.0000     2          
   151  O     c      9.0156 *    -4.1472 *    -2.6145 *  0.0000     2          
   152  Na    c     -4.5078 *     0.3606 *    -9.3762 *  0.0000     2          
   153  Na    c     -4.5078 *     9.3762 *    -0.3606 *  0.0000     2          
   154  O     c      9.0156 *     4.8684 *     1.8933 *  0.0000     2          
   155  Cl    c      6.7617 *    -6.4011 *    -4.8684 *  0.0000     2          
   156  Na    c      6.7617 *     4.8684 *     6.4011 *  0.0000     2          
   157  Na    c      0.0000       4.8684 *    -9.3762 *  0.0000     1          
   158  Na    c      0.0000       9.3762 *    -4.8684 *  0.0000     1          
   159  O     c     -4.5078 *     9.3762 *     1.8933 *  0.0000     2          
   160  O     c      9.0156 *     4.8684 *    -2.6145 *  0.0000     2          
   161  Na    c      4.5078 *     7.1223 *     6.4011 *  0.0000     2          
   162  Na    c     -4.5078 *    -6.4011 *    -7.1223 *  0.0000     2          
   163  Na    c      4.5078 *    -4.1472 *     8.6550 *  0.0000     2          
   164  Na    c     -4.5078 *    -8.6550 *     4.1472 *  0.0000     2          
   165  Cl    c      6.7617 *     7.1223 *     4.1472 *  0.0000     2          
   166  Na    c      6.7617 *    -4.1472 *    -7.1223 *  0.0000     2          
   167  O     c     -4.5078 *     9.3762 *    -2.6145 *  0.0000     2          
   168  Na    c      9.0156 *    -4.1472 *     4.1472 *  0.0000     2          
   169  O     c      0.0000      -8.6550 *     6.4011 *  0.0000     1          
   170  Na    c     -4.5078 *     4.8684 *     8.6550 *  0.0000     2          
   171  Na    c     -4.5078 *    -8.6550 *    -4.8684 *  0.0000     2          
   172  O     c      0.0000       0.3606 *    10.9088 *  0.0000     1          
   173  Cl    c      6.7617 *     7.1223 *    -4.8684 *  0.0000     2          
   174  Na    c      6.7617 *     4.8684 *    -7.1223 *  0.0000     2          
   175  Cl    c      2.2539 *    -6.4011 *     8.6550 *  0.0000     2          
   176  Na    c      2.2539 *    -8.6550 *     6.4011 *  0.0000     2          
   177  Na    c      4.5078 *     7.1223 *    -7.1223 *  0.0000     2          
   178  Na    c      9.0156 *     4.8684 *     4.1472 *  0.0000     2          
   179  Na    c      9.0156 *    -4.1472 *    -4.8684 *  0.0000     2          
   180  O     c      9.0156 *     0.3606 *     6.4011 *  0.0000     2          
   181  Na    c      0.0000      -1.8933 *    10.9088 *  0.0000     1          
   182  Na    c      0.0000     -10.9088 *     1.8933 *  0.0000     1          
   183  Cl    c      2.2539 *   -10.9088 *    -0.3606 *  0.0000     2          
   184  Na    c      2.2539 *     0.3606 *    10.9088 *  0.0000     2          
   185  Cl    c      6.7617 *    -1.8933 *     8.6550 *  0.0000     2          
   186  Na    c      6.7617 *    -8.6550 *     1.8933 *  0.0000     2          
   187  Na    c      4.5078 *    -4.1472 *    -9.3762 *  0.0000     2          
   188  Na    c     -4.5078 *     9.3762 *     4.1472 *  0.0000     2          
   189  O     c      0.0000      -8.6550 *    -7.1223 *  0.0000     1          
   190  Na    c      0.0000       2.6145 *    10.9088 *  0.0000     1          
   191  Na    c      0.0000     -10.9088 *    -2.6145 *  0.0000     1          
   192  Na    c      9.0156 *    -1.8933 *     6.4011 *  0.0000     2          
   193  Na    c      9.0156 *    -6.4011 *     1.8933 *  0.0000     2          
   194  Cl    c      6.7617 *     2.6145 *     8.6550 *  0.0000     2          
   195  Na    c      6.7617 *    -8.6550 *    -2.6145 *  0.0000     2          
   196  Na    c      9.0156 *     4.8684 *    -4.8684 *  0.0000     2          
   197  O     c      0.0000       9.3762 *     6.4011 *  0.0000     1          
   198  Na    c      9.0156 *     2.6145 *     6.4011 *  0.0000     2          
   199  Na    c      9.0156 *    -6.4011 *    -2.6145 *  0.0000     2          
   200  Na    c     11.2695 *     0.3606 *     1.8933 *  0.0000     2          
   201  Cl    c      2.2539 *     7.1223 *     8.6550 *  0.0000     2          
   202  Cl    c     11.2695 *    -1.8933 *    -0.3606 *  0.0000     2          
   203  Na    c      2.2539 *    -8.6550 *    -7.1223 *  0.0000     2          
   204  Na    c     -4.5078 *     4.8684 *    -9.3762 *  0.0000     2          
   205  Na    c     -4.5078 *     9.3762 *    -4.8684 *  0.0000     2          
   206  O     c      9.0156 *     0.3606 *    -7.1223 *  0.0000     2          
   207  Cl    c      2.2539 *    -6.4011 *    -9.3762 *  0.0000     2          
   208  Cl    c     11.2695 *     2.6145 *    -0.3606 *  0.0000     2          
   209  Na    c      2.2539 *     9.3762 *     6.4011 *  0.0000     2          
   210  Na    c     11.2695 *     0.3606 *    -2.6145 *  0.0000     2          
   211  O     c      0.0000       0.3606 *   -11.6301 *  0.0000     1          
   212  Na    c      9.0156 *     7.1223 *     1.8933 *  0.0000     2          
   213  Na    c      9.0156 *    -1.8933 *    -7.1223 *  0.0000     2          
   214  O     c      0.0000      -4.1472 *    10.9088 *  0.0000     1          
   215  O     c     -4.5078 *    -8.6550 *     6.4011 *  0.0000     2          
   216  Cl    c      6.7617 *    -1.8933 *    -9.3762 *  0.0000     2          
   217  Na    c      6.7617 *     9.3762 *     1.8933 *  0.0000     2          
   218  O     c      0.0000       9.3762 *    -7.1223 *  0.0000     1          
   219  Na    c      0.0000      11.6301 *     1.8933 *  0.0000     1          
   220  Na    c      0.0000      -1.8933 *   -11.6301 *  0.0000     1          
   221  Na    c      9.0156 *     2.6145 *    -7.1223 *  0.0000     2          
   222  Na    c      9.0156 *     7.1223 *    -2.6145 *  0.0000     2          
   223  O     c      4.5078 *     0.3606 *    10.9088 *  0.0000     2          
   224  O     c      9.0156 *    -4.1472 *     6.4011 *  0.0000     2          
   225  Cl    c      6.7617 *     2.6145 *    -9.3762 *  0.0000     2          
   226  Cl    c      2.2539 *    11.6301 *    -0.3606 *  0.0000     2          
   227  Na    c      2.2539 *     0.3606 *   -11.6301 *  0.0000     2          
   228  Na    c      6.7617 *     9.3762 *    -2.6145 *  0.0000     2          
   229  Cl    c      2.2539 *   -10.9088 *     4.1472 *  0.0000     2          
   230  Na    c      2.2539 *    -4.1472 *    10.9088 *  0.0000     2          
   231  Na    c      0.0000       2.6145 *   -11.6301 *  0.0000     1          
   232  Na    c      0.0000      11.6301 *    -2.6145 *  0.0000     1          
   233  O     c      0.0000       4.8684 *    10.9088 *  0.0000     1          
   234  Na    c      4.5078 *    -1.8933 *    10.9088 *  0.0000     2          
   235  Na    c      4.5078 *   -10.9088 *     1.8933 *  0.0000     2          
   236  Cl    c      2.2539 *     7.1223 *    -9.3762 *  0.0000     2          
   237  Na    c      2.2539 *     9.3762 *    -7.1223 *  0.0000     2          
   238  O     c      9.0156 *     4.8684 *     6.4011 *  0.0000     2          
   239  O     c     -4.5078 *    -8.6550 *    -7.1223 *  0.0000     2          
   240  Na    c      4.5078 *     2.6145 *    10.9088 *  0.0000     2          
   241  Na    c      4.5078 *   -10.9088 *    -2.6145 *  0.0000     2          
   242  Cl    c      2.2539 *   -10.9088 *    -4.8684 *  0.0000     2          
   243  Na    c      2.2539 *     4.8684 *    10.9088 *  0.0000     2          
   244  Cl    c     11.2695 *    -1.8933 *     4.1472 *  0.0000     2          
   245  Na    c     11.2695 *    -4.1472 *     1.8933 *  0.0000     2          
   246  O     c     -4.5078 *     9.3762 *     6.4011 *  0.0000     2          
   247  O     c      9.0156 *    -4.1472 *    -7.1223 *  0.0000     2          
   248  Na    c      0.0000      -8.6550 *     8.6550 *  0.0000     1          
   249  Cl    c     11.2695 *     2.6145 *     4.1472 *  0.0000     2          
   250  Na    c     11.2695 *    -4.1472 *    -2.6145 *  0.0000     2          
   251  O     c      0.0000      -4.1472 *   -11.6301 *  0.0000     1          
   252  Cl    c     11.2695 *    -1.8933 *    -4.8684 *  0.0000     2          
   253  Na    c     11.2695 *     4.8684 *     1.8933 *  0.0000     2          
   254  O     c      4.5078 *     0.3606 *   -11.6301 *  0.0000     2          
   255  O     c      9.0156 *     4.8684 *    -7.1223 *  0.0000     2          
   256  Na    c      9.0156 *     0.3606 *     8.6550 *  0.0000     2          
   257  Na    c      9.0156 *    -8.6550 *    -0.3606 *  0.0000     2          
   258  O     c      4.5078 *    -4.1472 *    10.9088 *  0.0000     2          
   259  Cl    c     11.2695 *     2.6145 *    -4.8684 *  0.0000     2          
   260  Na    c     11.2695 *     4.8684 *    -2.6145 *  0.0000     2          
   261  Cl    c      2.2539 *    11.6301 *     4.1472 *  0.0000     2          
   262  Na    c      2.2539 *    -4.1472 *   -11.6301 *  0.0000     2          
   263  O     c     -4.5078 *     9.3762 *    -7.1223 *  0.0000     2          
   264  O     c      0.0000       4.8684 *   -11.6301 *  0.0000     1          
   265  Na    c      4.5078 *    11.6301 *     1.8933 *  0.0000     2          
   266  Na    c      4.5078 *    -1.8933 *   -11.6301 *  0.0000     2          
   267  O     c      9.0156 *    -8.6550 *     1.8933 *  0.0000     2          
   268  Na    c      0.0000      -6.4011 *    10.9088 *  0.0000     1          
   269  Na    c      0.0000     -10.9088 *     6.4011 *  0.0000     1          
   270  Cl    c      6.7617 *    -6.4011 *     8.6550 *  0.0000     2          
   271  Na    c      6.7617 *    -8.6550 *     6.4011 *  0.0000     2          
   272  Na    c      4.5078 *     2.6145 *   -11.6301 *  0.0000     2          
   273  Na    c      4.5078 *    11.6301 *    -2.6145 *  0.0000     2          
   274  Na    c      0.0000       9.3762 *     8.6550 *  0.0000     1          
   275  Na    c      0.0000      -8.6550 *    -9.3762 *  0.0000     1          
   276  O     c      4.5078 *     4.8684 *    10.9088 *  0.0000     2          
   277  O     c      9.0156 *    -8.6550 *    -2.6145 *  0.0000     2          
   278  Na    c      9.0156 *    -6.4011 *     6.4011 *  0.0000     2          
   279  Cl    c      2.2539 *    11.6301 *    -4.8684 *  0.0000     2          
   280  Na    c      2.2539 *     4.8684 *   -11.6301 *  0.0000     2          
   281  Cl    c      6.7617 *   -10.9088 *    -0.3606 *  0.0000     2          
   282  Na    c      6.7617 *     0.3606 *    10.9088 *  0.0000     2          
   283  Na    c     11.2695 *     0.3606 *     6.4011 *  0.0000     2          
   284  Cl    c     11.2695 *    -6.4011 *    -0.3606 *  0.0000     2          
   285  O     s      0.0000       0.3606 *     1.8933 *  0.0000     1          
   286  O     s      0.0000       0.3606 *    -2.6145 *  0.0000     1          
   287  Cl    s      2.2539 *    -1.8933 *    -0.3606 *  0.0000     2          
   288  Cl    s      2.2539 *     2.6145 *    -0.3606 *  0.0000     2          
   289  O     s      0.0000      -4.1472 *     1.8933 *  0.0000     1          
   290  O     s     -4.5078 *     0.3606 *     1.8933 *  0.0000     2          
   291  O     s      0.0000      -4.1472 *    -2.6145 *  0.0000     1          
   292  Cl    s      2.2539 *    -1.8933 *     4.1472 *  0.0000     2          
   293  O     s      0.0000       4.8684 *     1.8933 *  0.0000     1          
   294  O     s     -4.5078 *     0.3606 *    -2.6145 *  0.0000     2          
   295  Cl    s      2.2539 *     2.6145 *     4.1472 *  0.0000     2          
   296  O     s      0.0000       4.8684 *    -2.6145 *  0.0000     1          
   297  Cl    s      2.2539 *    -1.8933 *    -4.8684 *  0.0000     2          
   298  Cl    s      2.2539 *     2.6145 *    -4.8684 *  0.0000     2          
   299  O     s      0.0000       0.3606 *     6.4011 *  0.0000     1          
   300  O     s     -4.5078 *    -4.1472 *     1.8933 *  0.0000     2          
   301  O     s     -4.5078 *    -4.1472 *    -2.6145 *  0.0000     2          
   302  Cl    s      2.2539 *    -6.4011 *    -0.3606 *  0.0000     2          
   303  O     s     -4.5078 *     4.8684 *     1.8933 *  0.0000     2          
   304  Cl    s      6.7617 *    -1.8933 *    -0.3606 *  0.0000     2          
   305  O     s      0.0000       0.3606 *    -7.1223 *  0.0000     1          
   306  O     s     -4.5078 *     4.8684 *    -2.6145 *  0.0000     2          
   307  Cl    s      6.7617 *     2.6145 *    -0.3606 *  0.0000     2          
   308  Cl    s      2.2539 *     7.1223 *    -0.3606 *  0.0000     2          
   309  O     s      0.0000      -4.1472 *     6.4011 *  0.0000     1          
   310  O     s     -4.5078 *     0.3606 *     6.4011 *  0.0000     2          
   311  Cl    s      2.2539 *    -6.4011 *     4.1472 *  0.0000     2          
   312  O     s      0.0000       4.8684 *     6.4011 *  0.0000     1          
   313  Cl    s      6.7617 *    -1.8933 *     4.1472 *  0.0000     2          
   314  O     s      0.0000      -4.1472 *    -7.1223 *  0.0000     1          
   315  Cl    s      2.2539 *    -6.4011 *    -4.8684 *  0.0000     2          
   316  Cl    s      6.7617 *     2.6145 *     4.1472 *  0.0000     2          
   317  O     s     -4.5078 *     0.3606 *    -7.1223 *  0.0000     2          
   318  Cl    s      2.2539 *     7.1223 *     4.1472 *  0.0000     2          
   319  Cl    s      6.7617 *    -1.8933 *    -4.8684 *  0.0000     2          
   320  O     s      0.0000       4.8684 *    -7.1223 *  0.0000     1          
   321  Cl    s      6.7617 *     2.6145 *    -4.8684 *  0.0000     2          
   322  O     s      4.5078 *    -4.1472 *     6.4011 *  0.0000     2          
   323  O     s      0.0000      -8.6550 *     1.8933 *  0.0000     1          
   324  Cl    s      2.2539 *     7.1223 *    -4.8684 *  0.0000     2          
   325  O     s      0.0000      -8.6550 *    -2.6145 *  0.0000     1          
   326  Cl    s      2.2539 *    -1.8933 *     8.6550 *  0.0000     2          
   327  O     s      9.0156 *     0.3606 *     1.8933 *  0.0000     2          
   328  O     s     -4.5078 *     4.8684 *     6.4011 *  0.0000     2          
   329  Cl    s      6.7617 *    -6.4011 *    -0.3606 *  0.0000     2          
   330  Cl    s      2.2539 *     2.6145 *     8.6550 *  0.0000     2          
   331  O     s      9.0156 *     0.3606 *    -2.6145 *  0.0000     2          
   332  O     s     -4.5078 *    -4.1472 *    -7.1223 *  0.0000     2          
   333  O     s      0.0000       9.3762 *     1.8933 *  0.0000     1          
   334  O     s      0.0000       9.3762 *    -2.6145 *  0.0000     1          
   335  O     s      4.5078 *     4.8684 *    -7.1223 *  0.0000     2          
   336  Cl    s      2.2539 *    -1.8933 *    -9.3762 *  0.0000     2          
   337  Cl    s      6.7617 *     7.1223 *    -0.3606 *  0.0000     2          
   338  O     s     -4.5078 *    -8.6550 *     1.8933 *  0.0000     2          
   339  Cl    s      2.2539 *     2.6145 *    -9.3762 *  0.0000     2          
   340  O     s      9.0156 *    -4.1472 *     1.8933 *  0.0000     2          
   341  O     s     -4.5078 *    -8.6550 *    -2.6145 *  0.0000     2          
   342  Cl    s      6.7617 *    -6.4011 *     4.1472 *  0.0000     2          
   343  O     s      9.0156 *    -4.1472 *    -2.6145 *  0.0000     2          
   344  O     s      9.0156 *     4.8684 *     1.8933 *  0.0000     2          
   345  Cl    s      6.7617 *    -6.4011 *    -4.8684 *  0.0000     2          
   346  O     s     -4.5078 *     9.3762 *     1.8933 *  0.0000     2          
   347  O     s      9.0156 *     4.8684 *    -2.6145 *  0.0000     2          
   348  Cl    s      6.7617 *     7.1223 *     4.1472 *  0.0000     2          
   349  O     s     -4.5078 *     9.3762 *    -2.6145 *  0.0000     2          
   350  O     s      0.0000      -8.6550 *     6.4011 *  0.0000     1          
   351  O     s      0.0000       0.3606 *    10.9088 *  0.0000     1          
   352  Cl    s      6.7617 *     7.1223 *    -4.8684 *  0.0000     2          
   353  Cl    s      2.2539 *    -6.4011 *     8.6550 *  0.0000     2          
   354  O     s      9.0156 *     0.3606 *     6.4011 *  0.0000     2          
   355  Cl    s      2.2539 *   -10.9088 *    -0.3606 *  0.0000     2          
   356  Cl    s      6.7617 *    -1.8933 *     8.6550 *  0.0000     2          
   357  O     s      0.0000      -8.6550 *    -7.1223 *  0.0000     1          
   358  Cl    s      6.7617 *     2.6145 *     8.6550 *  0.0000     2          
   359  O     s      0.0000       9.3762 *     6.4011 *  0.0000     1          
   360  Cl    s      2.2539 *     7.1223 *     8.6550 *  0.0000     2          
   361  Cl    s     11.2695 *    -1.8933 *    -0.3606 *  0.0000     2          
   362  O     s      9.0156 *     0.3606 *    -7.1223 *  0.0000     2          
   363  Cl    s      2.2539 *    -6.4011 *    -9.3762 *  0.0000     2          
   364  Cl    s     11.2695 *     2.6145 *    -0.3606 *  0.0000     2          
   365  O     s      0.0000       0.3606 *   -11.6301 *  0.0000     1          
   366  O     s      0.0000      -4.1472 *    10.9088 *  0.0000     1          
   367  O     s     -4.5078 *    -8.6550 *     6.4011 *  0.0000     2          
   368  Cl    s      6.7617 *    -1.8933 *    -9.3762 *  0.0000     2          
   369  O     s      0.0000       9.3762 *    -7.1223 *  0.0000     1          
   370  O     s      4.5078 *     0.3606 *    10.9088 *  0.0000     2          
   371  O     s      9.0156 *    -4.1472 *     6.4011 *  0.0000     2          
   372  Cl    s      6.7617 *     2.6145 *    -9.3762 *  0.0000     2          
   373  Cl    s      2.2539 *    11.6301 *    -0.3606 *  0.0000     2          
   374  Cl    s      2.2539 *   -10.9088 *     4.1472 *  0.0000     2          
   375  O     s      0.0000       4.8684 *    10.9088 *  0.0000     1          
   376  Cl    s      2.2539 *     7.1223 *    -9.3762 *  0.0000     2          
   377  O     s      9.0156 *     4.8684 *     6.4011 *  0.0000     2          
   378  O     s     -4.5078 *    -8.6550 *    -7.1223 *  0.0000     2          
   379  Cl    s      2.2539 *   -10.9088 *    -4.8684 *  0.0000     2          
   380  Cl    s     11.2695 *    -1.8933 *     4.1472 *  0.0000     2          
   381  O     s     -4.5078 *     9.3762 *     6.4011 *  0.0000     2          
   382  O     s      9.0156 *    -4.1472 *    -7.1223 *  0.0000     2          
   383  Cl    s     11.2695 *     2.6145 *     4.1472 *  0.0000     2          
   384  O     s      0.0000      -4.1472 *   -11.6301 *  0.0000     1          
   385  Cl    s     11.2695 *    -1.8933 *    -4.8684 *  0.0000     2          
   386  O     s      4.5078 *     0.3606 *   -11.6301 *  0.0000     2          
   387  O     s      9.0156 *     4.8684 *    -7.1223 *  0.0000     2          
   388  O     s      4.5078 *    -4.1472 *    10.9088 *  0.0000     2          
   389  Cl    s     11.2695 *     2.6145 *    -4.8684 *  0.0000     2          
   390  Cl    s      2.2539 *    11.6301 *     4.1472 *  0.0000     2          
   391  O     s     -4.5078 *     9.3762 *    -7.1223 *  0.0000     2          
   392  O     s      0.0000       4.8684 *   -11.6301 *  0.0000     1          
   393  O     s      9.0156 *    -8.6550 *     1.8933 *  0.0000     2          
   394  Cl    s      6.7617 *    -6.4011 *     8.6550 *  0.0000     2          
   395  O     s      4.5078 *     4.8684 *    10.9088 *  0.0000     2          
   396  O     s      9.0156 *    -8.6550 *    -2.6145 *  0.0000     2          
   397  Cl    s      2.2539 *    11.6301 *    -4.8684 *  0.0000     2          
   398  Cl    s      6.7617 *   -10.9088 *    -0.3606 *  0.0000     2          
   399  Cl    s     11.2695 *    -6.4011 *    -0.3606 *  0.0000     2          
--------------------------------------------------------------------------------

  Components of defect energy : 

--------------------------------------------------------------------------------
  Region 1 - region 1                   =     26.77310967 eV
  Region 1 - region 2a (unrelaxed)      =    -18.27165923 eV
  Region 1 - 2a (relaxed - correction)  =     -0.42271086 eV
  Region 1 (Total)                      =      8.07873958 eV
  Region 2a                             =      0.21128181 eV
  Region 2b                             =     -0.33079026 eV
--------------------------------------------------------------------------------
  Total defect energy                   =      7.95923113 eV
--------------------------------------------------------------------------------

  Largest displacement in region 2 =   0.0220 Angstroms


  Number of variables =     1094

  Maximum number of calculations  =        1000
  Maximum Hessian update interval =          10
  Maximum step size               =   1.0000000
  Maximum parameter tolerance     =   0.0000100
  Maximum function  tolerance     =   0.0000100
  Maximum gradient  tolerance     =   0.0010000

  Symmetry adapted optimisation

  Symmetry to be used for second derivatives

  Newton-Raphson optimiser to be used

  BFGS hessian update to be used

  Lower half triangular hessian to be used

  Start of defect optimisation :

  Cycle:      0 Defect Energy:   7.959231  Gnorm:     0.015069  CPU:   10.191
  ** Hessian calculated **
  Cycle:      1 Defect Energy:   7.425724  Gnorm:     0.013541  CPU:   27.375
  ** Hessian calculated **
  Cycle:      2 Defect Energy:   5.888650  Gnorm:     0.004390  CPU:   45.385
  Cycle:      3 Defect Energy:   5.659028  Gnorm:     0.003882  CPU:   55.389
  Cycle:      4 Defect Energy:   5.518908  Gnorm:     0.002787  CPU:   66.410
  Cycle:      5 Defect Energy:   5.472731  Gnorm:     0.002418  CPU:   68.642
  Cycle:      6 Defect Energy:   5.407574  Gnorm:     0.002163  CPU:   70.907
  Cycle:      7 Defect Energy:   5.320475  Gnorm:     0.001986  CPU:   73.115
  Cycle:      8 Defect Energy:   5.218764  Gnorm:     0.001985  CPU:   74.877
  Cycle:      9 Defect Energy:   5.137378  Gnorm:     0.001941  CPU:   81.310
  Cycle:     10 Defect Energy:   5.071144  Gnorm:     0.002047  CPU:   83.974
  Cycle:     11 Defect Energy:   5.009947  Gnorm:     0.002082  CPU:   86.713
  ** Hessian calculated **
  Cycle:     12 Defect Energy:   4.942989  Gnorm:     0.001984  CPU:   92.940
  Cycle:     13 Defect Energy:   4.885871  Gnorm:     0.001882  CPU:   95.439
  Cycle:     14 Defect Energy:   4.638302  Gnorm:     0.001128  CPU:   97.718
  Cycle:     15 Defect Energy:   4.588572  Gnorm:     0.000853  CPU:  100.129
  Cycle:     16 Defect Energy:   4.524506  Gnorm:     0.000478  CPU:  102.374
  ** Hessian calculated **
  Cycle:     17 Defect Energy:   4.506013  Gnorm:     0.000351  CPU:  108.079
  Cycle:     18 Defect Energy:   4.492137  Gnorm:     0.000430  CPU:  110.254
  Cycle:     19 Defect Energy:   4.466206  Gnorm:     0.000609  CPU:  116.598
  Cycle:     20 Defect Energy:   4.454931  Gnorm:     0.000405  CPU:  119.289
  Cycle:     21 Defect Energy:   4.444946  Gnorm:     0.000387  CPU:  122.044
  Cycle:     22 Defect Energy:   4.437052  Gnorm:     0.000277  CPU:  124.736
  Cycle:     23 Defect Energy:   4.431538  Gnorm:     0.000227  CPU:  127.353
  Cycle:     24 Defect Energy:   4.429198  Gnorm:     0.000151  CPU:  129.862
  Cycle:     25 Defect Energy:   4.428205  Gnorm:     0.000130  CPU:  132.396
  Cycle:     26 Defect Energy:   4.427521  Gnorm:     0.000129  CPU:  134.751
  ** Hessian calculated **
  Cycle:     27 Defect Energy:   4.426227  Gnorm:     0.000106  CPU:  140.533
  Cycle:     28 Defect Energy:   4.425545  Gnorm:     0.000070  CPU:  142.685
  Cycle:     29 Defect Energy:   4.425303  Gnorm:     0.000045  CPU:  144.871
  Cycle:     30 Defect Energy:   4.425192  Gnorm:     0.000033  CPU:  147.178
  Cycle:     31 Defect Energy:   4.425133  Gnorm:     0.000019  CPU:  153.383
  Cycle:     32 Defect Energy:   4.425110  Gnorm:     0.000014  CPU:  156.063


  **** Optimisation achieved ****


  Final defect energy  =        4.42510059
  Final defect Gnorm   =        0.00000911

  Components of defect energy : 

--------------------------------------------------------------------------------
  Region 1 - region 1                   =     22.64446690 eV
  Region 1 - region 2a (unrelaxed)      =    -17.71085440 eV
  Region 1 - 2a (relaxed - correction)  =     -0.35932914 eV
  Region 1 (Total)                      =      4.57428337 eV
  Region 2a                             =      0.17959471 eV
  Region 2b                             =     -0.32877748 eV
--------------------------------------------------------------------------------
  Total defect energy                   =      4.42510059 eV
--------------------------------------------------------------------------------

  Largest displacement in region 2 =   0.0220 Angstroms

  Final coordinates of region 1 :

--------------------------------------------------------------------------------
   No.  Atomic        x           y           z          Radius      Charge
        Label       (Angs)      (Angs)      (Angs)       (Angs)       (e) 
--------------------------------------------------------------------------------
     1  Na    c     2.253894    1.893271    0.360623    0.000000    1.000000
     2  O     c     2.253894    2.369764    2.457179    0.000000    0.183000
     3  O     c     2.253894    2.231029   -2.094799    0.000000    0.183000
     4  Na    c     4.455215    1.915968    2.395872    0.000000    1.000000
     5  Na    c     0.052572    1.915968    2.395872    0.000000    1.000000
     6  Cl    c     4.639902    0.017150   -0.032752    0.000000    1.485000
     7  Cl    c    -0.132114    0.017150   -0.032752    0.000000    1.485000
     8  Na    c     2.253894    4.559264    2.558898    0.000000    1.000000
     9  Na    c     2.253894    0.015044   -2.503557    0.000000    1.000000
    10  Cl    c     4.615171    4.628552   -0.056178    0.000000    1.485000
    11  Cl    c    -0.107384    4.628552   -0.056178    0.000000    1.485000
    12  Na    c     4.496139    2.215705   -1.996012    0.000000    1.000000
    13  Na    c     0.011648    2.215705   -1.996012    0.000000    1.000000
    14  Na    c     2.253894    4.458443   -1.809980    0.000000    1.000000
    15  Na    c     2.253894    1.699024    4.545812    0.000000    1.000000
    16  Na    c     2.253894   -1.811555    0.101986    0.000000    1.000000
    17  Na    c    -2.346119    2.292289    0.035042    0.000000    1.000000
    18  Na    c     6.853906    2.292289    0.035042    0.000000    1.000000
    19  O     c     2.253894   -2.308722    2.270277    0.000000    0.183000
    20  Na    c     2.253894    2.585271   -4.405987    0.000000    1.000000
    21  Na    c     2.253894    6.781723    0.038075    0.000000    1.000000
    22  O     c    -2.242996    2.238318    2.289661    0.000000    0.183000
    23  O     c     6.750784    2.238318    2.289661    0.000000    0.183000
    24  O     c     2.253894   -2.235268   -2.192044    0.000000    0.183000
    25  Na    c     4.434426   -1.825814    2.289520    0.000000    1.000000
    26  Na    c     0.073361   -1.825814    2.289520    0.000000    1.000000
    27  Cl    c     4.628441   -0.003611    4.673002    0.000000    1.485000
    28  Cl    c    -0.120654   -0.003611    4.673002    0.000000    1.485000
    29  O     c     2.253894    6.828253    2.290094    0.000000    0.183000
    30  O     c    -2.246057    2.267881   -2.232055    0.000000    0.183000
    31  O     c     6.753844    2.267881   -2.232055    0.000000    0.183000
    32  Na    c    -2.576442    0.001253    2.070353    0.000000    1.000000
    33  Na    c     7.084229    0.001253    2.070353    0.000000    1.000000
    34  Cl    c     4.610190    4.637306    4.619251    0.000000    1.485000
    35  Cl    c    -0.102402    4.637306    4.619251    0.000000    1.485000
    36  Na    c     4.498600   -2.217047   -2.210431    0.000000    1.000000
    37  Na    c     0.009187   -2.217047   -2.210431    0.000000    1.000000
    38  O     c     2.253894    6.708910   -2.217557    0.000000    0.183000
    39  Na    c    -1.870960    4.485043    2.322127    0.000000    1.000000
    40  Na    c     6.378747    4.485043    2.322127    0.000000    1.000000
    41  Na    c    -2.260697    0.003319   -2.193117    0.000000    1.000000
    42  Na    c     6.768484    0.003319   -2.193117    0.000000    1.000000
    43  Cl    c     4.531196   -0.004599   -4.495201    0.000000    1.485000
    44  Cl    c    -0.023409   -0.004599   -4.495201    0.000000    1.485000
    45  Na    c     4.509703    6.922881    2.219680    0.000000    1.000000
    46  Na    c    -0.001916    6.922881    2.219680    0.000000    1.000000
    47  Na    c    -2.252129    4.510915   -2.098002    0.000000    1.000000
    48  Na    c     6.759916    4.510915   -2.098002    0.000000    1.000000
    49  Na    c     2.253894   -1.873858    4.451894    0.000000    1.000000
    50  Cl    c     4.521133    4.524623   -4.536337    0.000000    1.485000
    51  Cl    c    -0.013345    4.524623   -4.536337    0.000000    1.485000
    52  Na    c     4.511657    6.705320   -2.216859    0.000000    1.000000
    53  Na    c    -0.003870    6.705320   -2.216859    0.000000    1.000000
    54  Na    c    -2.262314    2.004191    4.535949    0.000000    1.000000
    55  Na    c     6.770101    2.004191    4.535949    0.000000    1.000000
    56  Na    c    -2.154016   -2.392594    0.019881    0.000000    1.000000
    57  Na    c     6.661803   -2.392594    0.019881    0.000000    1.000000
    58  Na    c     2.253894    7.098578    4.537519    0.000000    1.000000
    59  Na    c     2.253894   -2.628107   -4.452577    0.000000    1.000000
    60  O     c     2.253894    2.254180    6.773003    0.000000    0.183000
    61  O     c    -2.223416   -2.227593    2.273129    0.000000    0.183000
    62  O     c     6.731203   -2.227593    2.273129    0.000000    0.183000
    63  Na    c    -2.025582    2.373573   -4.480757    0.000000    1.000000
    64  Na    c     6.533369    2.373573   -4.480757    0.000000    1.000000
    65  Na    c    -2.300701    6.782554    0.002100    0.000000    1.000000
    66  Na    c     6.808488    6.782554    0.002100    0.000000    1.000000
    67  O     c    -2.248418   -2.261949   -2.241291    0.000000    0.183000
    68  O     c     6.756205   -2.261949   -2.241291    0.000000    0.183000
    69  Na    c     2.253894   -4.502836    2.216737    0.000000    1.000000
    70  Na    c     2.253894    0.005534    7.181658    0.000000    1.000000
    71  Cl    c     4.620381   -4.601478   -0.076470    0.000000    1.485000
    72  Cl    c    -0.112594   -4.601478   -0.076470    0.000000    1.485000
    73  Na    c     4.509879    2.339285    6.733946    0.000000    1.000000
    74  Na    c    -0.002092    2.339285    6.733946    0.000000    1.000000
    75  Na    c     2.253894    6.448020   -4.471094    0.000000    1.000000
    76  O     c    -2.255367    6.744282    2.267196    0.000000    0.183000
    77  O     c     6.763154    6.744282    2.267196    0.000000    0.183000
    78  Na    c     2.253894    4.485030    6.296645    0.000000    1.000000
    79  Na    c     2.253894   -4.480062   -1.804258    0.000000    1.000000
    80  Na    c     8.994357    2.626725    2.384811    0.000000    1.000000
    81  Na    c    -4.486569    2.626725    2.384811    0.000000    1.000000
    82  Cl    c     9.048229    0.017623   -0.050930    0.000000    1.485000
    83  Cl    c    -4.540442    0.017623   -0.050930    0.000000    1.485000
    84  O     c     2.253894    2.234537   -6.701672    0.000000    0.183000
    85  O     c    -2.264564    6.759592   -2.274311    0.000000    0.183000
    86  O     c     6.772352    6.759592   -2.274311    0.000000    0.183000
    87  Cl    c     9.024820    4.504124   -0.004966    0.000000    1.485000
    88  Cl    c    -4.517032    4.504124   -0.004966    0.000000    1.485000
    89  Na    c     8.998238    2.244476   -2.456084    0.000000    1.000000
    90  Na    c    -4.490451    2.244476   -2.456084    0.000000    1.000000
    91  Na    c     2.253894    9.055189    2.088264    0.000000    1.000000
    92  Na    c     2.253894   -0.003953   -6.324153    0.000000    1.000000
    93  Na    c     6.802732   -1.990347    4.523381    0.000000    1.000000
    94  Na    c    -2.294945   -1.990347    4.523381    0.000000    1.000000
    95  Cl    c     4.456033    9.036424    0.030866    0.000000    1.485000
    96  Cl    c     0.051754    9.036424    0.030866    0.000000    1.485000
    97  Na    c     4.500496    2.178032   -6.789488    0.000000    1.000000
    98  Na    c     0.007292    2.178032   -6.789488    0.000000    1.000000
    99  Na    c     2.253894    8.981611   -2.327162    0.000000    1.000000
   100  Na    c     2.253894    4.485679   -7.005287    0.000000    1.000000
   101  O     c     2.253894   -2.229069    6.739565    0.000000    0.183000
   102  Na    c     6.651006    6.850705    4.517103    0.000000    1.000000
   103  Na    c    -2.143219    6.850705    4.517103    0.000000    1.000000
   104  Na    c     6.739810   -2.263771   -4.487955    0.000000    1.000000
   105  Na    c    -2.232023   -2.263771   -4.487955    0.000000    1.000000
   106  O     c    -2.263412    2.256207    6.785105    0.000000    0.183000
   107  O     c     6.771199    2.256207    6.785105    0.000000    0.183000
   108  Cl    c     4.562441   -4.627957    4.634231    0.000000    1.485000
   109  Cl    c    -0.054654   -4.627957    4.634231    0.000000    1.485000
   110  Na    c     4.505177   -2.298167    6.666948    0.000000    1.000000
   111  Na    c     0.002610   -2.298167    6.666948    0.000000    1.000000
   112  O     c     2.253894    6.731037    6.770697    0.000000    0.183000
   113  Na    c    -1.880874   -4.467449    2.433856    0.000000    1.000000
   114  Na    c     6.388662   -4.467449    2.433856    0.000000    1.000000
   115  Na    c     6.613598    0.006388    7.042586    0.000000    1.000000
   116  Na    c    -2.105810    0.006388    7.042586    0.000000    1.000000
   117  Cl    c     9.039971    0.024669    4.513519    0.000000    1.485000
   118  Cl    c    -4.532184    0.024669    4.513519    0.000000    1.485000
   119  Na    c     8.976326   -2.602917    2.245434    0.000000    1.000000
   120  Na    c    -4.468538   -2.602917    2.245434    0.000000    1.000000
   121  Na    c     6.746682    6.512936   -4.519836    0.000000    1.000000
   122  Na    c    -2.238894    6.512936   -4.519836    0.000000    1.000000
   123  O     c     2.253894   -2.241938   -6.714404    0.000000    0.183000
   124  Na    c    -2.380530    4.503265    6.525249    0.000000    1.000000
   125  Na    c     6.888317    4.503265    6.525249    0.000000    1.000000
   126  Na    c    -2.212604   -4.511537   -2.327361    0.000000    1.000000
   127  Na    c     6.720391   -4.511537   -2.327361    0.000000    1.000000
   128  Cl    c     4.559286   -4.507978   -4.531333    0.000000    1.485000
   129  Cl    c    -0.051499   -4.507978   -4.531333    0.000000    1.485000
   130  Na    c     4.514674    6.613202    6.818312    0.000000    1.000000
   131  Na    c    -0.006886    6.613202    6.818312    0.000000    1.000000
   132  Cl    c     9.081412    4.520748    4.560322    0.000000    1.485000
   133  Cl    c    -4.573624    4.520748    4.560322    0.000000    1.485000
   134  Na    c     9.007434   -2.276163   -2.206757    0.000000    1.000000
   135  Na    c    -4.499647   -2.276163   -2.206757    0.000000    1.000000
   136  O     c    -2.252077    2.252727   -6.743342    0.000000    0.183000
   137  O     c     6.759864    2.252727   -6.743342    0.000000    0.183000
   138  Cl    c     4.518996    9.061861    4.490876    0.000000    1.485000
   139  Cl    c    -0.011208    9.061861    4.490876    0.000000    1.485000
   140  Cl    c     9.058085   -0.006638   -4.518841    0.000000    1.485000
   141  Cl    c    -4.550298   -0.006638   -4.518841    0.000000    1.485000
   142  Na    c     4.510168   -2.162446   -6.732936    0.000000    1.000000
   143  Na    c    -0.002381   -2.162446   -6.732936    0.000000    1.000000
   144  Na    c     9.006896    6.427590    2.337054    0.000000    1.000000
   145  Na    c    -4.499108    6.427590    2.337054    0.000000    1.000000
   146  O     c     2.253894    6.747751   -6.738493    0.000000    0.183000
   147  Na    c     7.004247    8.992021    2.264479    0.000000    1.000000
   148  Na    c    -2.496460    8.992021    2.264479    0.000000    1.000000
   149  Na    c     6.902266    0.006487   -6.611087    0.000000    1.000000
   150  Na    c    -2.394479    0.006487   -6.611087    0.000000    1.000000
   151  Na    c     2.253894    2.584570    9.010056    0.000000    1.000000
   152  Na    c     2.253894   -6.997007   -0.002883    0.000000    1.000000
   153  Cl    c     9.047734    4.535155   -4.500661    0.000000    1.485000
   154  Cl    c    -4.539947    4.535155   -4.500661    0.000000    1.485000
   155  Na    c     9.014429    6.795798   -2.347203    0.000000    1.000000
   156  Na    c    -4.506642    6.795798   -2.347203    0.000000    1.000000
   157  Na    c     6.681735    4.497424   -6.981945    0.000000    1.000000
   158  Na    c    -2.173948    4.497424   -6.981945    0.000000    1.000000
   159  Na    c     6.749459    9.001226   -2.442006    0.000000    1.000000
   160  Na    c    -2.241672    9.001226   -2.442006    0.000000    1.000000
   161  O     c     6.765311   -2.243796    6.776948    0.000000    0.183000
   162  O     c    -2.257523   -2.243796    6.776948    0.000000    0.183000
   163  O     c     2.253894   -6.796636    2.234989    0.000000    0.183000
   164  Cl    c     4.516420    9.070015   -4.520663    0.000000    1.485000
   165  Cl    c    -0.008632    9.070015   -4.520663    0.000000    1.485000
   166  Na    c     4.501597    6.776963   -6.715607    0.000000    1.000000
   167  Na    c     0.006190    6.776963   -6.715607    0.000000    1.000000
   168  Na    c    11.051430    2.285163   -0.002492    0.000000    1.000000
   169  Na    c    -6.543643    2.285163   -0.002492    0.000000    1.000000
   170  O     c     2.253894   -6.733991   -2.237119    0.000000    0.183000
   171  Na    c     2.253894   -4.479376    6.465607    0.000000    1.000000
   172  Na    c     4.499457   -6.880945    2.175366    0.000000    1.000000
   173  Na    c     0.008330   -6.880945    2.175366    0.000000    1.000000
   174  Cl    c     4.519518   -0.004158    9.082008    0.000000    1.485000
   175  Cl    c    -0.011731   -0.004158    9.082008    0.000000    1.485000
   176  O     c    11.242756    2.268862    2.249931    0.000000    0.183000
   177  O     c    -6.734968    2.268862    2.249931    0.000000    0.183000
   178  O     c    -2.267072    6.761002    6.770263    0.000000    0.183000
   179  O     c     6.774859    6.761002    6.770263    0.000000    0.183000
   180  Cl    c     9.066658   -4.503512   -0.030634    0.000000    1.485000
   181  Cl    c    -4.558871   -4.503512   -0.030634    0.000000    1.485000
   182  Na    c     9.020016    2.100741    6.770923    0.000000    1.000000
   183  Na    c    -4.512229    2.100741    6.770923    0.000000    1.000000
   184  Cl    c     4.527291    4.538315    9.092051    0.000000    1.485000
   185  Cl    c    -0.019504    4.538315    9.092051    0.000000    1.485000
   186  Na    c     4.513880   -6.719414   -2.217997    0.000000    1.000000
   187  Na    c    -0.006093   -6.719414   -2.217997    0.000000    1.000000
   188  Na    c     2.253894    1.975589   -8.977956    0.000000    1.000000
   189  Na    c     2.253894   11.314135    0.001529    0.000000    1.000000
   190  O     c    11.259612    2.251015   -2.256493    0.000000    0.183000
   191  O     c    -6.751825    2.251015   -2.256493    0.000000    0.183000
[...]
    319 y          0.000000     -0.005442    -0.005442    Cartesian    0.00
    319 z         -4.507787     -4.523148    -0.015361    Cartesian    0.34
    320 x          2.253894      2.253894     0.000000    Cartesian    0.00
    320 y          6.761681      6.747765    -0.013916    Cartesian   -0.21
    320 z         -6.761681     -6.738522     0.023159    Cartesian   -0.34
    321 x          9.015574      9.049215     0.033641    Cartesian    0.37
    321 y          4.507787      4.537005     0.029218    Cartesian    0.65
    321 z         -4.507787     -4.500244     0.007543    Cartesian   -0.17
    322 x          6.761681      6.765307     0.003626    Cartesian    0.05
    322 y         -2.253894     -2.243787     0.010107    Cartesian   -0.45
    322 z          6.761681      6.776974     0.015293    Cartesian    0.23
    323 x          2.253894      2.253894     0.000000    Cartesian    0.00
    323 y         -6.761681     -6.796755    -0.035075    Cartesian    0.52
    323 z          2.253894      2.234968    -0.018925    Cartesian   -0.84
    324 x          4.507787      4.517633     0.009846    Cartesian    0.22
    324 y          9.015574      9.077260     0.061686    Cartesian    0.68
    324 z         -4.507787     -4.524397    -0.016610    Cartesian    0.37
    325 x          2.253894      2.253894     0.000000    Cartesian    0.00
    325 y         -6.761681     -6.734030     0.027651    Cartesian   -0.41
    325 z         -2.253894     -2.237053     0.016840    Cartesian   -0.75
    326 x          4.507787      4.520521     0.012734    Cartesian    0.28
    326 y          0.000000     -0.004064    -0.004064    Cartesian    0.00
    326 z          9.015574      9.082291     0.066717    Cartesian    0.74
    327 x         11.269468     11.242760    -0.026708    Cartesian   -0.24
    327 y          2.253894      2.268908     0.015015    Cartesian    0.67
    327 z          2.253894      2.249943    -0.003950    Cartesian   -0.18
    328 x         -2.253894     -2.267092    -0.013198    Cartesian    0.59
    328 y          6.761681      6.761016    -0.000665    Cartesian   -0.01
    328 z          6.761681      6.770246     0.008565    Cartesian    0.13
    329 x          9.015574      9.070288     0.054713    Cartesian    0.61
    329 y         -4.507787     -4.500375     0.007412    Cartesian   -0.16
    329 z          0.000000     -0.028877    -0.028877    Cartesian    0.00
    330 x          4.507787      4.524782     0.016995    Cartesian    0.38
    330 y          4.507787      4.541364     0.033577    Cartesian    0.74
    330 z          9.015574      9.096968     0.081393    Cartesian    0.90
    331 x         11.269468     11.259610    -0.009858    Cartesian   -0.09
    331 y          2.253894      2.251004    -0.002890    Cartesian   -0.13
    331 z         -2.253894     -2.256514    -0.002620    Cartesian    0.12
    332 x         -2.253894     -2.260294    -0.006401    Cartesian    0.28
    332 y         -2.253894     -2.244264     0.009629    Cartesian   -0.43
    332 z         -6.761681     -6.743727     0.017954    Cartesian   -0.27
    333 x          2.253894      2.253894     0.000000    Cartesian    0.00
    333 y         11.269468     11.274754     0.005286    Cartesian    0.05
    333 z          2.253894      2.262353     0.008460    Cartesian    0.38
    334 x          2.253894      2.253894     0.000000    Cartesian    0.00
    334 y         11.269468     11.266881    -0.002587    Cartesian   -0.02
    334 z         -2.253894     -2.253972    -0.000079    Cartesian    0.00
    335 x          6.761681      6.756684    -0.004997    Cartesian   -0.07
    335 y          6.761681      6.751294    -0.010387    Cartesian   -0.15
    335 z         -6.761681     -6.763366    -0.001685    Cartesian    0.02
    336 x          4.507787      4.507574    -0.000213    Cartesian   -0.00
    336 y          0.000000     -0.003964    -0.003964    Cartesian    0.00
    336 z         -9.015574     -9.045955    -0.030381    Cartesian    0.34
    337 x          9.015574      9.030357     0.014783    Cartesian    0.16
    337 y          9.015574      9.055529     0.039955    Cartesian    0.44
    337 z          0.000000      0.001952     0.001952    Cartesian    0.00
    338 x         -2.253894     -2.237937     0.015957    Cartesian   -0.71
    338 y         -6.761681     -6.725839     0.035842    Cartesian   -0.53
    338 z          2.253894      2.262396     0.008502    Cartesian    0.38
    339 x          4.507787      4.508683     0.000896    Cartesian    0.02
    339 y          4.507787      4.497376    -0.010411    Cartesian   -0.23
    339 z         -9.015574     -9.015339     0.000235    Cartesian   -0.00
    340 x         11.269468     11.232237    -0.037231    Cartesian   -0.33
    340 y         -2.253894     -2.252203     0.001691    Cartesian   -0.08
    340 z          2.253894      2.256297     0.002403    Cartesian    0.11
    341 x         -2.253894     -2.268405    -0.014512    Cartesian    0.64
    341 y         -6.761681     -6.761012     0.000669    Cartesian   -0.01
    341 z         -2.253894     -2.259093    -0.005199    Cartesian    0.23
    342 x          9.015574      9.087327     0.071753    Cartesian    0.80
    342 y         -4.507787     -4.507853    -0.000065    Cartesian    0.00
    342 z          4.507787      4.518065     0.010278    Cartesian    0.23
    343 x         11.269468     11.271026     0.001558    Cartesian    0.01
    343 y         -2.253894     -2.249007     0.004887    Cartesian   -0.22
    343 z         -2.253894     -2.243990     0.009903    Cartesian   -0.44
    344 x         11.269468     11.266353    -0.003115    Cartesian   -0.03
    344 y          6.761681      6.733719    -0.027961    Cartesian   -0.41
    344 z          2.253894      2.253340    -0.000553    Cartesian   -0.02
    345 x          9.015574      9.036758     0.021183    Cartesian    0.23
    345 y         -4.507787     -4.511880    -0.004092    Cartesian    0.09
    345 z         -4.507787     -4.521761    -0.013974    Cartesian    0.31
    346 x         -2.253894     -2.270719    -0.016826    Cartesian    0.75
    346 y         11.269468     11.250045    -0.019423    Cartesian   -0.17
    346 z          2.253894      2.252643    -0.001250    Cartesian   -0.06
    347 x         11.269468     11.263460    -0.006008    Cartesian   -0.05
    347 y          6.761681      6.763046     0.001365    Cartesian    0.02
    347 z         -2.253894     -2.253808     0.000085    Cartesian   -0.00
    348 x          9.015574      9.023753     0.008179    Cartesian    0.09
    348 y          9.015574      9.050805     0.035230    Cartesian    0.39
    348 z          4.507787      4.518460     0.010672    Cartesian    0.24
    349 x         -2.253894     -2.243086     0.010807    Cartesian   -0.48
    349 y         11.269468     11.258182    -0.011286    Cartesian   -0.10
    349 z         -2.253894     -2.258361    -0.004468    Cartesian    0.20
    350 x          2.253894      2.253894     0.000000    Cartesian    0.00
    350 y         -6.761681     -6.733444     0.028237    Cartesian   -0.42
    350 z          6.761681      6.753656    -0.008025    Cartesian   -0.12
    351 x          2.253894      2.253894     0.000000    Cartesian    0.00
    351 y          2.253894      2.268029     0.014135    Cartesian    0.63
    351 z         11.269468     11.260866    -0.008602    Cartesian   -0.08
    352 x          9.015574      9.038942     0.023368    Cartesian    0.26
    352 y          9.015574      9.027659     0.012085    Cartesian    0.13
    352 z         -4.507787     -4.506188     0.001599    Cartesian   -0.04
    353 x          4.507787      4.512102     0.004315    Cartesian    0.10
    353 y         -4.507787     -4.509157    -0.001370    Cartesian    0.03
    353 z          9.015574      9.076031     0.060456    Cartesian    0.67
    354 x         11.269468     11.275513     0.006045    Cartesian    0.05
    354 y          2.253894      2.252795    -0.001099    Cartesian   -0.05
    354 z          6.761681      6.762934     0.001253    Cartesian    0.02
    355 x          4.507787      4.499528    -0.008259    Cartesian   -0.18
    355 y         -9.015574     -9.024895    -0.009321    Cartesian    0.10
    355 z          0.000000      0.015686     0.015686    Cartesian    0.00
    356 x          9.015574      9.070654     0.055080    Cartesian    0.61
    356 y          0.000000      0.012492     0.012492    Cartesian    0.00
    356 z          9.015574      9.006315    -0.009259    Cartesian   -0.10
    357 x          2.253894      2.253894     0.000000    Cartesian    0.00
    357 y         -6.761681     -6.738028     0.023653    Cartesian   -0.35
    357 z         -6.761681     -6.765475    -0.003794    Cartesian    0.06
    358 x          9.015574      9.038460     0.022886    Cartesian    0.25
    358 y          4.507787      4.512603     0.004816    Cartesian    0.11
    358 z          9.015574      9.061911     0.046337    Cartesian    0.51
    359 x          2.253894      2.253894     0.000000    Cartesian    0.00
    359 y         11.269468     11.255399    -0.014069    Cartesian   -0.12
    359 z          6.761681      6.778012     0.016331    Cartesian    0.24
    360 x          4.507787      4.513422     0.005635    Cartesian    0.13
    360 y          9.015574      9.069433     0.053858    Cartesian    0.60
    360 z          9.015574      9.033243     0.017669    Cartesian    0.20
    361 x         13.523362     13.614765     0.091404    Cartesian    0.68
    361 y          0.000000      0.003571     0.003571    Cartesian    0.00
    361 z          0.000000      0.009893     0.009893    Cartesian    0.00
    362 x         11.269468     11.272190     0.002722    Cartesian    0.02
    362 y          2.253894      2.257277     0.003384    Cartesian    0.15
    362 z         -6.761681     -6.751930     0.009751    Cartesian   -0.14
    363 x          4.507787      4.504690    -0.003098    Cartesian   -0.07
    363 y         -4.507787     -4.529602    -0.021815    Cartesian    0.48
    363 z         -9.015574     -9.033892    -0.018318    Cartesian    0.20
    364 x         13.523362     13.561638     0.038277    Cartesian    0.28
    364 y          4.507787      4.523059     0.015272    Cartesian    0.34
    364 z          0.000000     -0.025375    -0.025375    Cartesian    0.00
    365 x          2.253894      2.253894     0.000000    Cartesian    0.00
    365 y          2.253894      2.238160    -0.015733    Cartesian   -0.70
    365 z        -11.269468    -11.245781     0.023687    Cartesian   -0.21
    366 x          2.253894      2.253894     0.000000    Cartesian    0.00
    366 y         -2.253894     -2.263739    -0.009846    Cartesian    0.44
    366 z         11.269468     11.258493    -0.010975    Cartesian   -0.10
    367 x         -2.253894     -2.265732    -0.011838    Cartesian    0.53
    367 y         -6.761681     -6.767932    -0.006251    Cartesian    0.09
    367 z          6.761681      6.760255    -0.001426    Cartesian   -0.02
    368 x          9.015574      9.018215     0.002641    Cartesian    0.03
    368 y          0.000000     -0.021567    -0.021567    Cartesian    0.00
    368 z         -9.015574     -9.040963    -0.025388    Cartesian    0.28
    369 x          2.253894      2.253894     0.000000    Cartesian    0.00
    369 y         11.269468     11.262282    -0.007186    Cartesian   -0.06
    369 z         -6.761681     -6.755985     0.005696    Cartesian   -0.08
    370 x          6.761681      6.762292     0.000611    Cartesian    0.01
    370 y          2.253894      2.269982     0.016088    Cartesian    0.71
    370 z         11.269468     11.268653    -0.000815    Cartesian   -0.01
    371 x         11.269468     11.272790     0.003322    Cartesian    0.03
    371 y         -2.253894     -2.232945     0.020948    Cartesian   -0.93
    371 z          6.761681      6.766293     0.004612    Cartesian    0.07
    372 x          9.015574      9.022109     0.006534    Cartesian    0.07
    372 y          4.507787      4.513282     0.005494    Cartesian    0.12
    372 z         -9.015574     -9.025790    -0.010215    Cartesian    0.11
    373 x          4.507787      4.526275     0.018487    Cartesian    0.41
    373 y         13.523362     13.561634     0.038272    Cartesian    0.28
    373 z          0.000000     -0.029137    -0.029137    Cartesian    0.00
    374 x          4.507787      4.495324    -0.012463    Cartesian   -0.28
    374 y         -9.015574     -9.043779    -0.028205    Cartesian    0.31
    374 z          4.507787      4.480818    -0.026969    Cartesian   -0.60
    375 x          2.253894      2.253894     0.000000    Cartesian    0.00
    375 y          6.761681      6.754881    -0.006800    Cartesian   -0.10
    375 z         11.269468     11.270186     0.000718    Cartesian    0.01
    376 x          4.507787      4.516424     0.008637    Cartesian    0.19
    376 y          9.015574      9.015400    -0.000174    Cartesian   -0.00
    376 z         -9.015574     -9.055000    -0.039425    Cartesian    0.44
    377 x         11.269468     11.268119    -0.001349    Cartesian   -0.01
    377 y          6.761681      6.773594     0.011913    Cartesian    0.18
    377 z          6.761681      6.762083     0.000402    Cartesian    0.01
    378 x         -2.253894     -2.251407     0.002486    Cartesian   -0.11
    378 y         -6.761681     -6.768941    -0.007260    Cartesian    0.11
    378 z         -6.761681     -6.762549    -0.000868    Cartesian    0.01
    379 x          4.507787      4.509826     0.002039    Cartesian    0.05
    379 y         -9.015574     -9.055495    -0.039920    Cartesian    0.44
    379 z         -4.507787     -4.530853    -0.023066    Cartesian    0.51
    380 x         13.523362     13.576746     0.053385    Cartesian    0.39
    380 y          0.000000     -0.000947    -0.000947    Cartesian    0.00
    380 z          4.507787      4.492275    -0.015512    Cartesian   -0.34
    381 x         -2.253894     -2.252403     0.001491    Cartesian   -0.07
    381 y         11.269468     11.268044    -0.001424    Cartesian   -0.01
    381 z          6.761681      6.769816     0.008135    Cartesian    0.12
    382 x         11.269468     11.266094    -0.003374    Cartesian   -0.03
    382 y         -2.253894     -2.259179    -0.005285    Cartesian    0.23
    382 z         -6.761681     -6.765698    -0.004017    Cartesian    0.06
    383 x         13.523362     13.530101     0.006740    Cartesian    0.05
    383 y          4.507787      4.523452     0.015665    Cartesian    0.35
    383 z          4.507787      4.535563     0.027776    Cartesian    0.62
    384 x          2.253894      2.253894     0.000000    Cartesian    0.00
    384 y         -2.253894     -2.244260     0.009634    Cartesian   -0.43
    384 z        -11.269468    -11.259827     0.009641    Cartesian   -0.09
    385 x         13.523362     13.542963     0.019601    Cartesian    0.14
    385 y          0.000000      0.003877     0.003877    Cartesian    0.00
    385 z         -4.507787     -4.507935    -0.000147    Cartesian    0.00
    386 x          6.761681      6.767671     0.005991    Cartesian    0.09
    386 y          2.253894      2.242813    -0.011081    Cartesian   -0.49
    386 z        -11.269468    -11.258427     0.011041    Cartesian   -0.10
    387 x         11.269468     11.276045     0.006577    Cartesian    0.06
    387 y          6.761681      6.764182     0.002501    Cartesian    0.04
    387 z         -6.761681     -6.764479    -0.002798    Cartesian    0.04
    388 x          6.761681      6.767528     0.005847    Cartesian    0.09
    388 y         -2.253894     -2.258302    -0.004409    Cartesian    0.20
    388 z         11.269468     11.263567    -0.005901    Cartesian   -0.05
    389 x         13.523362     13.530120     0.006758    Cartesian    0.05
    389 y          4.507787      4.513226     0.005439    Cartesian    0.12
    389 z         -4.507787     -4.552561    -0.044774    Cartesian    0.99
    390 x          4.507787      4.518794     0.011007    Cartesian    0.24
    390 y         13.523362     13.569970     0.046609    Cartesian    0.34
    390 z          4.507787      4.515569     0.007782    Cartesian    0.17
    391 x         -2.253894     -2.258220    -0.004326    Cartesian    0.19
    391 y         11.269468     11.274637     0.005169    Cartesian    0.05
    391 z         -6.761681     -6.755154     0.006527    Cartesian   -0.10
    392 x          2.253894      2.253894     0.000000    Cartesian    0.00
    392 y          6.761681      6.763114     0.001433    Cartesian    0.02
    392 z        -11.269468    -11.255011     0.014457    Cartesian   -0.13
    393 x         11.269468     11.275397     0.005929    Cartesian    0.05
    393 y         -6.761681     -6.745956     0.015725    Cartesian   -0.23
    393 z          2.253894      2.260831     0.006938    Cartesian    0.31
    394 x          9.015574      9.031333     0.015758    Cartesian    0.17
    394 y         -4.507787     -4.503810     0.003977    Cartesian   -0.09
    394 z          9.015574      9.057658     0.042084    Cartesian    0.47
    395 x          6.761681      6.763283     0.001602    Cartesian    0.02
    395 y          6.761681      6.762522     0.000842    Cartesian    0.01
    395 z         11.269468     11.277742     0.008274    Cartesian    0.07
    396 x         11.269468     11.271958     0.002490    Cartesian    0.02
    396 y         -6.761681     -6.764105    -0.002424    Cartesian    0.04
    396 z         -2.253894     -2.258215    -0.004321    Cartesian    0.19
    397 x          4.507787      4.504862    -0.002925    Cartesian   -0.06
    397 y         13.523362     13.542809     0.019447    Cartesian    0.14
    397 z         -4.507787     -4.523780    -0.015993    Cartesian    0.35
    398 x          9.015574      9.011434    -0.004141    Cartesian   -0.05
    398 y         -9.015574     -9.080556    -0.064981    Cartesian    0.72
    398 z          0.000000     -0.016438    -0.016438    Cartesian    0.00
    399 x         13.523362     13.529349     0.005987    Cartesian    0.04
    399 y         -4.507787     -4.526008    -0.018221    Cartesian    0.40
    399 z          0.000000      0.017420     0.017420    Cartesian    0.00
--------------------------------------------------------------------------------


  Time to end of optimisation  =      158.8153 seconds


  Peak dynamic memory used =     148.60 MB 


  Timing analysis for GULP :

--------------------------------------------------------------------------------
  Task / Subroutine                                          Time (Seconds)
--------------------------------------------------------------------------------
  Calculation of reciprocal space energy and derivatives          0.0006
  Calculation of reciprocal space energy using symmetry           0.0009
  Calculation of real space energy and derivatives                0.0036
  Calculation of real space energy using symmetry                 0.0087
  Calculation for region 1 energy and derivatives (2-b)          62.4187
  Calculation for region 2a energy                               91.8081
  Calculation for region 2b energy                                0.0124
  Calculation and manipulation of Hessian matrix                  0.1864
  Calculation of matrix inversion                                 4.0273
  Symmetry generation of equivalent positions                     0.0043
--------------------------------------------------------------------------------
  Total CPU time                                                158.8154
--------------------------------------------------------------------------------


  Dump file written as Na3OCl.grs


  Job Finished at 14:44.52  3rd December   2020                               

