********************************************************************************
*                       GENERAL UTILITY LATTICE PROGRAM                        *
*                                 Julian Gale                                  *
*                       Curtin Institute for Computation                       *
*                    School of Molecular and Life Sciences                     *
*                    Curtin University, Western Australia                      *
********************************************************************************
* Version = 5.2.0 * Last modified =  10th September 2020                       *
********************************************************************************
*  optimise     - perform optimisation run                                     *
*  conp         - constant pressure calculation                                *
*  property     - calculate properties for final geometry                      *
*  defect       - perform defect calculation after bulk run                    *
*  compare      - compare initial and final structures                         *
********************************************************************************

  Job Started  at 17:07.10  1st March      2021                               

  Number of CPUs =     1


  Total number of configurations input =      1

********************************************************************************
*  Input for Configuration =   1                                               *
********************************************************************************

  Formula = ClONa3                                                      

  Number of irreducible atoms/shells =       5


  Total number atoms/shells =       7

  Dimensionality = 3               :  Bulk   


  Symmetry :

  Crystal family                   :  Cubic       
  Crystal class  (Groth - 1921)    :  Cubic Hexakisoctahedral              

  Space group (centrosymmetric)    :  P M 3 M         

  Patterson group                  :  P m -3 m 

  Cartesian lattice vectors (Angstroms) :

        4.504000    0.000000    0.000000
        0.000000    4.504000    0.000000
        0.000000    0.000000    4.504000

  Cell parameters (Angstroms/Degrees):

  a =       4.5040    alpha =  90.0000
  b =       4.5040    beta  =  90.0000
  c =       4.5040    gamma =  90.0000

  Initial cell volume =          91.368216 Angs**3

  Temperature of configuration =   0.00     K 

  Pressure of configuration =         0.000 GPa 

  Fractional coordinates of asymmetric unit :

--------------------------------------------------------------------------------
   No.  Atomic       x           y          z         Charge      Occupancy
        Label      (Frac)      (Frac)     (Frac)        (e)         (Frac)  
--------------------------------------------------------------------------------
      1 Cl    c    0.000000    0.000000    0.000000     0.99600    1.000000    
      2 O     c    0.500000    0.500000    0.500000     1.44300    1.000000    
      3 Na    c    0.500000    0.500000    0.000000     1.00000    1.000000    
      4 Cl    s    0.000000    0.000000    0.000000    -1.99600    1.000000    
      5 O     s    0.500000    0.500000    0.500000    -3.44300    1.000000    
--------------------------------------------------------------------------------


  Constraints : 

--------------------------------------------------------------------------------
  Constraint no.      Unconstrained     Constrained    Coefficient    Offset
                         Variable         Variable
--------------------------------------------------------------------------------
           1              Strain 1        Strain 2       1.00000      0.0000
           2              Strain 1        Strain 3       1.00000      0.0000
--------------------------------------------------------------------------------


********************************************************************************
*  General input information                                                   *
********************************************************************************

  Species output for all configurations : 

--------------------------------------------------------------------------------
  Species    Type    Atomic    Atomic    Charge       Radii (Angs)     Library
                     Number     Mass       (e)     Cova   Ionic  VDW   Symbol
--------------------------------------------------------------------------------
    Na       Core       11      22.99   1.000000   0.970  0.000  2.300          
    O        Core        8      16.00   1.443000   0.730  0.000  1.360          
    O        Shell       8       0.00  -3.443000   0.730  0.000  1.360          
    Cl       Core       17      35.45   0.996000   0.990  0.000  1.650          
    Cl       Shell      17       0.00  -1.996000   0.990  0.000  1.650          
--------------------------------------------------------------------------------


  Lattice summation method               =    Ewald          (3-D)
                                         =    Parry          (2-D)
                                         =    Saunders et al (1-D)
  Accuracy factor for lattice sums       =   12.000


  Analytic derivatives to be used

  Time limit = Infinity

  Maximum range for interatomic potentials =    100000.000000 Angstroms

  General interatomic potentials :

--------------------------------------------------------------------------------
Atom  Types   Potential      Parameter       Value         Units   Cutoffs(Ang)
  1     2                                                            Min /  Max 
--------------------------------------------------------------------------------
O    c O    s Spring (c-s)  Spring k 2       20.486200    eV*Ang^-2 0.000  0.800
                            Spring k 4       0.0000000    eV*Ang^-4 
--------------------------------------------------------------------------------
Cl   c Cl   s Spring (c-s)  Spring k 2       10.001500    eV*Ang^-2 0.000  0.800
                            Spring k 4       0.0000000    eV*Ang^-4 
--------------------------------------------------------------------------------
Na   c Na   c Buckingham    Buckingham A     29281.710    eV        0.000 12.000
                            Buckingham rho  0.37200000E-01Ang       
                            Buckingham C     0.0000000    eV*Ang^6  
--------------------------------------------------------------------------------
Na   c O    s Buckingham    Buckingham A     602.40000    eV        0.000 12.000
                            Buckingham rho  0.34280000    Ang       
                            Buckingham C     0.0000000    eV*Ang^6  
--------------------------------------------------------------------------------
Na   c Cl   s Buckingham    Buckingham A     3515.6900    eV        0.000 12.000
                            Buckingham rho  0.27460000    Ang       
                            Buckingham C     0.0000000    eV*Ang^6  
--------------------------------------------------------------------------------
O    s O    s Buckingham    Buckingham A     25201.690    eV        0.000 12.000
                            Buckingham rho  0.16450000    Ang       
                            Buckingham C     13.190000    eV*Ang^6  
--------------------------------------------------------------------------------
O    s Cl   s Buckingham    Buckingham A     1105.8600    eV        0.000 12.000
                            Buckingham rho  0.31330000    Ang       
                            Buckingham C     62.200000    eV*Ang^6  
--------------------------------------------------------------------------------
Cl   s Cl   s Buckingham    Buckingham A     31408.750    eV        0.000 12.000
                            Buckingham rho  0.13660000    Ang       
                            Buckingham C     14.530000    eV*Ang^6  
--------------------------------------------------------------------------------

********************************************************************************
*  Output for configuration   1                                                *
********************************************************************************


  Components of energy : 

--------------------------------------------------------------------------------
  Interatomic potentials     =           5.33200327 eV    
  Monopole - monopole (real) =         -10.03624526 eV    
  Monopole - monopole (recip)=         -29.53581274 eV    
  Monopole - monopole (total)=         -39.57205800 eV    
--------------------------------------------------------------------------------
  Total lattice energy       =         -34.24005473 eV    
--------------------------------------------------------------------------------
  Total lattice energy       =           -3303.6419 kJ/(mole unit cells)
--------------------------------------------------------------------------------


  Number of variables =        1

  Maximum number of calculations  =          1000
  Maximum Hessian update interval =            10
  Maximum step size               =   1.000000000
  Maximum parameter tolerance     =   0.000010000
  Maximum function  tolerance     =   0.000010000
  Maximum gradient  tolerance     =   0.001000000
  Maximum gradient  component     =   0.010000000

  Symmetry constrained optimisation

  Symmetry used for second derivatives

  Cell parameters to be optimised using strains

  Newton-Raphson optimiser to be used

  BFGS hessian update to be used

  Lower half triangular hessian to be used

  Start of bulk optimisation :

  Cycle:      0 Energy:       -34.240055  Gnorm:      2.245244  CPU:    0.005
  ** Hessian calculated **
  Cycle:      1 Energy:       -34.252747  Gnorm:      0.013309  CPU:    0.007


  **** Optimisation achieved ****


  Final energy =     -34.25274716 eV
  Final Gnorm  =       0.00056121

  Components of energy : 

--------------------------------------------------------------------------------
  Interatomic potentials     =           5.76377683 eV    
  Monopole - monopole (real) =         -10.14897050 eV    
  Monopole - monopole (recip)=         -29.86755349 eV    
  Monopole - monopole (total)=         -40.01652399 eV    
--------------------------------------------------------------------------------
  Total lattice energy       =         -34.25274716 eV    
--------------------------------------------------------------------------------
  Total lattice energy       =           -3304.8665 kJ/(mole unit cells)
--------------------------------------------------------------------------------

  Final asymmetric unit coordinates :

--------------------------------------------------------------------------------
   No.  Atomic        x           y           z         Radius
        Label       (Frac)      (Frac)      (Frac)       (Angs) 
--------------------------------------------------------------------------------
     1  Cl    c     0.000000    0.000000    0.000000    0.000000
     2  O     c     0.500000    0.500000    0.500000    0.000000
     3  Na    c     0.500000    0.500000    0.000000    0.000000
     4  Cl    s     0.000000    0.000000    0.000000    0.000000
     5  O     s     0.500000    0.500000    0.500000    0.000000
--------------------------------------------------------------------------------

  Final Cartesian lattice vectors (Angstroms) :

        4.453974    0.000000    0.000000
        0.000000    4.453974    0.000000
        0.000000    0.000000    4.453974


  Final cell parameters and derivatives :

--------------------------------------------------------------------------------
       a            4.453974 Angstrom     dE/de1(xx)     0.000561 eV/strain
       b            4.453974 Angstrom     dE/de2(yy)     0.000000 eV/strain
       c            4.453974 Angstrom     dE/de3(zz)     0.000000 eV/strain
       alpha       90.000000 Degrees      dE/de4(yz)     0.000000 eV/strain
       beta        90.000000 Degrees      dE/de5(xz)     0.000000 eV/strain
       gamma       90.000000 Degrees      dE/de6(xy)     0.000000 eV/strain
--------------------------------------------------------------------------------

  Primitive cell volume =            88.357409 Angs**3

  Density of cell =      2.263141 g/cm**3

  Non-primitive cell volume =            88.357409 Angs**3


  Final internal derivatives :

--------------------------------------------------------------------------------
   No.  Atomic          a             b             c           Radius
        Label          (eV)          (eV)          (eV)        (eV/Angs)
--------------------------------------------------------------------------------
      1 Cl    c       0.000000      0.000000      0.000000      0.000000
      2 O     c       0.000000      0.000000      0.000000      0.000000
      3 Na    c       0.000000      0.000000      0.000000      0.000000
      4 Cl    s       0.000000      0.000000      0.000000      0.000000
      5 O     s       0.000000      0.000000      0.000000      0.000000
--------------------------------------------------------------------------------
  Maximum abs         0.000000      0.000000      0.000000      0.000000
--------------------------------------------------------------------------------

  Comparison of initial and final structures : 

--------------------------------------------------------------------------------
  Parameter   Initial value   Final value   Difference    Units      Percent
--------------------------------------------------------------------------------
    Volume        91.368216     88.357409    -3.010807    Angs**3     -3.30
    a              4.504000      4.453974    -0.050026    Angstroms   -1.11
    b              4.504000      4.453974    -0.050026    Angstroms   -1.11
    c              4.504000      4.453974    -0.050026    Angstroms   -1.11
    alpha         90.000000     90.000000     0.000000    Degrees      0.00
    beta          90.000000     90.000000     0.000000    Degrees      0.00
    gamma         90.000000     90.000000     0.000000    Degrees      0.00
      1 x          0.000000      0.000000     0.000000    Fractional   0.00
      1 y          0.000000      0.000000     0.000000    Fractional   0.00
      1 z          0.000000      0.000000     0.000000    Fractional   0.00
      2 x          0.500000      0.500000     0.000000    Fractional   0.00
      2 y          0.500000      0.500000     0.000000    Fractional   0.00
      2 z          0.500000      0.500000     0.000000    Fractional   0.00
      3 x          0.500000      0.500000     0.000000    Fractional   0.00
      3 y          0.500000      0.500000     0.000000    Fractional   0.00
      3 z          0.000000      0.000000     0.000000    Fractional   0.00
      4 x          0.000000      0.000000     0.000000    Fractional   0.00
      4 y          0.000000      0.000000     0.000000    Fractional   0.00
      4 z          0.000000      0.000000     0.000000    Fractional   0.00
      5 x          0.500000      0.500000     0.000000    Fractional   0.00
      5 y          0.500000      0.500000     0.000000    Fractional   0.00
      5 z          0.500000      0.500000     0.000000    Fractional   0.00
--------------------------------------------------------------------------------


  Born effective charge tensors : 

-------------------------------------------------------------------------------
  Atom             x           y             z
-------------------------------------------------------------------------------
    1 Cl    x      -1.4271      0.0000      0.0000
            y       0.0000     -1.4271      0.0000
            z       0.0000      0.0000     -1.4271
-------------------------------------------------------------------------------
    2 O     x      -1.6137     -0.0000     -0.0000
            y      -0.0000     -1.6137     -0.0000
            z      -0.0000     -0.0000     -1.6137
-------------------------------------------------------------------------------
    3 Na    x       0.8295     -0.0000     -0.0000
            y      -0.0000      0.8295      0.0000
            z      -0.0000      0.0000      1.3817
-------------------------------------------------------------------------------




  Elastic Constant Matrix: (Units=GPa)

-------------------------------------------------------------------------------
  Indices      1         2         3         4         5         6    
-------------------------------------------------------------------------------
       1     82.8226   21.5342   21.5342    0.0000   -0.0000   -0.0000
       2     21.5342   82.8226   21.5342   -0.0000    0.0000   -0.0000
       3     21.5342   21.5342   82.8226    0.0000    0.0000   -0.0000
       4      0.0000   -0.0000    0.0000   21.5346   -0.0000    0.0000
       5     -0.0000    0.0000    0.0000   -0.0000   21.5346    0.0000
       6     -0.0000   -0.0000   -0.0000    0.0000    0.0000   21.5346
-------------------------------------------------------------------------------


  Elastic Compliance Matrix: (Units=1/GPa)

-------------------------------------------------------------------------------
  Indices      1         2         3         4         5         6    
-------------------------------------------------------------------------------
       1    0.013525 -0.002791 -0.002791 -0.000000  0.000000  0.000000
       2   -0.002791  0.013525 -0.002791  0.000000 -0.000000  0.000000
       3   -0.002791 -0.002791  0.013525 -0.000000 -0.000000  0.000000
       4   -0.000000  0.000000 -0.000000  0.046437  0.000000 -0.000000
       5    0.000000 -0.000000 -0.000000  0.000000  0.046437 -0.000000
       6    0.000000  0.000000  0.000000 -0.000000 -0.000000  0.046437
-------------------------------------------------------------------------------

  Mechanical properties :

-------------------------------------------------------------------------------
  Convention :                    Reuss         Voigt         Hill
-------------------------------------------------------------------------------
  Bulk  Modulus (GPa)     =      41.96371      41.96371      41.96371
  Shear Modulus (GPa)     =      24.44079      25.17843      24.80961
-------------------------------------------------------------------------------
  Velocity S-wave (km/s)  =       3.28626       3.33548       3.31096
  Velocity P-wave (km/s)  =       5.73948       5.77721       5.75837
-------------------------------------------------------------------------------
  Compressibility (1/GPa) =    0.02383011
-------------------------------------------------------------------------------
  Stress axis :                     x             y             z
-------------------------------------------------------------------------------
  Youngs Moduli (GPa)     =      73.93539      73.93539      73.93539
-------------------------------------------------------------------------------
  Poissons Ratio (x)      =                     0.20635       0.20635
  Poissons Ratio (y)      =       0.20635                     0.20635
  Poissons Ratio (z)      =       0.20635       0.20635
-------------------------------------------------------------------------------


  Piezoelectric Strain Matrix: (Units=C/m**2)

-------------------------------------------------------------------------------
  Indices      1         2         3         4         5         6    
-------------------------------------------------------------------------------
       x     0.00000  -0.00000   0.00000   0.00000  -0.00000  -0.00000
       y    -0.00000  -0.00000  -0.00000  -0.00000   0.00000   0.00000
       z    -0.00000  -0.00000   0.00000   0.00000   0.00000   0.00000
-------------------------------------------------------------------------------


  Piezoelectric Stress Matrix: (Units=10**-11 C/N)

-------------------------------------------------------------------------------
  Indices      1         2         3         4         5         6    
-------------------------------------------------------------------------------
       x     0.00000  -0.00000  -0.00000   0.00000  -0.00000  -0.00000
       y    -0.00000   0.00000   0.00000  -0.00000   0.00000   0.00000
       z    -0.00000  -0.00000   0.00000   0.00000   0.00000   0.00000
-------------------------------------------------------------------------------


  Static dielectric constant tensor : 

-------------------------------------------------------------------------------
              x         y         z
-------------------------------------------------------------------------------
       x    28.60451  -0.00000  -0.00000
       y    -0.00000  28.60451  -0.00000
       z    -0.00000  -0.00000  28.60451
--------------------------------------------------------------------------------

  High frequency dielectric constant tensor : 

-------------------------------------------------------------------------------
              x         y         z
-------------------------------------------------------------------------------
       x     3.92296  -0.00000  -0.00000
       y    -0.00000   3.92296   0.00000
       z    -0.00000   0.00000   3.92296
-------------------------------------------------------------------------------

  Static refractive indices : 

-------------------------------------------------------------------------------
    1 =    5.34832      2 =    5.34832      3 =    5.34832
-------------------------------------------------------------------------------

  High frequency refractive indices : 

-------------------------------------------------------------------------------
    1 =    1.98065      2 =    1.98065      3 =    1.98065
-------------------------------------------------------------------------------


  Time to end of optimisation =       0.0096 seconds

********************************************************************************
*  Defect calculation for configuration   1 :                                  *
********************************************************************************

  Total number of defects =      1

  Total charge on defect  =  -1.00

  Defect centre is at   0.5000   0.0000   0.0000  Frac

  Region 1 radius =  16.0000      Number of ions =   1370

  Number of symmetry inequivalent region 1 ions  =    136

  Region 2 radius =  24.0000      Number of ions =   3184

  Number of symmetry inequivalent region 2a ions =    254

  Region 2a mode = 4 : screened electrostatics due to region 1 
                       neglect correction to region 1 forces from 2a
                       region 2a displacements based on defects only

  Region 2a ions will only interact with defects in region 1

  Interstitials:

--------------------------------------------------------------------------------
    Specification type     Symbol/Number         x          y          z
--------------------------------------------------------------------------------
    Atom/Fractional         Cl               0.500000   0.000000   0.000000
--------------------------------------------------------------------------------


  Symmetry reduced region 1 (Relative to defect centre) :

--------------------------------------------------------------------------------
   No.   Atomic       x            y             z       Radius  Multiplicity   
         Label      (Angs)       (Angs)        (Angs)    (Angs)     
--------------------------------------------------------------------------------
     1  Cl    c      0.0000       0.0000       0.0000    0.0000     1    Defect
     2  Cl    c      2.2270 *     0.0000       0.0000    0.0000     2          
     3  Na    c      0.0000      -2.2270 *     0.0000    0.0000     4          
     4  O     c      0.0000      -2.2270 *    -2.2270    0.0000     4          
     5  Na    c      2.2270 *    -2.2270 *    -2.2270    0.0000     8          
     6  Cl    c      2.2270 *     0.0000       4.4540 *  0.0000     8          
     7  Na    c      0.0000      -2.2270 *     4.4540 *  0.0000     8          
     8  Na    c     -4.4540 *    -2.2270 *     0.0000    0.0000     8          
     9  O     c     -4.4540 *    -2.2270 *    -2.2270    0.0000     8          
    10  Cl    c      2.2270 *     4.4540 *     4.4540    0.0000     8          
    11  Na    c     -4.4540 *    -2.2270 *     4.4540 *  0.0000    16          
    12  Cl    c      6.6810 *     0.0000       0.0000    0.0000     2          
    13  Na    c      0.0000       6.6810 *     0.0000    0.0000     4          
    14  O     c      0.0000      -2.2270 *     6.6810 *  0.0000     8          
    15  Na    c      2.2270 *     6.6810 *    -2.2270 *  0.0000    16          
    16  Na    c      6.6810 *    -2.2270 *    -2.2270    0.0000     8          
    17  Cl    c      6.6810 *     0.0000       4.4540 *  0.0000     8          
    18  Na    c      0.0000       6.6810 *     4.4540 *  0.0000     8          
    19  Na    c     -4.4540 *     6.6810 *     0.0000    0.0000     8          
    20  O     c      4.4540 *    -2.2270 *     6.6810 *  0.0000    16          
    21  Cl    c      2.2270 *     0.0000       8.9079 *  0.0000     8          
    22  Cl    c      6.6810 *     4.4540 *     4.4540    0.0000     8          
    23  Na    c      0.0000      -2.2270 *     8.9079 *  0.0000     8          
    24  Na    c      8.9079 *    -2.2270 *     0.0000    0.0000     8          
    25  Na    c     -4.4540 *     6.6810 *     4.4540 *  0.0000    16          
    26  O     c      0.0000       6.6810 *     6.6810    0.0000     4          
    27  O     c      8.9079 *    -2.2270 *    -2.2270    0.0000     8          
    28  Na    c      2.2270 *     6.6810 *     6.6810    0.0000     8          
    29  Na    c      6.6810 *    -2.2270 *     6.6810 *  0.0000    16          
    30  Cl    c      2.2270 *     4.4540 *     8.9079 *  0.0000    16          
    31  Na    c      4.4540 *    -2.2270 *     8.9079 *  0.0000    16          
    32  Na    c      8.9079 *    -2.2270 *     4.4540 *  0.0000    16          
    33  O     c      4.4540 *     6.6810 *     6.6810    0.0000     8          
    34  Cl    c      6.6810 *     0.0000       8.9079 *  0.0000     8          
    35  Cl    c     11.1349 *     0.0000       0.0000    0.0000     2          
    36  Na    c      0.0000       6.6810 *     8.9079 *  0.0000     8          
    37  Na    c      0.0000      11.1349 *     0.0000    0.0000     4          
    38  Na    c      8.9079 *     6.6810 *     0.0000    0.0000     8          
    39  O     c      0.0000      -2.2270 *    11.1349 *  0.0000     8          
    40  O     c      8.9079 *    -2.2270 *     6.6810 *  0.0000    16          
    41  Na    c      2.2270 *    -2.2270 *    11.1349 *  0.0000    16          
    42  Na    c      6.6810 *     6.6810 *     6.6810    0.0000     8          
    43  Na    c     11.1349 *    -2.2270 *    -2.2270    0.0000     8          
    44  Cl    c      6.6810 *     4.4540 *     8.9079 *  0.0000    16          
    45  Cl    c     11.1349 *     0.0000       4.4540 *  0.0000     8          
    46  Na    c      0.0000      11.1349 *     4.4540 *  0.0000     8          
    47  Na    c      8.9079 *     6.6810 *     4.4540 *  0.0000    16          
    48  Na    c     -4.4540 *     6.6810 *     8.9079 *  0.0000    16          
    49  Na    c     -4.4540 *    11.1349 *     0.0000    0.0000     8          
    50  O     c     -4.4540 *    -2.2270 *    11.1349 *  0.0000    16          
    51  Cl    c     11.1349 *     4.4540 *     4.4540    0.0000     8          
    52  Na    c     -4.4540 *    11.1349 *     4.4540 *  0.0000    16          
    53  Cl    c      2.2270 *     8.9079 *     8.9079    0.0000     8          
    54  Na    c      8.9079 *    -2.2270 *     8.9079 *  0.0000    16          
    55  O     c      0.0000       6.6810 *    11.1349 *  0.0000     8          
    56  O     c      8.9079 *     6.6810 *     6.6810    0.0000     8          
    57  Na    c      2.2270 *     6.6810 *    11.1349 *  0.0000    16          
    58  Na    c      6.6810 *    -2.2270 *    11.1349 *  0.0000    16          
    59  Na    c     11.1349 *    -2.2270 *     6.6810 *  0.0000    16          
    60  Cl    c      2.2270 *     0.0000      13.3619 *  0.0000     8          
    61  Na    c      0.0000      -2.2270 *    13.3619 *  0.0000     8          
    62  Na    c     13.3619 *    -2.2270 *     0.0000    0.0000     8          
    63  O     c      4.4540 *     6.6810 *    11.1349 *  0.0000    16          
    64  O     c     13.3619 *    -2.2270 *    -2.2270    0.0000     8          
    65  Cl    c      6.6810 *     8.9079 *     8.9079    0.0000     8          
    66  Cl    c     11.1349 *     0.0000       8.9079 *  0.0000     8          
    67  Na    c      0.0000      11.1349 *     8.9079 *  0.0000     8          
    68  Na    c      8.9079 *     6.6810 *     8.9079 *  0.0000    16          
    69  Na    c      8.9079 *    11.1349 *     0.0000    0.0000     8          
    70  Cl    c      2.2270 *     4.4540 *    13.3619 *  0.0000    16          
    71  Na    c     13.3619 *    -2.2270 *     4.4540 *  0.0000    16          
    72  Na    c     -4.4540 *    -2.2270 *    13.3619 *  0.0000    16          
    73  O     c      8.9079 *    11.1349 *    -2.2270 *  0.0000    16          
    74  Na    c      6.6810 *     6.6810 *    11.1349 *  0.0000    16          
    75  Na    c     11.1349 *     6.6810 *     6.6810    0.0000     8          
    76  Cl    c     11.1349 *     8.9079 *     4.4540 *  0.0000    16          
    77  Na    c      8.9079 *    11.1349 *     4.4540 *  0.0000    16          
    78  Na    c      4.4540 *    11.1349 *     8.9079 *  0.0000    16          
    79  Cl    c      6.6810 *     0.0000      13.3619 *  0.0000     8          
    80  Na    c      0.0000       6.6810 *    13.3619 *  0.0000     8          
    81  Na    c     13.3619 *     6.6810 *     0.0000    0.0000     8          
    82  O     c     13.3619 *    -2.2270 *     6.6810 *  0.0000    16          
    83  Cl    c    -15.5889 *     0.0000       0.0000    0.0000     2          
    84  Na    c      0.0000      15.5889 *     0.0000    0.0000     4          
    85  Cl    c      6.6810 *     4.4540 *    13.3619 *  0.0000    16          
    86  Na    c      4.4540 *     6.6810 *    13.3619 *  0.0000    16          
    87  Na    c     13.3619 *     6.6810 *     4.4540 *  0.0000    16          
    88  O     c      0.0000      -2.2270 *    15.5889 *  0.0000     8          
    89  O     c      0.0000      11.1349 *    11.1349    0.0000     4          
    90  O     c      8.9079 *     6.6810 *    11.1349 *  0.0000    16          
    91  Na    c      2.2270 *    -2.2270 *    15.5889 *  0.0000    16          
    92  Na    c    -15.5889 *    -2.2270 *    -2.2270    0.0000     8          
    93  Na    c      2.2270 *    11.1349 *    11.1349    0.0000     8          
    94  Na    c     11.1349 *    -2.2270 *    11.1349 *  0.0000    16          
    95  Cl    s      0.0000       0.0000       0.0000    0.0000     1    Defect
    96  Cl    s      2.2270 *     0.0000       0.0000    0.0000     2          
    97  O     s      0.0000      -2.2270 *    -2.2270    0.0000     4          
    98  Cl    s      2.2270 *     0.0000       4.4540 *  0.0000     8          
    99  O     s     -4.4540 *    -2.2270 *    -2.2270    0.0000     8          
   100  Cl    s      2.2270 *     4.4540 *     4.4540    0.0000     8          
   101  Cl    s      6.6810 *     0.0000       0.0000    0.0000     2          
   102  O     s      0.0000      -2.2270 *     6.6810 *  0.0000     8          
   103  Cl    s      6.6810 *     0.0000       4.4540 *  0.0000     8          
   104  O     s      4.4540 *    -2.2270 *     6.6810 *  0.0000    16          
   105  Cl    s      2.2270 *     0.0000       8.9079 *  0.0000     8          
   106  Cl    s      6.6810 *     4.4540 *     4.4540    0.0000     8          
   107  O     s      0.0000       6.6810 *     6.6810    0.0000     4          
   108  O     s      8.9079 *    -2.2270 *    -2.2270    0.0000     8          
   109  Cl    s      2.2270 *     4.4540 *     8.9079 *  0.0000    16          
   110  O     s      4.4540 *     6.6810 *     6.6810    0.0000     8          
   111  Cl    s      6.6810 *     0.0000       8.9079 *  0.0000     8          
   112  Cl    s     11.1349 *     0.0000       0.0000    0.0000     2          
   113  O     s      0.0000      -2.2270 *    11.1349 *  0.0000     8          
   114  O     s      8.9079 *    -2.2270 *     6.6810 *  0.0000    16          
   115  Cl    s      6.6810 *     4.4540 *     8.9079 *  0.0000    16          
   116  Cl    s     11.1349 *     0.0000       4.4540 *  0.0000     8          
   117  O     s     -4.4540 *    -2.2270 *    11.1349 *  0.0000    16          
   118  Cl    s     11.1349 *     4.4540 *     4.4540    0.0000     8          
   119  Cl    s      2.2270 *     8.9079 *     8.9079    0.0000     8          
   120  O     s      0.0000       6.6810 *    11.1349 *  0.0000     8          
   121  O     s      8.9079 *     6.6810 *     6.6810    0.0000     8          
   122  Cl    s      2.2270 *     0.0000      13.3619 *  0.0000     8          
   123  O     s      4.4540 *     6.6810 *    11.1349 *  0.0000    16          
   124  O     s     13.3619 *    -2.2270 *    -2.2270    0.0000     8          
   125  Cl    s      6.6810 *     8.9079 *     8.9079    0.0000     8          
   126  Cl    s     11.1349 *     0.0000       8.9079 *  0.0000     8          
   127  Cl    s      2.2270 *     4.4540 *    13.3619 *  0.0000    16          
   128  O     s      8.9079 *    11.1349 *    -2.2270 *  0.0000    16          
   129  Cl    s     11.1349 *     8.9079 *     4.4540 *  0.0000    16          
   130  Cl    s      6.6810 *     0.0000      13.3619 *  0.0000     8          
   131  O     s     13.3619 *    -2.2270 *     6.6810 *  0.0000    16          
   132  Cl    s    -15.5889 *     0.0000       0.0000    0.0000     2          
   133  Cl    s      6.6810 *     4.4540 *    13.3619 *  0.0000    16          
   134  O     s      0.0000      -2.2270 *    15.5889 *  0.0000     8          
   135  O     s      0.0000      11.1349 *    11.1349    0.0000     4          
   136  O     s      8.9079 *     6.6810 *    11.1349 *  0.0000    16          
--------------------------------------------------------------------------------


  Constraints on symmetry reduced coordinates :

--------------------------------------------------------------------------------
  Constraint no.      Unconstrained     Constrained    Coefficient    
                         Variable         Variable
--------------------------------------------------------------------------------
           1                 4 y             4 z         1.00000
           2                 5 y             5 z         1.00000
           3                 9 y             9 z         1.00000
           4                10 y            10 z         1.00000
           5                16 y            16 z         1.00000
           6                22 y            22 z         1.00000
           7                26 y            26 z         1.00000
           8                27 y            27 z         1.00000
           9                28 y            28 z         1.00000
          10                33 y            33 z         1.00000
          11                42 y            42 z         1.00000
          12                43 y            43 z         1.00000
          13                51 y            51 z         1.00000
          14                53 y            53 z         1.00000
          15                56 y            56 z         1.00000
          16                64 y            64 z         1.00000
          17                65 y            65 z         1.00000
          18                75 y            75 z         1.00000
          19                89 y            89 z         1.00000
          20                92 y            92 z         1.00000
          21                93 y            93 z         1.00000
          22                97 y            97 z         1.00000
          23                99 y            99 z         1.00000
          24               100 y           100 z         1.00000
          25               106 y           106 z         1.00000
          26               107 y           107 z         1.00000
          27               108 y           108 z         1.00000
          28               110 y           110 z         1.00000
          29               118 y           118 z         1.00000
          30               119 y           119 z         1.00000
          31               121 y           121 z         1.00000
          32               124 y           124 z         1.00000
          33               125 y           125 z         1.00000
          34               135 y           135 z         1.00000
--------------------------------------------------------------------------------


  Components of defect energy : 

--------------------------------------------------------------------------------
  Region 1 - region 1                   =     -4.13700245 eV
  Region 1 - region 2a (unrelaxed)      =      7.18701584 eV
  Region 1 - 2a (relaxed - correction)  =     -0.28657055 eV
  Region 1 (Total)                      =      2.76344284 eV
  Region 2a                             =      0.14325795 eV
  Region 2b                             =     -0.29088744 eV
--------------------------------------------------------------------------------
  Total defect energy                   =      2.61581335 eV
--------------------------------------------------------------------------------

  Largest displacement in region 2 =   0.0107 Angstroms


  Number of variables =      298

  Maximum number of calculations  =        1000
  Maximum Hessian update interval =          10
  Maximum step size               =   1.0000000
  Maximum parameter tolerance     =   0.0000100
  Maximum function  tolerance     =   0.0000100
  Maximum gradient  tolerance     =   0.0010000

  Symmetry adapted optimisation

  Symmetry to be used for second derivatives

  Newton-Raphson optimiser to be used

  BFGS hessian update to be used

  Lower half triangular hessian to be used

  Start of defect optimisation :

  Cycle:      0 Defect Energy:   2.615813  Gnorm:     0.165150  CPU:    9.290
  ** Hessian calculated **
  Cycle:      1 Defect Energy:  -1.231128  Gnorm:     0.073017  CPU:   16.861
  Cycle:      2 Defect Energy:  -2.070928  Gnorm:     0.027745  CPU:   21.484
  ** Hessian calculated **
  Cycle:      3 Defect Energy:  -2.502282  Gnorm:     0.003342  CPU:   27.213
  Cycle:      4 Defect Energy:  -2.508205  Gnorm:     0.002138  CPU:   28.321
  ** Hessian calculated **
  Cycle:      5 Defect Energy:  -2.515875  Gnorm:     0.001521  CPU:   30.459
  Cycle:      6 Defect Energy:  -2.520281  Gnorm:     0.001106  CPU:   31.355
  Cycle:      7 Defect Energy:  -2.523185  Gnorm:     0.000815  CPU:   32.255
  Cycle:      8 Defect Energy:  -2.525071  Gnorm:     0.000615  CPU:   33.196
  Cycle:      9 Defect Energy:  -2.526267  Gnorm:     0.000475  CPU:   33.728
  Cycle:     10 Defect Energy:  -2.526980  Gnorm:     0.000371  CPU:   37.695
  Cycle:     11 Defect Energy:  -2.527367  Gnorm:     0.000288  CPU:   39.886
  Cycle:     12 Defect Energy:  -2.527552  Gnorm:     0.000218  CPU:   40.983
  Cycle:     13 Defect Energy:  -2.527624  Gnorm:     0.000162  CPU:   42.100
  Cycle:     14 Defect Energy:  -2.527642  Gnorm:     0.000118  CPU:   43.210
  ** Hessian calculated **


  **** Optimisation achieved ****


  Final defect energy  =       -2.52763658
  Final defect Gnorm   =        0.00008425

  Components of defect energy : 

--------------------------------------------------------------------------------
  Region 1 - region 1                   =     -7.93294827 eV
  Region 1 - region 2a (unrelaxed)      =      5.81991686 eV
  Region 1 - 2a (relaxed - correction)  =     -0.24739544 eV
  Region 1 (Total)                      =     -2.36042685 eV
  Region 2a                             =      0.12367771 eV
  Region 2b                             =     -0.29088744 eV
--------------------------------------------------------------------------------
  Total defect energy                   =     -2.52763658 eV
--------------------------------------------------------------------------------

  Largest displacement in region 2 =   0.0107 Angstroms

  Final coordinates of region 1 :

--------------------------------------------------------------------------------
   No.  Atomic        x           y           z          Radius      Charge
        Label       (Angs)      (Angs)      (Angs)       (Angs)       (e) 
--------------------------------------------------------------------------------
     1  Cl    c     2.226987    0.000000    0.000000    0.000000    0.996000
     2  Cl    c     4.970768    0.000000    0.000000    0.000000    0.996000
     3  Cl    c    -0.516794    0.000000    0.000000    0.000000    0.996000
     4  Na    c     2.226987   -2.530039    0.000000    0.000000    1.000000
     5  Na    c     2.226987    2.530039    0.000000    0.000000    1.000000
     6  Na    c     2.226987    0.000000   -2.530039    0.000000    1.000000
     7  Na    c     2.226987    0.000000    2.530039    0.000000    1.000000
     8  O     c     2.226987   -2.293018   -2.293018    0.000000    1.443000
     9  O     c     2.226987   -2.293018    2.293018    0.000000    1.443000
    10  O     c     2.226987    2.293018   -2.293018    0.000000    1.443000
    11  O     c     2.226987    2.293018    2.293018    0.000000    1.443000
    12  Na    c     4.439828   -2.083294   -2.083294    0.000000    1.000000
    13  Na    c     4.439828   -2.083294    2.083294    0.000000    1.000000
    14  Na    c     4.439828    2.083294   -2.083294    0.000000    1.000000
    15  Na    c     4.439828    2.083294    2.083294    0.000000    1.000000
    16  Na    c     0.014145   -2.083294   -2.083294    0.000000    1.000000
    17  Na    c     0.014145   -2.083294    2.083294    0.000000    1.000000
    18  Na    c     0.014145    2.083294   -2.083294    0.000000    1.000000
    19  Na    c     0.014145    2.083294    2.083294    0.000000    1.000000
    20  Cl    c     4.450079    0.000000    4.494544    0.000000    0.996000
    21  Cl    c     4.450079    0.000000   -4.494544    0.000000    0.996000
    22  Cl    c     4.450079    4.494544    0.000000    0.000000    0.996000
    23  Cl    c     4.450079   -4.494544    0.000000    0.000000    0.996000
    24  Cl    c     0.003895    0.000000    4.494544    0.000000    0.996000
    25  Cl    c     0.003895    0.000000   -4.494544    0.000000    0.996000
    26  Cl    c     0.003895    4.494544    0.000000    0.000000    0.996000
    27  Cl    c     0.003895   -4.494544    0.000000    0.000000    0.996000
    28  Na    c     2.226987   -2.383513    4.481534    0.000000    1.000000
    29  Na    c     2.226987   -2.383513   -4.481534    0.000000    1.000000
    30  Na    c     2.226987    2.383513    4.481534    0.000000    1.000000
    31  Na    c     2.226987    2.383513   -4.481534    0.000000    1.000000
    32  Na    c     2.226987    4.481534   -2.383513    0.000000    1.000000
    33  Na    c     2.226987    4.481534    2.383513    0.000000    1.000000
    34  Na    c     2.226987   -4.481534   -2.383513    0.000000    1.000000
    35  Na    c     2.226987   -4.481534    2.383513    0.000000    1.000000
    36  Na    c    -2.374669   -2.162232    0.000000    0.000000    1.000000
    37  Na    c    -2.374669    2.162232    0.000000    0.000000    1.000000
    38  Na    c    -2.374669    0.000000   -2.162232    0.000000    1.000000
    39  Na    c    -2.374669    0.000000    2.162232    0.000000    1.000000
    40  Na    c     6.828643   -2.162232    0.000000    0.000000    1.000000
    41  Na    c     6.828643    2.162232    0.000000    0.000000    1.000000
    42  Na    c     6.828643    0.000000   -2.162232    0.000000    1.000000
    43  Na    c     6.828643    0.000000    2.162232    0.000000    1.000000
    44  O     c    -2.229143   -2.249450   -2.249450    0.000000    1.443000
    45  O     c    -2.229143   -2.249450    2.249450    0.000000    1.443000
    46  O     c    -2.229143    2.249450   -2.249450    0.000000    1.443000
    47  O     c    -2.229143    2.249450    2.249450    0.000000    1.443000
    48  O     c     6.683117   -2.249450   -2.249450    0.000000    1.443000
    49  O     c     6.683117   -2.249450    2.249450    0.000000    1.443000
    50  O     c     6.683117    2.249450   -2.249450    0.000000    1.443000
    51  O     c     6.683117    2.249450    2.249450    0.000000    1.443000
    52  Cl    c     4.459919    4.551076    4.551076    0.000000    0.996000
    53  Cl    c     4.459919    4.551076   -4.551076    0.000000    0.996000
    54  Cl    c     4.459919   -4.551076    4.551076    0.000000    0.996000
    55  Cl    c     4.459919   -4.551076   -4.551076    0.000000    0.996000
    56  Cl    c    -0.005945    4.551076    4.551076    0.000000    0.996000
    57  Cl    c    -0.005945    4.551076   -4.551076    0.000000    0.996000
    58  Cl    c    -0.005945   -4.551076    4.551076    0.000000    0.996000
    59  Cl    c    -0.005945   -4.551076   -4.551076    0.000000    0.996000
    60  Na    c    -2.159765   -2.212949    4.455306    0.000000    1.000000
    61  Na    c    -2.159765   -2.212949   -4.455306    0.000000    1.000000
    62  Na    c    -2.159765    2.212949    4.455306    0.000000    1.000000
    63  Na    c    -2.159765    2.212949   -4.455306    0.000000    1.000000
    64  Na    c    -2.159765    4.455306   -2.212949    0.000000    1.000000
    65  Na    c    -2.159765    4.455306    2.212949    0.000000    1.000000
    66  Na    c    -2.159765   -4.455306   -2.212949    0.000000    1.000000
    67  Na    c    -2.159765   -4.455306    2.212949    0.000000    1.000000
    68  Na    c     6.613739    4.455306   -2.212949    0.000000    1.000000
    69  Na    c     6.613739    4.455306    2.212949    0.000000    1.000000
    70  Na    c     6.613739   -4.455306   -2.212949    0.000000    1.000000
    71  Na    c     6.613739   -4.455306    2.212949    0.000000    1.000000
    72  Na    c     6.613739   -2.212949    4.455306    0.000000    1.000000
    73  Na    c     6.613739   -2.212949   -4.455306    0.000000    1.000000
    74  Na    c     6.613739    2.212949    4.455306    0.000000    1.000000
    75  Na    c     6.613739    2.212949   -4.455306    0.000000    1.000000
    76  Cl    c     9.018926    0.000000    0.000000    0.000000    0.996000
    77  Cl    c    -4.564953    0.000000    0.000000    0.000000    0.996000
    78  Na    c     2.226987    6.647425    0.000000    0.000000    1.000000
    79  Na    c     2.226987   -6.647425    0.000000    0.000000    1.000000
    80  Na    c     2.226987    0.000000    6.647425    0.000000    1.000000
    81  Na    c     2.226987    0.000000   -6.647425    0.000000    1.000000
    82  O     c     2.226987   -2.239392    6.709271    0.000000    1.443000
    83  O     c     2.226987   -2.239392   -6.709271    0.000000    1.443000
    84  O     c     2.226987    2.239392    6.709271    0.000000    1.443000
    85  O     c     2.226987    2.239392   -6.709271    0.000000    1.443000
    86  O     c     2.226987    6.709271   -2.239392    0.000000    1.443000
    87  O     c     2.226987    6.709271    2.239392    0.000000    1.443000
    88  O     c     2.226987   -6.709271   -2.239392    0.000000    1.443000
    89  O     c     2.226987   -6.709271    2.239392    0.000000    1.443000
    90  Na    c     4.445786    6.685512   -2.240259    0.000000    1.000000
    91  Na    c     4.445786    6.685512    2.240259    0.000000    1.000000
    92  Na    c     4.445786   -6.685512   -2.240259    0.000000    1.000000
    93  Na    c     4.445786   -6.685512    2.240259    0.000000    1.000000
    94  Na    c     0.008187    6.685512   -2.240259    0.000000    1.000000
    95  Na    c     0.008187    6.685512    2.240259    0.000000    1.000000
    96  Na    c     0.008187   -6.685512   -2.240259    0.000000    1.000000
    97  Na    c     0.008187   -6.685512    2.240259    0.000000    1.000000
    98  Na    c     4.445786   -2.240259    6.685512    0.000000    1.000000
    99  Na    c     4.445786   -2.240259   -6.685512    0.000000    1.000000
   100  Na    c     4.445786    2.240259    6.685512    0.000000    1.000000
   101  Na    c     4.445786    2.240259   -6.685512    0.000000    1.000000
   102  Na    c     0.008187   -2.240259    6.685512    0.000000    1.000000
   103  Na    c     0.008187   -2.240259   -6.685512    0.000000    1.000000
   104  Na    c     0.008187    2.240259    6.685512    0.000000    1.000000
   105  Na    c     0.008187    2.240259   -6.685512    0.000000    1.000000
   106  Na    c     8.898979   -2.340607   -2.340607    0.000000    1.000000
   107  Na    c     8.898979   -2.340607    2.340607    0.000000    1.000000
   108  Na    c     8.898979    2.340607   -2.340607    0.000000    1.000000
   109  Na    c     8.898979    2.340607    2.340607    0.000000    1.000000
   110  Na    c    -4.445006   -2.340607   -2.340607    0.000000    1.000000
   111  Na    c    -4.445006   -2.340607    2.340607    0.000000    1.000000
   112  Na    c    -4.445006    2.340607   -2.340607    0.000000    1.000000
   113  Na    c    -4.445006    2.340607    2.340607    0.000000    1.000000
   114  Cl    c     8.929229    0.000000    4.471631    0.000000    0.996000
   115  Cl    c     8.929229    0.000000   -4.471631    0.000000    0.996000
   116  Cl    c     8.929229    4.471631    0.000000    0.000000    0.996000
   117  Cl    c     8.929229   -4.471631    0.000000    0.000000    0.996000
   118  Cl    c    -4.475255    0.000000    4.471631    0.000000    0.996000
   119  Cl    c    -4.475255    0.000000   -4.471631    0.000000    0.996000
   120  Cl    c    -4.475255    4.471631    0.000000    0.000000    0.996000
   121  Cl    c    -4.475255   -4.471631    0.000000    0.000000    0.996000
   122  Na    c     2.226987    6.699797    4.480831    0.000000    1.000000
   123  Na    c     2.226987    6.699797   -4.480831    0.000000    1.000000
   124  Na    c     2.226987   -6.699797    4.480831    0.000000    1.000000
   125  Na    c     2.226987   -6.699797   -4.480831    0.000000    1.000000
   126  Na    c     2.226987    4.480831    6.699797    0.000000    1.000000
   127  Na    c     2.226987    4.480831   -6.699797    0.000000    1.000000
   128  Na    c     2.226987   -4.480831    6.699797    0.000000    1.000000
   129  Na    c     2.226987   -4.480831   -6.699797    0.000000    1.000000
   130  Na    c    -2.215126    6.666620    0.000000    0.000000    1.000000
   131  Na    c    -2.215126   -6.666620    0.000000    0.000000    1.000000
   132  Na    c    -2.215126    0.000000    6.666620    0.000000    1.000000
   133  Na    c    -2.215126    0.000000   -6.666620    0.000000    1.000000
   134  Na    c     6.669099    6.666620    0.000000    0.000000    1.000000
   135  Na    c     6.669099   -6.666620    0.000000    0.000000    1.000000
   136  Na    c     6.669099    0.000000    6.666620    0.000000    1.000000
   137  Na    c     6.669099    0.000000   -6.666620    0.000000    1.000000
   138  O     c     6.677344   -2.230688    6.684877    0.000000    1.443000
   139  O     c     6.677344   -2.230688   -6.684877    0.000000    1.443000
   140  O     c     6.677344    2.230688    6.684877    0.000000    1.443000
   141  O     c     6.677344    2.230688   -6.684877    0.000000    1.443000
   142  O     c    -2.223370   -2.230688    6.684877    0.000000    1.443000
   143  O     c    -2.223370   -2.230688   -6.684877    0.000000    1.443000
   144  O     c    -2.223370    2.230688    6.684877    0.000000    1.443000
   145  O     c    -2.223370    2.230688   -6.684877    0.000000    1.443000
   146  O     c    -2.223370    6.684877   -2.230688    0.000000    1.443000
   147  O     c    -2.223370    6.684877    2.230688    0.000000    1.443000
   148  O     c    -2.223370   -6.684877   -2.230688    0.000000    1.443000
   149  O     c    -2.223370   -6.684877    2.230688    0.000000    1.443000
   150  O     c     6.677344    6.684877   -2.230688    0.000000    1.443000
   151  O     c     6.677344    6.684877    2.230688    0.000000    1.443000
   152  O     c     6.677344   -6.684877   -2.230688    0.000000    1.443000
   153  O     c     6.677344   -6.684877    2.230688    0.000000    1.443000
   154  Cl    c     4.471321    0.000000    8.928681    0.000000    0.996000
   155  Cl    c     4.471321    0.000000   -8.928681    0.000000    0.996000
   156  Cl    c     4.471321    8.928681    0.000000    0.000000    0.996000
   157  Cl    c     4.471321   -8.928681    0.000000    0.000000    0.996000
   158  Cl    c    -0.017347    0.000000    8.928681    0.000000    0.996000
   159  Cl    c    -0.017347    0.000000   -8.928681    0.000000    0.996000
   160  Cl    c    -0.017347    8.928681    0.000000    0.000000    0.996000
   161  Cl    c    -0.017347   -8.928681    0.000000    0.000000    0.996000
   162  Cl    c     8.943049    4.483208    4.483208    0.000000    0.996000
   163  Cl    c     8.943049    4.483208   -4.483208    0.000000    0.996000
   164  Cl    c     8.943049   -4.483208    4.483208    0.000000    0.996000
   165  Cl    c     8.943049   -4.483208   -4.483208    0.000000    0.996000
   166  Cl    c    -4.489075    4.483208    4.483208    0.000000    0.996000
   167  Cl    c    -4.489075    4.483208   -4.483208    0.000000    0.996000
   168  Cl    c    -4.489075   -4.483208    4.483208    0.000000    0.996000
   169  Cl    c    -4.489075   -4.483208   -4.483208    0.000000    0.996000
   170  Na    c     2.226987   -2.341734    8.925933    0.000000    1.000000
   171  Na    c     2.226987   -2.341734   -8.925933    0.000000    1.000000
   172  Na    c     2.226987    2.341734    8.925933    0.000000    1.000000
   173  Na    c     2.226987    2.341734   -8.925933    0.000000    1.000000
   174  Na    c     2.226987    8.925933   -2.341734    0.000000    1.000000
   175  Na    c     2.226987    8.925933    2.341734    0.000000    1.000000
   176  Na    c     2.226987   -8.925933   -2.341734    0.000000    1.000000
   177  Na    c     2.226987   -8.925933    2.341734    0.000000    1.000000
   178  Na    c    11.075305   -2.192514    0.000000    0.000000    1.000000
   179  Na    c    11.075305    2.192514    0.000000    0.000000    1.000000
   180  Na    c    -6.621331   -2.192514    0.000000    0.000000    1.000000
   181  Na    c    -6.621331    2.192514    0.000000    0.000000    1.000000
   182  Na    c    11.075305    0.000000   -2.192514    0.000000    1.000000
   183  Na    c    11.075305    0.000000    2.192514    0.000000    1.000000
   184  Na    c    -6.621331    0.000000   -2.192514    0.000000    1.000000
   185  Na    c    -6.621331    0.000000    2.192514    0.000000    1.000000
   186  Na    c    -2.208082    6.687142    4.459905    0.000000    1.000000
   187  Na    c    -2.208082    6.687142   -4.459905    0.000000    1.000000
   188  Na    c    -2.208082   -6.687142    4.459905    0.000000    1.000000
   189  Na    c    -2.208082   -6.687142   -4.459905    0.000000    1.000000
   190  Na    c    -2.208082    4.459905    6.687142    0.000000    1.000000
   191  Na    c    -2.208082    4.459905   -6.687142    0.000000    1.000000
   192  Na    c    -2.208082   -4.459905    6.687142    0.000000    1.000000
   193  Na    c    -2.208082   -4.459905   -6.687142    0.000000    1.000000
   194  Na    c     6.662056    6.687142    4.459905    0.000000    1.000000
   195  Na    c     6.662056    6.687142   -4.459905    0.000000    1.000000
   196  Na    c     6.662056   -6.687142    4.459905    0.000000    1.000000
   197  Na    c     6.662056   -6.687142   -4.459905    0.000000    1.000000
   198  Na    c     6.662056    4.459905    6.687142    0.000000    1.000000
   199  Na    c     6.662056    4.459905   -6.687142    0.000000    1.000000
   200  Na    c     6.662056   -4.459905    6.687142    0.000000    1.000000
   201  Na    c     6.662056   -4.459905   -6.687142    0.000000    1.000000
   202  O     c     2.226987    6.711643    6.711643    0.000000    1.443000
   203  O     c     2.226987    6.711643   -6.711643    0.000000    1.443000
   204  O     c     2.226987   -6.711643    6.711643    0.000000    1.443000
   205  O     c     2.226987   -6.711643   -6.711643    0.000000    1.443000
   206  O     c    11.126821   -2.236284   -2.236284    0.000000    1.443000
   207  O     c    11.126821   -2.236284    2.236284    0.000000    1.443000
   208  O     c    11.126821    2.236284   -2.236284    0.000000    1.443000
   209  O     c    11.126821    2.236284    2.236284    0.000000    1.443000
   210  O     c    -6.672847   -2.236284   -2.236284    0.000000    1.443000
   211  O     c    -6.672847   -2.236284    2.236284    0.000000    1.443000
   212  O     c    -6.672847    2.236284   -2.236284    0.000000    1.443000
   213  O     c    -6.672847    2.236284    2.236284    0.000000    1.443000
   214  Na    c     4.454447    6.664586    6.664586    0.000000    1.000000
   215  Na    c     4.454447    6.664586   -6.664586    0.000000    1.000000
   216  Na    c     4.454447   -6.664586    6.664586    0.000000    1.000000
   217  Na    c     4.454447   -6.664586   -6.664586    0.000000    1.000000
   218  Na    c    -0.000473    6.664586    6.664586    0.000000    1.000000
   219  Na    c    -0.000473    6.664586   -6.664586    0.000000    1.000000
   220  Na    c    -0.000473   -6.664586    6.664586    0.000000    1.000000
   221  Na    c    -0.000473   -6.664586   -6.664586    0.000000    1.000000
   222  Na    c     8.902611   -2.233001    6.745490    0.000000    1.000000
   223  Na    c     8.902611   -2.233001   -6.745490    0.000000    1.000000
   224  Na    c     8.902611    2.233001    6.745490    0.000000    1.000000
   225  Na    c     8.902611    2.233001   -6.745490    0.000000    1.000000
   226  Na    c    -4.448638   -2.233001    6.745490    0.000000    1.000000
   227  Na    c    -4.448638   -2.233001   -6.745490    0.000000    1.000000
   228  Na    c    -4.448638    2.233001    6.745490    0.000000    1.000000
   229  Na    c    -4.448638    2.233001   -6.745490    0.000000    1.000000
   230  Na    c     8.902611    6.745490   -2.233001    0.000000    1.000000
   231  Na    c     8.902611    6.745490    2.233001    0.000000    1.000000
   232  Na    c     8.902611   -6.745490   -2.233001    0.000000    1.000000
   233  Na    c     8.902611   -6.745490    2.233001    0.000000    1.000000
   234  Na    c    -4.448638    6.745490   -2.233001    0.000000    1.000000
   235  Na    c    -4.448638    6.745490    2.233001    0.000000    1.000000
   236  Na    c    -4.448638   -6.745490   -2.233001    0.000000    1.000000
   237  Na    c    -4.448638   -6.745490    2.233001    0.000000    1.000000
   238  Cl    c     4.459052    4.457704    8.927370    0.000000    0.996000
   239  Cl    c     4.459052    4.457704   -8.927370    0.000000    0.996000
   240  Cl    c     4.459052    8.927370    4.457704    0.000000    0.996000
   241  Cl    c     4.459052    8.927370   -4.457704    0.000000    0.996000
   242  Cl    c     4.459052   -4.457704    8.927370    0.000000    0.996000
   243  Cl    c     4.459052   -4.457704   -8.927370    0.000000    0.996000
   244  Cl    c     4.459052   -8.927370    4.457704    0.000000    0.996000
   245  Cl    c     4.459052   -8.927370   -4.457704    0.000000    0.996000
   246  Cl    c    -0.005078    4.457704    8.927370    0.000000    0.996000
   247  Cl    c    -0.005078    4.457704   -8.927370    0.000000    0.996000
   248  Cl    c    -0.005078    8.927370    4.457704    0.000000    0.996000
   249  Cl    c    -0.005078    8.927370   -4.457704    0.000000    0.996000
   250  Cl    c    -0.005078   -4.457704    8.927370    0.000000    0.996000
   251  Cl    c    -0.005078   -4.457704   -8.927370    0.000000    0.996000
   252  Cl    c    -0.005078   -8.927370    4.457704    0.000000    0.996000
   253  Cl    c    -0.005078   -8.927370   -4.457704    0.000000    0.996000
   254  Na    c     6.588787   -2.186846    8.910957    0.000000    1.000000
   255  Na    c     6.588787   -2.186846   -8.910957    0.000000    1.000000
   256  Na    c     6.588787    2.186846    8.910957    0.000000    1.000000
   257  Na    c     6.588787    2.186846   -8.910957    0.000000    1.000000
   258  Na    c    -2.134813   -2.186846    8.910957    0.000000    1.000000
   259  Na    c    -2.134813   -2.186846   -8.910957    0.000000    1.000000
   260  Na    c    -2.134813    2.186846    8.910957    0.000000    1.000000
   261  Na    c    -2.134813    2.186846   -8.910957    0.000000    1.000000
   262  Na    c     6.588787    8.910957   -2.186846    0.000000    1.000000
   263  Na    c     6.588787    8.910957    2.186846    0.000000    1.000000
   264  Na    c     6.588787   -8.910957   -2.186846    0.000000    1.000000
   265  Na    c     6.588787   -8.910957    2.186846    0.000000    1.000000
   266  Na    c    -2.134813    8.910957   -2.186846    0.000000    1.000000
   267  Na    c    -2.134813    8.910957    2.186846    0.000000    1.000000
   268  Na    c    -2.134813   -8.910957   -2.186846    0.000000    1.000000
   269  Na    c    -2.134813   -8.910957    2.186846    0.000000    1.000000
   270  Na    c    11.081373   -2.157186    4.465883    0.000000    1.000000
   271  Na    c    11.081373   -2.157186   -4.465883    0.000000    1.000000
   272  Na    c    11.081373    2.157186    4.465883    0.000000    1.000000
   273  Na    c    11.081373    2.157186   -4.465883    0.000000    1.000000
   274  Na    c    -6.627399   -2.157186    4.465883    0.000000    1.000000
   275  Na    c    -6.627399   -2.157186   -4.465883    0.000000    1.000000
   276  Na    c    -6.627399    2.157186    4.465883    0.000000    1.000000
   277  Na    c    -6.627399    2.157186   -4.465883    0.000000    1.000000
   278  Na    c    11.081373    4.465883   -2.157186    0.000000    1.000000
   279  Na    c    11.081373    4.465883    2.157186    0.000000    1.000000
   280  Na    c    11.081373   -4.465883   -2.157186    0.000000    1.000000
   281  Na    c    11.081373   -4.465883    2.157186    0.000000    1.000000
   282  Na    c    -6.627399    4.465883   -2.157186    0.000000    1.000000
   283  Na    c    -6.627399    4.465883    2.157186    0.000000    1.000000
   284  Na    c    -6.627399   -4.465883   -2.157186    0.000000    1.000000
   285  Na    c    -6.627399   -4.465883    2.157186    0.000000    1.000000
   286  O     c     6.688856    6.690670    6.690670    0.000000    1.443000
   287  O     c     6.688856    6.690670   -6.690670    0.000000    1.443000
   288  O     c     6.688856   -6.690670    6.690670    0.000000    1.443000
   289  O     c     6.688856   -6.690670   -6.690670    0.000000    1.443000
   290  O     c    -2.234882    6.690670    6.690670    0.000000    1.443000
   291  O     c    -2.234882    6.690670   -6.690670    0.000000    1.443000
   292  O     c    -2.234882   -6.690670    6.690670    0.000000    1.443000
   293  O     c    -2.234882   -6.690670   -6.690670    0.000000    1.443000
   294  Cl    c     8.891392    0.000000    8.916990    0.000000    0.996000
   295  Cl    c     8.891392    0.000000   -8.916990    0.000000    0.996000
   296  Cl    c     8.891392    8.916990    0.000000    0.000000    0.996000
   297  Cl    c     8.891392   -8.916990    0.000000    0.000000    0.996000
   298  Cl    c    -4.437418    0.000000    8.916990    0.000000    0.996000
   299  Cl    c    -4.437418    0.000000   -8.916990    0.000000    0.996000
   300  Cl    c    -4.437418    8.916990    0.000000    0.000000    0.996000
   301  Cl    c    -4.437418   -8.916990    0.000000    0.000000    0.996000
   302  Cl    c    13.361800    0.000000    0.000000    0.000000    0.996000
   303  Cl    c    -8.907826    0.000000    0.000000    0.000000    0.996000
   304  Na    c     2.226987    6.673141    8.926432    0.000000    1.000000
   305  Na    c     2.226987    6.673141   -8.926432    0.000000    1.000000
   306  Na    c     2.226987   -6.673141    8.926432    0.000000    1.000000
   307  Na    c     2.226987   -6.673141   -8.926432    0.000000    1.000000
   308  Na    c     2.226987    8.926432    6.673141    0.000000    1.000000
   309  Na    c     2.226987    8.926432   -6.673141    0.000000    1.000000
   310  Na    c     2.226987   -8.926432    6.673141    0.000000    1.000000
   311  Na    c     2.226987   -8.926432   -6.673141    0.000000    1.000000
   312  Na    c     2.226987   10.968118    0.000000    0.000000    1.000000
   313  Na    c     2.226987  -10.968118    0.000000    0.000000    1.000000
   314  Na    c     2.226987    0.000000   10.968118    0.000000    1.000000
   315  Na    c     2.226987    0.000000  -10.968118    0.000000    1.000000
   316  Na    c    11.118395    6.829183    0.000000    0.000000    1.000000
   317  Na    c    11.118395   -6.829183    0.000000    0.000000    1.000000
   318  Na    c    -6.664422    6.829183    0.000000    0.000000    1.000000
   319  Na    c    -6.664422   -6.829183    0.000000    0.000000    1.000000
   320  Na    c    11.118395    0.000000    6.829183    0.000000    1.000000
   321  Na    c    11.118395    0.000000   -6.829183    0.000000    1.000000
   322  Na    c    -6.664422    0.000000    6.829183    0.000000    1.000000
   323  Na    c    -6.664422    0.000000   -6.829183    0.000000    1.000000
   324  O     c     2.226987   -2.223215   11.148856    0.000000    1.443000
   325  O     c     2.226987   -2.223215  -11.148856    0.000000    1.443000
   326  O     c     2.226987    2.223215   11.148856    0.000000    1.443000
   327  O     c     2.226987    2.223215  -11.148856    0.000000    1.443000
   328  O     c     2.226987   11.148856   -2.223215    0.000000    1.443000
   329  O     c     2.226987   11.148856    2.223215    0.000000    1.443000
   330  O     c     2.226987  -11.148856   -2.223215    0.000000    1.443000
   331  O     c     2.226987  -11.148856    2.223215    0.000000    1.443000
   332  O     c    11.137791   -2.224054    6.691751    0.000000    1.443000
   333  O     c    11.137791   -2.224054   -6.691751    0.000000    1.443000
   334  O     c    11.137791    2.224054    6.691751    0.000000    1.443000
   335  O     c    11.137791    2.224054   -6.691751    0.000000    1.443000
   336  O     c    11.137791    6.691751   -2.224054    0.000000    1.443000
   337  O     c    11.137791    6.691751    2.224054    0.000000    1.443000
   338  O     c    11.137791   -6.691751   -2.224054    0.000000    1.443000
   339  O     c    11.137791   -6.691751    2.224054    0.000000    1.443000
   340  O     c    -6.683818   -2.224054    6.691751    0.000000    1.443000
   341  O     c    -6.683818   -2.224054   -6.691751    0.000000    1.443000
   342  O     c    -6.683818    2.224054    6.691751    0.000000    1.443000
   343  O     c    -6.683818    2.224054   -6.691751    0.000000    1.443000
   344  O     c    -6.683818    6.691751   -2.224054    0.000000    1.443000
   345  O     c    -6.683818    6.691751    2.224054    0.000000    1.443000
   346  O     c    -6.683818   -6.691751   -2.224054    0.000000    1.443000
   347  O     c    -6.683818   -6.691751    2.224054    0.000000    1.443000
   348  Na    c     4.455946   -2.219675   11.197675    0.000000    1.000000
   349  Na    c     4.455946   -2.219675  -11.197675    0.000000    1.000000
   350  Na    c     4.455946    2.219675   11.197675    0.000000    1.000000
   351  Na    c     4.455946    2.219675  -11.197675    0.000000    1.000000
   352  Na    c     4.455946   11.197675   -2.219675    0.000000    1.000000
   353  Na    c     4.455946   11.197675    2.219675    0.000000    1.000000
   354  Na    c     4.455946  -11.197675   -2.219675    0.000000    1.000000
   355  Na    c     4.455946  -11.197675    2.219675    0.000000    1.000000
   356  Na    c    -0.001973   -2.219675   11.197675    0.000000    1.000000
   357  Na    c    -0.001973   -2.219675  -11.197675    0.000000    1.000000
   358  Na    c    -0.001973    2.219675   11.197675    0.000000    1.000000
   359  Na    c    -0.001973    2.219675  -11.197675    0.000000    1.000000
   360  Na    c    -0.001973   11.197675   -2.219675    0.000000    1.000000
   361  Na    c    -0.001973   11.197675    2.219675    0.000000    1.000000
   362  Na    c    -0.001973  -11.197675   -2.219675    0.000000    1.000000
   363  Na    c    -0.001973  -11.197675    2.219675    0.000000    1.000000
   364  Na    c     8.910896    6.691053    6.691053    0.000000    1.000000
   365  Na    c     8.910896    6.691053   -6.691053    0.000000    1.000000
   366  Na    c     8.910896   -6.691053    6.691053    0.000000    1.000000
   367  Na    c     8.910896   -6.691053   -6.691053    0.000000    1.000000
   368  Na    c    -4.456922    6.691053    6.691053    0.000000    1.000000
   369  Na    c    -4.456922    6.691053   -6.691053    0.000000    1.000000
   370  Na    c    -4.456922   -6.691053    6.691053    0.000000    1.000000
   371  Na    c    -4.456922   -6.691053   -6.691053    0.000000    1.000000
   372  Na    c    13.343352   -2.304002   -2.304002    0.000000    1.000000
   373  Na    c    13.343352   -2.304002    2.304002    0.000000    1.000000
   374  Na    c    13.343352    2.304002   -2.304002    0.000000    1.000000
   375  Na    c    13.343352    2.304002    2.304002    0.000000    1.000000
   376  Na    c    -8.889378   -2.304002   -2.304002    0.000000    1.000000
   377  Na    c    -8.889378   -2.304002    2.304002    0.000000    1.000000
   378  Na    c    -8.889378    2.304002   -2.304002    0.000000    1.000000
   379  Na    c    -8.889378    2.304002    2.304002    0.000000    1.000000
   380  Cl    c     8.930938    4.456646    8.922804    0.000000    0.996000
   381  Cl    c     8.930938    4.456646   -8.922804    0.000000    0.996000
   382  Cl    c     8.930938    8.922804    4.456646    0.000000    0.996000
   383  Cl    c     8.930938    8.922804   -4.456646    0.000000    0.996000
   384  Cl    c     8.930938   -4.456646    8.922804    0.000000    0.996000
   385  Cl    c     8.930938   -4.456646   -8.922804    0.000000    0.996000
   386  Cl    c     8.930938   -8.922804    4.456646    0.000000    0.996000
   387  Cl    c     8.930938   -8.922804   -4.456646    0.000000    0.996000
   388  Cl    c    -4.476964    4.456646    8.922804    0.000000    0.996000
   389  Cl    c    -4.476964    4.456646   -8.922804    0.000000    0.996000
   390  Cl    c    -4.476964    8.922804    4.456646    0.000000    0.996000
   391  Cl    c    -4.476964    8.922804   -4.456646    0.000000    0.996000
   392  Cl    c    -4.476964   -4.456646    8.922804    0.000000    0.996000
   393  Cl    c    -4.476964   -4.456646   -8.922804    0.000000    0.996000
   394  Cl    c    -4.476964   -8.922804    4.456646    0.000000    0.996000
   395  Cl    c    -4.476964   -8.922804   -4.456646    0.000000    0.996000
   396  Cl    c    13.377375    0.000000    4.467649    0.000000    0.996000
   397  Cl    c    13.377375    0.000000   -4.467649    0.000000    0.996000
   398  Cl    c    13.377375    4.467649    0.000000    0.000000    0.996000
   399  Cl    c    13.377375   -4.467649    0.000000    0.000000    0.996000
   400  Cl    c    -8.923401    0.000000    4.467649    0.000000    0.996000
   401  Cl    c    -8.923401    0.000000   -4.467649    0.000000    0.996000
   402  Cl    c    -8.923401    4.467649    0.000000    0.000000    0.996000
   403  Cl    c    -8.923401   -4.467649    0.000000    0.000000    0.996000
   404  Na    c     2.226987   11.251848    4.449701    0.000000    1.000000
   405  Na    c     2.226987   11.251848   -4.449701    0.000000    1.000000
   406  Na    c     2.226987  -11.251848    4.449701    0.000000    1.000000
   407  Na    c     2.226987  -11.251848   -4.449701    0.000000    1.000000
   408  Na    c     2.226987    4.449701   11.251848    0.000000    1.000000
   409  Na    c     2.226987    4.449701  -11.251848    0.000000    1.000000
   410  Na    c     2.226987   -4.449701   11.251848    0.000000    1.000000
   411  Na    c     2.226987   -4.449701  -11.251848    0.000000    1.000000
   412  Na    c    11.116168    6.612766    4.451302    0.000000    1.000000
   413  Na    c    11.116168    6.612766   -4.451302    0.000000    1.000000
   414  Na    c    11.116168   -6.612766    4.451302    0.000000    1.000000
   415  Na    c    11.116168   -6.612766   -4.451302    0.000000    1.000000
   416  Na    c    -6.662195    6.612766    4.451302    0.000000    1.000000
   417  Na    c    -6.662195    6.612766   -4.451302    0.000000    1.000000
   418  Na    c    -6.662195   -6.612766    4.451302    0.000000    1.000000
   419  Na    c    -6.662195   -6.612766   -4.451302    0.000000    1.000000
   420  Na    c    11.116168    4.451302    6.612766    0.000000    1.000000
   421  Na    c    11.116168    4.451302   -6.612766    0.000000    1.000000
   422  Na    c    11.116168   -4.451302    6.612766    0.000000    1.000000
   423  Na    c    11.116168   -4.451302   -6.612766    0.000000    1.000000
   424  Na    c    -6.662195    4.451302    6.612766    0.000000    1.000000
   425  Na    c    -6.662195    4.451302   -6.612766    0.000000    1.000000
   426  Na    c    -6.662195   -4.451302    6.612766    0.000000    1.000000
   427  Na    c    -6.662195   -4.451302   -6.612766    0.000000    1.000000
   428  Na    c    -2.209459    6.700990    8.911143    0.000000    1.000000
   429  Na    c    -2.209459    6.700990   -8.911143    0.000000    1.000000
   430  Na    c    -2.209459   -6.700990    8.911143    0.000000    1.000000
   431  Na    c    -2.209459   -6.700990   -8.911143    0.000000    1.000000
   432  Na    c     6.663433    6.700990    8.911143    0.000000    1.000000
   433  Na    c     6.663433    6.700990   -8.911143    0.000000    1.000000
   434  Na    c     6.663433   -6.700990    8.911143    0.000000    1.000000
   435  Na    c     6.663433   -6.700990   -8.911143    0.000000    1.000000
   436  Na    c     6.663433    8.911143    6.700990    0.000000    1.000000
   437  Na    c     6.663433    8.911143   -6.700990    0.000000    1.000000
   438  Na    c     6.663433   -8.911143    6.700990    0.000000    1.000000
   439  Na    c     6.663433   -8.911143   -6.700990    0.000000    1.000000
   440  Na    c    -2.209459    8.911143    6.700990    0.000000    1.000000
   441  Na    c    -2.209459    8.911143   -6.700990    0.000000    1.000000
   442  Na    c    -2.209459   -8.911143    6.700990    0.000000    1.000000
   443  Na    c    -2.209459   -8.911143   -6.700990    0.000000    1.000000
   444  Na    c    -2.237923   11.153850    0.000000    0.000000    1.000000
   445  Na    c    -2.237923  -11.153850    0.000000    0.000000    1.000000
   446  Na    c    -2.237923    0.000000   11.153850    0.000000    1.000000
   447  Na    c    -2.237923    0.000000  -11.153850    0.000000    1.000000
   448  Na    c     6.691896   11.153850    0.000000    0.000000    1.000000
   449  Na    c     6.691896  -11.153850    0.000000    0.000000    1.000000
   450  Na    c     6.691896    0.000000   11.153850    0.000000    1.000000
   451  Na    c     6.691896    0.000000  -11.153850    0.000000    1.000000
   452  O     c    -2.231979   -2.227928   11.138184    0.000000    1.443000
   453  O     c    -2.231979   -2.227928  -11.138184    0.000000    1.443000
   454  O     c    -2.231979    2.227928   11.138184    0.000000    1.443000
   455  O     c    -2.231979    2.227928  -11.138184    0.000000    1.443000
   456  O     c    -2.231979   11.138184   -2.227928    0.000000    1.443000
   457  O     c    -2.231979   11.138184    2.227928    0.000000    1.443000
   458  O     c    -2.231979  -11.138184   -2.227928    0.000000    1.443000
   459  O     c    -2.231979  -11.138184    2.227928    0.000000    1.443000
   460  O     c     6.685952   -2.227928   11.138184    0.000000    1.443000
   461  O     c     6.685952   -2.227928  -11.138184    0.000000    1.443000
   462  O     c     6.685952    2.227928   11.138184    0.000000    1.443000
   463  O     c     6.685952    2.227928  -11.138184    0.000000    1.443000
   464  O     c     6.685952   11.138184   -2.227928    0.000000    1.443000
   465  O     c     6.685952   11.138184    2.227928    0.000000    1.443000
   466  O     c     6.685952  -11.138184   -2.227928    0.000000    1.443000
   467  O     c     6.685952  -11.138184    2.227928    0.000000    1.443000
   468  Cl    c    13.382907    4.465806    4.465806    0.000000    0.996000
   469  Cl    c    13.382907    4.465806   -4.465806    0.000000    0.996000
   470  Cl    c    13.382907   -4.465806    4.465806    0.000000    0.996000
   471  Cl    c    13.382907   -4.465806   -4.465806    0.000000    0.996000
   472  Cl    c    -8.928933    4.465806    4.465806    0.000000    0.996000
   473  Cl    c    -8.928933    4.465806   -4.465806    0.000000    0.996000
   474  Cl    c    -8.928933   -4.465806    4.465806    0.000000    0.996000
   475  Cl    c    -8.928933   -4.465806   -4.465806    0.000000    0.996000
   476  Na    c    -2.216524   11.104475    4.452330    0.000000    1.000000
   477  Na    c    -2.216524   11.104475   -4.452330    0.000000    1.000000
   478  Na    c    -2.216524  -11.104475    4.452330    0.000000    1.000000
   479  Na    c    -2.216524  -11.104475   -4.452330    0.000000    1.000000
   480  Na    c     6.670498   11.104475    4.452330    0.000000    1.000000
   481  Na    c     6.670498   11.104475   -4.452330    0.000000    1.000000
   482  Na    c     6.670498  -11.104475    4.452330    0.000000    1.000000
   483  Na    c     6.670498  -11.104475   -4.452330    0.000000    1.000000
   484  Na    c     6.670498    4.452330   11.104475    0.000000    1.000000
   485  Na    c     6.670498    4.452330  -11.104475    0.000000    1.000000
   486  Na    c     6.670498   -4.452330   11.104475    0.000000    1.000000
   487  Na    c     6.670498   -4.452330  -11.104475    0.000000    1.000000
   488  Na    c    -2.216524    4.452330   11.104475    0.000000    1.000000
   489  Na    c    -2.216524    4.452330  -11.104475    0.000000    1.000000
   490  Na    c    -2.216524   -4.452330   11.104475    0.000000    1.000000
   491  Na    c    -2.216524   -4.452330  -11.104475    0.000000    1.000000
   492  Cl    c     4.461564    8.929422    8.929422    0.000000    0.996000
   493  Cl    c     4.461564    8.929422   -8.929422    0.000000    0.996000
   494  Cl    c     4.461564   -8.929422    8.929422    0.000000    0.996000
   495  Cl    c     4.461564   -8.929422   -8.929422    0.000000    0.996000
   496  Cl    c    -0.007590    8.929422    8.929422    0.000000    0.996000
   497  Cl    c    -0.007590    8.929422   -8.929422    0.000000    0.996000
   498  Cl    c    -0.007590   -8.929422    8.929422    0.000000    0.996000
   499  Cl    c    -0.007590   -8.929422   -8.929422    0.000000    0.996000
   500  Na    c    11.226643   -2.367219    8.908906    0.000000    1.000000
   501  Na    c    11.226643   -2.367219   -8.908906    0.000000    1.000000
   502  Na    c    11.226643    2.367219    8.908906    0.000000    1.000000
   503  Na    c    11.226643    2.367219   -8.908906    0.000000    1.000000
   504  Na    c    -6.772670   -2.367219    8.908906    0.000000    1.000000
   505  Na    c    -6.772670   -2.367219   -8.908906    0.000000    1.000000
   506  Na    c    -6.772670    2.367219    8.908906    0.000000    1.000000
[...]
     56 y          6.680961      6.680615    -0.000346    Cartesian   -0.01
     56 z          6.680961      6.680615    -0.000346    Cartesian   -0.01
     57 x          4.453974      4.454964     0.000991    Cartesian    0.02
     57 y          6.680961      6.677649    -0.003312    Cartesian   -0.05
     57 z         11.134934     11.154716     0.019781    Cartesian    0.18
     58 x          8.907948      8.912614     0.004666    Cartesian    0.05
     58 y         -2.226987     -2.230404    -0.003418    Cartesian    0.15
     58 z         11.134934     11.027928    -0.107006    Cartesian   -0.96
     59 x         13.361921     13.364932     0.003011    Cartesian    0.02
     59 y         -2.226987     -2.214280     0.012707    Cartesian   -0.57
     59 z          6.680961      6.607092    -0.073869    Cartesian   -1.11
     60 x          4.453974      4.448066    -0.005908    Cartesian   -0.13
     60 y          0.000000      0.000000     0.000000    Cartesian    0.00
     60 z         13.361921     13.372835     0.010914    Cartesian    0.08
     61 x          2.226987      2.226987     0.000000    Cartesian    0.00
     61 y         -2.226987     -2.075713     0.151274    Cartesian   -6.79
     61 z         13.361921     13.370103     0.008182    Cartesian    0.06
     62 x         15.588908     15.449458    -0.139450    Cartesian   -0.89
     62 y         -2.226987     -2.233967    -0.006980    Cartesian    0.31
     62 z          0.000000      0.000000     0.000000    Cartesian    0.00
     63 x          6.680961      6.683828     0.002867    Cartesian    0.04
     63 y          6.680961      6.679140    -0.001821    Cartesian   -0.03
     63 z         11.134934     11.136238     0.001303    Cartesian    0.01
     64 x         15.588908     15.578472    -0.010436    Cartesian   -0.07
     64 y         -2.226987     -2.223263     0.003723    Cartesian   -0.17
     64 z         -2.226987     -2.223263     0.003723    Cartesian   -0.17
     65 x          8.907948      8.906924    -0.001024    Cartesian   -0.01
     65 y          8.907948      8.916619     0.008672    Cartesian    0.10
     65 z          8.907948      8.916619     0.008672    Cartesian    0.10
     66 x         13.361921     13.373968     0.012046    Cartesian    0.09
     66 y          0.000000      0.000000     0.000000    Cartesian    0.00
     66 z          8.907948      8.920364     0.012416    Cartesian    0.14
     67 x          2.226987      2.226987     0.000000    Cartesian    0.00
     67 y         11.134934     11.132820    -0.002114    Cartesian   -0.02
     67 z          8.907948      8.908255     0.000308    Cartesian    0.00
     68 x         11.134934     11.150605     0.015671    Cartesian    0.14
     68 y          6.680961      6.647543    -0.033418    Cartesian   -0.50
     68 z          8.907948      8.905433    -0.002514    Cartesian   -0.03
     69 x         11.134934     11.147984     0.013050    Cartesian    0.12
     69 y         11.134934     11.038509    -0.096426    Cartesian   -0.87
     69 z          0.000000      0.000000     0.000000    Cartesian    0.00
     70 x          4.453974      4.463426     0.009452    Cartesian    0.21
     70 y          4.453974      4.464460     0.010486    Cartesian    0.24
     70 z         13.361921     13.366249     0.004327    Cartesian    0.03
     71 x         15.588908     15.654887     0.065978    Cartesian    0.42
     71 y         -2.226987     -2.220990     0.005997    Cartesian   -0.27
     71 z          4.453974      4.448608    -0.005366    Cartesian   -0.12
     72 x         -2.226987     -2.306321    -0.079334    Cartesian    3.56
     72 y         -2.226987     -2.232086    -0.005099    Cartesian    0.23
     72 z         13.361921     13.360084    -0.001837    Cartesian   -0.01
     73 x         11.134934     11.137069     0.002134    Cartesian    0.02
     73 y         11.134934     11.134746    -0.000189    Cartesian   -0.00
     73 z         -2.226987     -2.227658    -0.000672    Cartesian    0.03
     74 x          8.907948      8.909063     0.001115    Cartesian    0.01
     74 y          6.680961      6.687009     0.006048    Cartesian    0.09
     74 z         11.134934     11.116403    -0.018531    Cartesian   -0.17
     75 x         13.361921     13.361493    -0.000429    Cartesian   -0.00
     75 y          6.680961      6.673000    -0.007961    Cartesian   -0.12
     75 z          6.680961      6.673000    -0.007961    Cartesian   -0.12
     76 x         13.361921     13.376143     0.014221    Cartesian    0.11
     76 y          8.907948      8.921940     0.013992    Cartesian    0.16
     76 z          4.453974      4.464120     0.010146    Cartesian    0.23
     77 x         11.134934     11.126945    -0.007990    Cartesian   -0.07
     77 y         11.134934     11.181770     0.046835    Cartesian    0.42
     77 z          4.453974      4.457806     0.003832    Cartesian    0.09
     78 x          6.680961      6.679324    -0.001637    Cartesian   -0.02
     78 y         11.134934     11.133300    -0.001634    Cartesian   -0.01
     78 z          8.907948      8.907501    -0.000446    Cartesian   -0.01
     79 x          8.907948      8.891040    -0.016907    Cartesian   -0.19
     79 y          0.000000      0.000000     0.000000    Cartesian    0.00
     79 z         13.361921     13.387505     0.025584    Cartesian    0.19
     80 x          2.226987      2.226987     0.000000    Cartesian    0.00
     80 y          6.680961      6.708434     0.027473    Cartesian    0.41
     80 z         13.361921     13.368167     0.006246    Cartesian    0.05
     81 x         15.588908     15.586874    -0.002034    Cartesian   -0.01
     81 y          6.680961      6.675757    -0.005204    Cartesian   -0.08
     81 z          0.000000      0.000000     0.000000    Cartesian    0.00
     82 x         15.588908     15.591965     0.003057    Cartesian    0.02
     82 y         -2.226987     -2.226840     0.000147    Cartesian   -0.01
     82 z          6.680961      6.679579    -0.001382    Cartesian   -0.02
     83 x        -13.361921    -13.426146    -0.064224    Cartesian    0.48
     83 y          0.000000      0.000000     0.000000    Cartesian    0.00
     83 z          0.000000      0.000000     0.000000    Cartesian    0.00
     84 x          2.226987      2.226987     0.000000    Cartesian    0.00
     84 y         15.588908     15.687034     0.098126    Cartesian    0.63
     84 z          0.000000      0.000000     0.000000    Cartesian    0.00
     85 x          8.907948      8.921977     0.014029    Cartesian    0.16
     85 y          4.453974      4.458088     0.004114    Cartesian    0.09
     85 z         13.361921     13.384843     0.022922    Cartesian    0.17
     86 x          6.680961      6.688632     0.007672    Cartesian    0.11
     86 y          6.680961      6.665717    -0.015243    Cartesian   -0.23
     86 z         13.361921     13.360195    -0.001727    Cartesian   -0.01
     87 x         15.588908     15.578222    -0.010687    Cartesian   -0.07
     87 y          6.680961      6.671435    -0.009525    Cartesian   -0.14
     87 z          4.453974      4.452648    -0.001326    Cartesian   -0.03
     88 x          2.226987      2.226987     0.000000    Cartesian    0.00
     88 y         -2.226987     -2.226298     0.000689    Cartesian   -0.03
     88 z         15.588908     15.592788     0.003880    Cartesian    0.02
     89 x          2.226987      2.226987     0.000000    Cartesian    0.00
     89 y         11.134934     11.137560     0.002625    Cartesian    0.02
     89 z         11.134934     11.137560     0.002625    Cartesian    0.02
     90 x         11.134934     11.137018     0.002083    Cartesian    0.02
     90 y          6.680961      6.683515     0.002554    Cartesian    0.04
     90 z         11.134934     11.136901     0.001967    Cartesian    0.02
     91 x          4.453974      4.457511     0.003538    Cartesian    0.08
     91 y         -2.226987     -2.224817     0.002170    Cartesian   -0.10
     91 z         15.588908     15.556764    -0.032145    Cartesian   -0.21
     92 x        -13.361921    -13.353379     0.008543    Cartesian   -0.06
     92 y         -2.226987     -2.163598     0.063389    Cartesian   -2.85
     92 z         -2.226987     -2.163598     0.063389    Cartesian   -2.85
     93 x          4.453974      4.454248     0.000274    Cartesian    0.01
     93 y         11.134934     11.119257    -0.015678    Cartesian   -0.14
     93 z         11.134934     11.119257    -0.015678    Cartesian   -0.14
     94 x         13.361921     13.363110     0.001189    Cartesian    0.01
     94 y         -2.226987     -2.225728     0.001259    Cartesian   -0.06
     94 z         11.134934     11.144170     0.009235    Cartesian    0.08
     95 x          2.226987      2.226987     0.000000    Cartesian    0.00
     95 y          0.000000      0.000000     0.000000    Cartesian    0.00
     95 z          0.000000      0.000000     0.000000    Cartesian    0.00
     96 x          4.453974      5.148841     0.694867    Cartesian   15.60
     96 y          0.000000      0.000000     0.000000    Cartesian    0.00
     96 z          0.000000      0.000000     0.000000    Cartesian    0.00
     97 x          2.226987      2.226987     0.000000    Cartesian    0.00
     97 y         -2.226987     -2.336129    -0.109142    Cartesian    4.90
     97 z         -2.226987     -2.336129    -0.109142    Cartesian    4.90
     98 x          4.453974      4.444545    -0.009429    Cartesian   -0.21
     98 y          0.000000      0.000000     0.000000    Cartesian    0.00
     98 z          4.453974      4.496793     0.042819    Cartesian    0.96
     99 x         -2.226987     -2.252243    -0.025256    Cartesian    1.13
     99 y         -2.226987     -2.259339    -0.032352    Cartesian    1.45
     99 z         -2.226987     -2.259339    -0.032352    Cartesian    1.45
    100 x          4.453974      4.456392     0.002418    Cartesian    0.05
    100 y          4.453974      4.571260     0.117286    Cartesian    2.63
    100 z          4.453974      4.571260     0.117286    Cartesian    2.63
    101 x          8.907948      9.033570     0.125623    Cartesian    1.41
    101 y          0.000000      0.000000     0.000000    Cartesian    0.00
    101 z          0.000000      0.000000     0.000000    Cartesian    0.00
    102 x          2.226987      2.226987     0.000000    Cartesian    0.00
    102 y         -2.226987     -2.255382    -0.028395    Cartesian    1.28
    102 z          6.680961      6.707417     0.026456    Cartesian    0.40
    103 x          8.907948      8.939336     0.031388    Cartesian    0.35
    103 y          0.000000      0.000000     0.000000    Cartesian    0.00
    103 z          4.453974      4.465796     0.011823    Cartesian    0.27
    104 x          6.680961      6.667979    -0.012981    Cartesian   -0.19
    104 y         -2.226987     -2.228028    -0.001042    Cartesian    0.05
    104 z          6.680961      6.688870     0.007910    Cartesian    0.12
    105 x          4.453974      4.482936     0.028962    Cartesian    0.65
    105 y          0.000000      0.000000     0.000000    Cartesian    0.00
    105 z          8.907948      8.935582     0.027635    Cartesian    0.31
    106 x          8.907948      8.959914     0.051966    Cartesian    0.58
    106 y          4.453974      4.485638     0.031664    Cartesian    0.71
    106 z          4.453974      4.485638     0.031664    Cartesian    0.71
    107 x          2.226987      2.226987     0.000000    Cartesian    0.00
    107 y          6.680961      6.708723     0.027763    Cartesian    0.42
    107 z          6.680961      6.708723     0.027763    Cartesian    0.42
    108 x         11.134934     11.120557    -0.014378    Cartesian   -0.13
    108 y         -2.226987     -2.242155    -0.015169    Cartesian    0.68
    108 z         -2.226987     -2.242155    -0.015169    Cartesian    0.68
    109 x          4.453974      4.461432     0.007458    Cartesian    0.17
    109 y          4.453974      4.454494     0.000520    Cartesian    0.01
    109 z          8.907948      8.925705     0.017758    Cartesian    0.20
    110 x          6.680961      6.687371     0.006410    Cartesian    0.10
    110 y          6.680961      6.693978     0.013018    Cartesian    0.19
    110 z          6.680961      6.693978     0.013018    Cartesian    0.19
    111 x          8.907948      8.890839    -0.017109    Cartesian   -0.19
    111 y          0.000000      0.000000     0.000000    Cartesian    0.00
    111 z          8.907948      8.919611     0.011664    Cartesian    0.13
    112 x         13.361921     13.379269     0.017348    Cartesian    0.13
    112 y          0.000000      0.000000     0.000000    Cartesian    0.00
    112 z          0.000000      0.000000     0.000000    Cartesian    0.00
    113 x          2.226987      2.226987     0.000000    Cartesian    0.00
    113 y         -2.226987     -2.221831     0.005156    Cartesian   -0.23
    113 z         11.134934     11.150106     0.015172    Cartesian    0.14
    114 x         11.134934     11.140251     0.005317    Cartesian    0.05
    114 y         -2.226987     -2.229261    -0.002274    Cartesian    0.10
    114 z          6.680961      6.695005     0.014044    Cartesian    0.21
    115 x          8.907948      8.938730     0.030783    Cartesian    0.35
    115 y          4.453974      4.453157    -0.000817    Cartesian   -0.02
    115 z          8.907948      8.928479     0.020531    Cartesian    0.23
    116 x         13.361921     13.386803     0.024882    Cartesian    0.19
    116 y          0.000000      0.000000     0.000000    Cartesian    0.00
    116 z          4.453974      4.469867     0.015893    Cartesian    0.36
    117 x         -2.226987     -2.230415    -0.003428    Cartesian    0.15
    117 y         -2.226987     -2.226508     0.000479    Cartesian   -0.02
    117 z         11.134934     11.136465     0.001530    Cartesian    0.01
    118 x         13.361921     13.386791     0.024870    Cartesian    0.19
    118 y          4.453974      4.469695     0.015722    Cartesian    0.35
    118 z          4.453974      4.469695     0.015722    Cartesian    0.35
    119 x          4.453974      4.465776     0.011802    Cartesian    0.26
    119 y          8.907948      8.934886     0.026938    Cartesian    0.30
    119 z          8.907948      8.934886     0.026938    Cartesian    0.30
    120 x          2.226987      2.226987     0.000000    Cartesian    0.00
    120 y          6.680961      6.681976     0.001015    Cartesian    0.02
    120 z         11.134934     11.153443     0.018508    Cartesian    0.17
    121 x         11.134934     11.140192     0.005257    Cartesian    0.05
    121 y          6.680961      6.676441    -0.004519    Cartesian   -0.07
    121 z          6.680961      6.676441    -0.004519    Cartesian   -0.07
    122 x          4.453974      4.438378    -0.015595    Cartesian   -0.35
    122 y          0.000000      0.000000     0.000000    Cartesian    0.00
    122 z         13.361921     13.374047     0.012126    Cartesian    0.09
    123 x          6.680961      6.683151     0.002190    Cartesian    0.03
    123 y          6.680961      6.679585    -0.001376    Cartesian   -0.02
    123 z         11.134934     11.134361    -0.000573    Cartesian   -0.01
    124 x         15.588908     15.574685    -0.014223    Cartesian   -0.09
    124 y         -2.226987     -2.225386     0.001601    Cartesian   -0.07
    124 z         -2.226987     -2.225386     0.001601    Cartesian   -0.07
    125 x          8.907948      8.903750    -0.004198    Cartesian   -0.05
    125 y          8.907948      8.918921     0.010973    Cartesian    0.12
    125 z          8.907948      8.918921     0.010973    Cartesian    0.12
    126 x         13.361921     13.371452     0.009531    Cartesian    0.07
    126 y          0.000000      0.000000     0.000000    Cartesian    0.00
    126 z          8.907948      8.925039     0.017092    Cartesian    0.19
    127 x          4.453974      4.463535     0.009561    Cartesian    0.21
    127 y          4.453974      4.469219     0.015246    Cartesian    0.34
    127 z         13.361921     13.362970     0.001049    Cartesian    0.01
    128 x         11.134934     11.143458     0.008524    Cartesian    0.08
    128 y         11.134934     11.127379    -0.007555    Cartesian   -0.07
    128 z         -2.226987     -2.236581    -0.009594    Cartesian    0.43
    129 x         13.361921     13.372265     0.010344    Cartesian    0.08
    129 y          8.907948      8.926815     0.018867    Cartesian    0.21
    129 z          4.453974      4.461647     0.007673    Cartesian    0.17
    130 x          8.907948      8.879981    -0.027966    Cartesian   -0.31
    130 y          0.000000      0.000000     0.000000    Cartesian    0.00
    130 z         13.361921     13.398765     0.036844    Cartesian    0.28
    131 x         15.588908     15.596612     0.007703    Cartesian    0.05
    131 y         -2.226987     -2.226056     0.000931    Cartesian   -0.04
    131 z          6.680961      6.675582    -0.005378    Cartesian   -0.08
    132 x        -13.361921    -13.449761    -0.087839    Cartesian    0.66
    132 y          0.000000      0.000000     0.000000    Cartesian    0.00
    132 z          0.000000      0.000000     0.000000    Cartesian    0.00
    133 x          8.907948      8.924505     0.016557    Cartesian    0.19
    133 y          4.453974      4.458740     0.004766    Cartesian    0.11
    133 z         13.361921     13.391570     0.029649    Cartesian    0.22
    134 x          2.226987      2.226987     0.000000    Cartesian    0.00
    134 y         -2.226987     -2.216442     0.010544    Cartesian   -0.47
    134 z         15.588908     15.596451     0.007543    Cartesian    0.05
    135 x          2.226987      2.226987     0.000000    Cartesian    0.00
    135 y         11.134934     11.136769     0.001835    Cartesian    0.02
    135 z         11.134934     11.136769     0.001835    Cartesian    0.02
    136 x         11.134934     11.138335     0.003401    Cartesian    0.03
    136 y          6.680961      6.681815     0.000854    Cartesian    0.01
    136 z         11.134934     11.141252     0.006317    Cartesian    0.06
--------------------------------------------------------------------------------


  Time to end of optimisation  =       45.8973 seconds


  Peak dynamic memory used =     317.87 MB 


  Timing analysis for GULP :

--------------------------------------------------------------------------------
  Task / Subroutine                                          Time (Seconds)
--------------------------------------------------------------------------------
  Calculation of reciprocal space energy and derivatives          0.0002
  Calculation of reciprocal space energy using symmetry           0.0003
  Calculation of real space energy and derivatives                0.0013
  Calculation of real space energy using symmetry                 0.0031
  Calculation for region 1 energy and derivatives (2-b)          26.3347
  Calculation for region 2a energy                               17.9317
  Calculation for region 2b energy                                0.0003
  Calculation and manipulation of Hessian matrix                  1.2174
  Calculation of matrix inversion                                 0.0693
  Symmetry generation of equivalent positions                     0.0016
--------------------------------------------------------------------------------
  Total CPU time                                                 45.8974
--------------------------------------------------------------------------------


  Dump file written as Na3OCl.grs


  Job Finished at 17:07.59  1st March      2021                               

