********************************************************************************
*                       GENERAL UTILITY LATTICE PROGRAM                        *
*                                 Julian Gale                                  *
*                       Curtin Institute for Computation                       *
*                    School of Molecular and Life Sciences                     *
*                    Curtin University, Western Australia                      *
********************************************************************************
* Version = 5.2.0 * Last modified =  10th September 2020                       *
********************************************************************************
*  optimise     - perform optimisation run                                     *
*  conp         - constant pressure calculation                                *
*  property     - calculate properties for final geometry                      *
*  defect       - perform defect calculation after bulk run                    *
*  compare      - compare initial and final structures                         *
********************************************************************************

  Job Started  at 17:07.10  1st March      2021                               

  Number of CPUs =     1


  Total number of configurations input =      1

********************************************************************************
*  Input for Configuration =   1                                               *
********************************************************************************

  Formula = ClONa3                                                      

  Number of irreducible atoms/shells =       5


  Total number atoms/shells =       7

  Dimensionality = 3               :  Bulk   


  Symmetry :

  Crystal family                   :  Cubic       
  Crystal class  (Groth - 1921)    :  Cubic Hexakisoctahedral              

  Space group (centrosymmetric)    :  P M 3 M         

  Patterson group                  :  P m -3 m 

  Cartesian lattice vectors (Angstroms) :

        4.504000    0.000000    0.000000
        0.000000    4.504000    0.000000
        0.000000    0.000000    4.504000

  Cell parameters (Angstroms/Degrees):

  a =       4.5040    alpha =  90.0000
  b =       4.5040    beta  =  90.0000
  c =       4.5040    gamma =  90.0000

  Initial cell volume =          91.368216 Angs**3

  Temperature of configuration =   0.00     K 

  Pressure of configuration =         0.000 GPa 

  Fractional coordinates of asymmetric unit :

--------------------------------------------------------------------------------
   No.  Atomic       x           y          z         Charge      Occupancy
        Label      (Frac)      (Frac)     (Frac)        (e)         (Frac)  
--------------------------------------------------------------------------------
      1 Cl    c    0.000000    0.000000    0.000000     0.99600    1.000000    
      2 O     c    0.500000    0.500000    0.500000     1.44300    1.000000    
      3 Na    c    0.500000    0.500000    0.000000     1.00000    1.000000    
      4 Cl    s    0.000000    0.000000    0.000000    -1.99600    1.000000    
      5 O     s    0.500000    0.500000    0.500000    -3.44300    1.000000    
--------------------------------------------------------------------------------


  Constraints : 

--------------------------------------------------------------------------------
  Constraint no.      Unconstrained     Constrained    Coefficient    Offset
                         Variable         Variable
--------------------------------------------------------------------------------
           1              Strain 1        Strain 2       1.00000      0.0000
           2              Strain 1        Strain 3       1.00000      0.0000
--------------------------------------------------------------------------------


********************************************************************************
*  General input information                                                   *
********************************************************************************

  Species output for all configurations : 

--------------------------------------------------------------------------------
  Species    Type    Atomic    Atomic    Charge       Radii (Angs)     Library
                     Number     Mass       (e)     Cova   Ionic  VDW   Symbol
--------------------------------------------------------------------------------
    Na       Core       11      22.99   1.000000   0.970  0.000  2.300          
    O        Core        8      16.00   1.443000   0.730  0.000  1.360          
    O        Shell       8       0.00  -3.443000   0.730  0.000  1.360          
    Cl       Core       17      35.45   0.996000   0.990  0.000  1.650          
    Cl       Shell      17       0.00  -1.996000   0.990  0.000  1.650          
--------------------------------------------------------------------------------


  Lattice summation method               =    Ewald          (3-D)
                                         =    Parry          (2-D)
                                         =    Saunders et al (1-D)
  Accuracy factor for lattice sums       =   12.000


  Analytic derivatives to be used

  Time limit = Infinity

  Maximum range for interatomic potentials =    100000.000000 Angstroms

  General interatomic potentials :

--------------------------------------------------------------------------------
Atom  Types   Potential      Parameter       Value         Units   Cutoffs(Ang)
  1     2                                                            Min /  Max 
--------------------------------------------------------------------------------
O    c O    s Spring (c-s)  Spring k 2       20.486200    eV*Ang^-2 0.000  0.800
                            Spring k 4       0.0000000    eV*Ang^-4 
--------------------------------------------------------------------------------
Cl   c Cl   s Spring (c-s)  Spring k 2       10.001500    eV*Ang^-2 0.000  0.800
                            Spring k 4       0.0000000    eV*Ang^-4 
--------------------------------------------------------------------------------
Na   c Na   c Buckingham    Buckingham A     29281.710    eV        0.000 12.000
                            Buckingham rho  0.37200000E-01Ang       
                            Buckingham C     0.0000000    eV*Ang^6  
--------------------------------------------------------------------------------
Na   c O    s Buckingham    Buckingham A     602.40000    eV        0.000 12.000
                            Buckingham rho  0.34280000    Ang       
                            Buckingham C     0.0000000    eV*Ang^6  
--------------------------------------------------------------------------------
Na   c Cl   s Buckingham    Buckingham A     3515.6900    eV        0.000 12.000
                            Buckingham rho  0.27460000    Ang       
                            Buckingham C     0.0000000    eV*Ang^6  
--------------------------------------------------------------------------------
O    s O    s Buckingham    Buckingham A     25201.690    eV        0.000 12.000
                            Buckingham rho  0.16450000    Ang       
                            Buckingham C     13.190000    eV*Ang^6  
--------------------------------------------------------------------------------
O    s Cl   s Buckingham    Buckingham A     1105.8600    eV        0.000 12.000
                            Buckingham rho  0.31330000    Ang       
                            Buckingham C     62.200000    eV*Ang^6  
--------------------------------------------------------------------------------
Cl   s Cl   s Buckingham    Buckingham A     31408.750    eV        0.000 12.000
                            Buckingham rho  0.13660000    Ang       
                            Buckingham C     14.530000    eV*Ang^6  
--------------------------------------------------------------------------------

********************************************************************************
*  Output for configuration   1                                                *
********************************************************************************


  Components of energy : 

--------------------------------------------------------------------------------
  Interatomic potentials     =           5.33200327 eV    
  Monopole - monopole (real) =         -10.03624526 eV    
  Monopole - monopole (recip)=         -29.53581274 eV    
  Monopole - monopole (total)=         -39.57205800 eV    
--------------------------------------------------------------------------------
  Total lattice energy       =         -34.24005473 eV    
--------------------------------------------------------------------------------
  Total lattice energy       =           -3303.6419 kJ/(mole unit cells)
--------------------------------------------------------------------------------


  Number of variables =        1

  Maximum number of calculations  =          1000
  Maximum Hessian update interval =            10
  Maximum step size               =   1.000000000
  Maximum parameter tolerance     =   0.000010000
  Maximum function  tolerance     =   0.000010000
  Maximum gradient  tolerance     =   0.001000000
  Maximum gradient  component     =   0.010000000

  Symmetry constrained optimisation

  Symmetry used for second derivatives

  Cell parameters to be optimised using strains

  Newton-Raphson optimiser to be used

  BFGS hessian update to be used

  Lower half triangular hessian to be used

  Start of bulk optimisation :

  Cycle:      0 Energy:       -34.240055  Gnorm:      2.245244  CPU:    0.008
  ** Hessian calculated **
  Cycle:      1 Energy:       -34.252747  Gnorm:      0.013309  CPU:    0.010


  **** Optimisation achieved ****


  Final energy =     -34.25274716 eV
  Final Gnorm  =       0.00056121

  Components of energy : 

--------------------------------------------------------------------------------
  Interatomic potentials     =           5.76377683 eV    
  Monopole - monopole (real) =         -10.14897050 eV    
  Monopole - monopole (recip)=         -29.86755349 eV    
  Monopole - monopole (total)=         -40.01652399 eV    
--------------------------------------------------------------------------------
  Total lattice energy       =         -34.25274716 eV    
--------------------------------------------------------------------------------
  Total lattice energy       =           -3304.8665 kJ/(mole unit cells)
--------------------------------------------------------------------------------

  Final asymmetric unit coordinates :

--------------------------------------------------------------------------------
   No.  Atomic        x           y           z         Radius
        Label       (Frac)      (Frac)      (Frac)       (Angs) 
--------------------------------------------------------------------------------
     1  Cl    c     0.000000    0.000000    0.000000    0.000000
     2  O     c     0.500000    0.500000    0.500000    0.000000
     3  Na    c     0.500000    0.500000    0.000000    0.000000
     4  Cl    s     0.000000    0.000000    0.000000    0.000000
     5  O     s     0.500000    0.500000    0.500000    0.000000
--------------------------------------------------------------------------------

  Final Cartesian lattice vectors (Angstroms) :

        4.453974    0.000000    0.000000
        0.000000    4.453974    0.000000
        0.000000    0.000000    4.453974


  Final cell parameters and derivatives :

--------------------------------------------------------------------------------
       a            4.453974 Angstrom     dE/de1(xx)     0.000561 eV/strain
       b            4.453974 Angstrom     dE/de2(yy)     0.000000 eV/strain
       c            4.453974 Angstrom     dE/de3(zz)     0.000000 eV/strain
       alpha       90.000000 Degrees      dE/de4(yz)     0.000000 eV/strain
       beta        90.000000 Degrees      dE/de5(xz)     0.000000 eV/strain
       gamma       90.000000 Degrees      dE/de6(xy)     0.000000 eV/strain
--------------------------------------------------------------------------------

  Primitive cell volume =            88.357409 Angs**3

  Density of cell =      2.263141 g/cm**3

  Non-primitive cell volume =            88.357409 Angs**3


  Final internal derivatives :

--------------------------------------------------------------------------------
   No.  Atomic          a             b             c           Radius
        Label          (eV)          (eV)          (eV)        (eV/Angs)
--------------------------------------------------------------------------------
      1 Cl    c       0.000000      0.000000      0.000000      0.000000
      2 O     c       0.000000      0.000000      0.000000      0.000000
      3 Na    c       0.000000      0.000000      0.000000      0.000000
      4 Cl    s       0.000000      0.000000      0.000000      0.000000
      5 O     s       0.000000      0.000000      0.000000      0.000000
--------------------------------------------------------------------------------
  Maximum abs         0.000000      0.000000      0.000000      0.000000
--------------------------------------------------------------------------------

  Comparison of initial and final structures : 

--------------------------------------------------------------------------------
  Parameter   Initial value   Final value   Difference    Units      Percent
--------------------------------------------------------------------------------
    Volume        91.368216     88.357409    -3.010807    Angs**3     -3.30
    a              4.504000      4.453974    -0.050026    Angstroms   -1.11
    b              4.504000      4.453974    -0.050026    Angstroms   -1.11
    c              4.504000      4.453974    -0.050026    Angstroms   -1.11
    alpha         90.000000     90.000000     0.000000    Degrees      0.00
    beta          90.000000     90.000000     0.000000    Degrees      0.00
    gamma         90.000000     90.000000     0.000000    Degrees      0.00
      1 x          0.000000      0.000000     0.000000    Fractional   0.00
      1 y          0.000000      0.000000     0.000000    Fractional   0.00
      1 z          0.000000      0.000000     0.000000    Fractional   0.00
      2 x          0.500000      0.500000     0.000000    Fractional   0.00
      2 y          0.500000      0.500000     0.000000    Fractional   0.00
      2 z          0.500000      0.500000     0.000000    Fractional   0.00
      3 x          0.500000      0.500000     0.000000    Fractional   0.00
      3 y          0.500000      0.500000     0.000000    Fractional   0.00
      3 z          0.000000      0.000000     0.000000    Fractional   0.00
      4 x          0.000000      0.000000     0.000000    Fractional   0.00
      4 y          0.000000      0.000000     0.000000    Fractional   0.00
      4 z          0.000000      0.000000     0.000000    Fractional   0.00
      5 x          0.500000      0.500000     0.000000    Fractional   0.00
      5 y          0.500000      0.500000     0.000000    Fractional   0.00
      5 z          0.500000      0.500000     0.000000    Fractional   0.00
--------------------------------------------------------------------------------


  Born effective charge tensors : 

-------------------------------------------------------------------------------
  Atom             x           y             z
-------------------------------------------------------------------------------
    1 Cl    x      -1.4271      0.0000      0.0000
            y       0.0000     -1.4271      0.0000
            z       0.0000      0.0000     -1.4271
-------------------------------------------------------------------------------
    2 O     x      -1.6137     -0.0000     -0.0000
            y      -0.0000     -1.6137     -0.0000
            z      -0.0000     -0.0000     -1.6137
-------------------------------------------------------------------------------
    3 Na    x       0.8295     -0.0000     -0.0000
            y      -0.0000      0.8295      0.0000
            z      -0.0000      0.0000      1.3817
-------------------------------------------------------------------------------




  Elastic Constant Matrix: (Units=GPa)

-------------------------------------------------------------------------------
  Indices      1         2         3         4         5         6    
-------------------------------------------------------------------------------
       1     82.8226   21.5342   21.5342    0.0000   -0.0000   -0.0000
       2     21.5342   82.8226   21.5342   -0.0000    0.0000   -0.0000
       3     21.5342   21.5342   82.8226    0.0000    0.0000   -0.0000
       4      0.0000   -0.0000    0.0000   21.5346   -0.0000    0.0000
       5     -0.0000    0.0000    0.0000   -0.0000   21.5346    0.0000
       6     -0.0000   -0.0000   -0.0000    0.0000    0.0000   21.5346
-------------------------------------------------------------------------------


  Elastic Compliance Matrix: (Units=1/GPa)

-------------------------------------------------------------------------------
  Indices      1         2         3         4         5         6    
-------------------------------------------------------------------------------
       1    0.013525 -0.002791 -0.002791 -0.000000  0.000000  0.000000
       2   -0.002791  0.013525 -0.002791  0.000000 -0.000000  0.000000
       3   -0.002791 -0.002791  0.013525 -0.000000 -0.000000  0.000000
       4   -0.000000  0.000000 -0.000000  0.046437  0.000000 -0.000000
       5    0.000000 -0.000000 -0.000000  0.000000  0.046437 -0.000000
       6    0.000000  0.000000  0.000000 -0.000000 -0.000000  0.046437
-------------------------------------------------------------------------------

  Mechanical properties :

-------------------------------------------------------------------------------
  Convention :                    Reuss         Voigt         Hill
-------------------------------------------------------------------------------
  Bulk  Modulus (GPa)     =      41.96371      41.96371      41.96371
  Shear Modulus (GPa)     =      24.44079      25.17843      24.80961
-------------------------------------------------------------------------------
  Velocity S-wave (km/s)  =       3.28626       3.33548       3.31096
  Velocity P-wave (km/s)  =       5.73948       5.77721       5.75837
-------------------------------------------------------------------------------
  Compressibility (1/GPa) =    0.02383011
-------------------------------------------------------------------------------
  Stress axis :                     x             y             z
-------------------------------------------------------------------------------
  Youngs Moduli (GPa)     =      73.93539      73.93539      73.93539
-------------------------------------------------------------------------------
  Poissons Ratio (x)      =                     0.20635       0.20635
  Poissons Ratio (y)      =       0.20635                     0.20635
  Poissons Ratio (z)      =       0.20635       0.20635
-------------------------------------------------------------------------------


  Piezoelectric Strain Matrix: (Units=C/m**2)

-------------------------------------------------------------------------------
  Indices      1         2         3         4         5         6    
-------------------------------------------------------------------------------
       x     0.00000  -0.00000   0.00000   0.00000  -0.00000  -0.00000
       y    -0.00000  -0.00000  -0.00000  -0.00000   0.00000   0.00000
       z    -0.00000  -0.00000   0.00000   0.00000   0.00000   0.00000
-------------------------------------------------------------------------------


  Piezoelectric Stress Matrix: (Units=10**-11 C/N)

-------------------------------------------------------------------------------
  Indices      1         2         3         4         5         6    
-------------------------------------------------------------------------------
       x     0.00000  -0.00000  -0.00000   0.00000  -0.00000  -0.00000
       y    -0.00000   0.00000   0.00000  -0.00000   0.00000   0.00000
       z    -0.00000  -0.00000   0.00000   0.00000   0.00000   0.00000
-------------------------------------------------------------------------------


  Static dielectric constant tensor : 

-------------------------------------------------------------------------------
              x         y         z
-------------------------------------------------------------------------------
       x    28.60451  -0.00000  -0.00000
       y    -0.00000  28.60451  -0.00000
       z    -0.00000  -0.00000  28.60451
--------------------------------------------------------------------------------

  High frequency dielectric constant tensor : 

-------------------------------------------------------------------------------
              x         y         z
-------------------------------------------------------------------------------
       x     3.92296  -0.00000  -0.00000
       y    -0.00000   3.92296   0.00000
       z    -0.00000   0.00000   3.92296
-------------------------------------------------------------------------------

  Static refractive indices : 

-------------------------------------------------------------------------------
    1 =    5.34832      2 =    5.34832      3 =    5.34832
-------------------------------------------------------------------------------

  High frequency refractive indices : 

-------------------------------------------------------------------------------
    1 =    1.98065      2 =    1.98065      3 =    1.98065
-------------------------------------------------------------------------------


  Time to end of optimisation =       0.0149 seconds

********************************************************************************
*  Defect calculation for configuration   1 :                                  *
********************************************************************************

  Total number of defects =      1

  Total charge on defect  =   1.00

  Defect centre is at   0.5000   0.0000   0.0000  Frac

  Region 1 radius =  16.0000      Number of ions =   1369

  Number of symmetry inequivalent region 1 ions  =    135

  Region 2 radius =  24.0000      Number of ions =   3184

  Number of symmetry inequivalent region 2a ions =    254

  Region 2a mode = 4 : screened electrostatics due to region 1 
                       neglect correction to region 1 forces from 2a
                       region 2a displacements based on defects only

  Region 2a ions will only interact with defects in region 1

  Interstitials:

--------------------------------------------------------------------------------
    Specification type     Symbol/Number         x          y          z
--------------------------------------------------------------------------------
    Atom/Fractional         Na               0.500000   0.000000   0.000000
--------------------------------------------------------------------------------


  Symmetry reduced region 1 (Relative to defect centre) :

--------------------------------------------------------------------------------
   No.   Atomic       x            y             z       Radius  Multiplicity   
         Label      (Angs)       (Angs)        (Angs)    (Angs)     
--------------------------------------------------------------------------------
     1  Na    c      0.0000       0.0000       0.0000    0.0000     1    Defect
     2  Cl    c      2.2270 *     0.0000       0.0000    0.0000     2          
     3  Na    c      0.0000      -2.2270 *     0.0000    0.0000     4          
     4  O     c      0.0000      -2.2270 *    -2.2270    0.0000     4          
     5  Na    c      2.2270 *    -2.2270 *    -2.2270    0.0000     8          
     6  Cl    c      2.2270 *     0.0000       4.4540 *  0.0000     8          
     7  Na    c      0.0000      -2.2270 *     4.4540 *  0.0000     8          
     8  Na    c     -4.4540 *    -2.2270 *     0.0000    0.0000     8          
     9  O     c     -4.4540 *    -2.2270 *    -2.2270    0.0000     8          
    10  Cl    c      2.2270 *     4.4540 *     4.4540    0.0000     8          
    11  Na    c     -4.4540 *    -2.2270 *     4.4540 *  0.0000    16          
    12  Cl    c      6.6810 *     0.0000       0.0000    0.0000     2          
    13  Na    c      0.0000       6.6810 *     0.0000    0.0000     4          
    14  O     c      0.0000      -2.2270 *     6.6810 *  0.0000     8          
    15  Na    c      2.2270 *     6.6810 *    -2.2270 *  0.0000    16          
    16  Na    c      6.6810 *    -2.2270 *    -2.2270    0.0000     8          
    17  Cl    c      6.6810 *     0.0000       4.4540 *  0.0000     8          
    18  Na    c      0.0000       6.6810 *     4.4540 *  0.0000     8          
    19  Na    c     -4.4540 *     6.6810 *     0.0000    0.0000     8          
    20  O     c      4.4540 *    -2.2270 *     6.6810 *  0.0000    16          
    21  Cl    c      2.2270 *     0.0000       8.9079 *  0.0000     8          
    22  Cl    c      6.6810 *     4.4540 *     4.4540    0.0000     8          
    23  Na    c      0.0000      -2.2270 *     8.9079 *  0.0000     8          
    24  Na    c      8.9079 *    -2.2270 *     0.0000    0.0000     8          
    25  Na    c     -4.4540 *     6.6810 *     4.4540 *  0.0000    16          
    26  O     c      0.0000       6.6810 *     6.6810    0.0000     4          
    27  O     c      8.9079 *    -2.2270 *    -2.2270    0.0000     8          
    28  Na    c      2.2270 *     6.6810 *     6.6810    0.0000     8          
    29  Na    c      6.6810 *    -2.2270 *     6.6810 *  0.0000    16          
    30  Cl    c      2.2270 *     4.4540 *     8.9079 *  0.0000    16          
    31  Na    c      4.4540 *    -2.2270 *     8.9079 *  0.0000    16          
    32  Na    c      8.9079 *    -2.2270 *     4.4540 *  0.0000    16          
    33  O     c      4.4540 *     6.6810 *     6.6810    0.0000     8          
    34  Cl    c      6.6810 *     0.0000       8.9079 *  0.0000     8          
    35  Cl    c     11.1349 *     0.0000       0.0000    0.0000     2          
    36  Na    c      0.0000       6.6810 *     8.9079 *  0.0000     8          
    37  Na    c      0.0000      11.1349 *     0.0000    0.0000     4          
    38  Na    c      8.9079 *     6.6810 *     0.0000    0.0000     8          
    39  O     c      0.0000      -2.2270 *    11.1349 *  0.0000     8          
    40  O     c      8.9079 *    -2.2270 *     6.6810 *  0.0000    16          
    41  Na    c      2.2270 *    -2.2270 *    11.1349 *  0.0000    16          
    42  Na    c      6.6810 *     6.6810 *     6.6810    0.0000     8          
    43  Na    c     11.1349 *    -2.2270 *    -2.2270    0.0000     8          
    44  Cl    c      6.6810 *     4.4540 *     8.9079 *  0.0000    16          
    45  Cl    c     11.1349 *     0.0000       4.4540 *  0.0000     8          
    46  Na    c      0.0000      11.1349 *     4.4540 *  0.0000     8          
    47  Na    c      8.9079 *     6.6810 *     4.4540 *  0.0000    16          
    48  Na    c     -4.4540 *     6.6810 *     8.9079 *  0.0000    16          
    49  Na    c     -4.4540 *    11.1349 *     0.0000    0.0000     8          
    50  O     c     -4.4540 *    -2.2270 *    11.1349 *  0.0000    16          
    51  Cl    c     11.1349 *     4.4540 *     4.4540    0.0000     8          
    52  Na    c     -4.4540 *    11.1349 *     4.4540 *  0.0000    16          
    53  Cl    c      2.2270 *     8.9079 *     8.9079    0.0000     8          
    54  Na    c      8.9079 *    -2.2270 *     8.9079 *  0.0000    16          
    55  O     c      0.0000       6.6810 *    11.1349 *  0.0000     8          
    56  O     c      8.9079 *     6.6810 *     6.6810    0.0000     8          
    57  Na    c      2.2270 *     6.6810 *    11.1349 *  0.0000    16          
    58  Na    c      6.6810 *    -2.2270 *    11.1349 *  0.0000    16          
    59  Na    c     11.1349 *    -2.2270 *     6.6810 *  0.0000    16          
    60  Cl    c      2.2270 *     0.0000      13.3619 *  0.0000     8          
    61  Na    c      0.0000      -2.2270 *    13.3619 *  0.0000     8          
    62  Na    c     13.3619 *    -2.2270 *     0.0000    0.0000     8          
    63  O     c      4.4540 *     6.6810 *    11.1349 *  0.0000    16          
    64  O     c     13.3619 *    -2.2270 *    -2.2270    0.0000     8          
    65  Cl    c      6.6810 *     8.9079 *     8.9079    0.0000     8          
    66  Cl    c     11.1349 *     0.0000       8.9079 *  0.0000     8          
    67  Na    c      0.0000      11.1349 *     8.9079 *  0.0000     8          
    68  Na    c      8.9079 *     6.6810 *     8.9079 *  0.0000    16          
    69  Na    c      8.9079 *    11.1349 *     0.0000    0.0000     8          
    70  Cl    c      2.2270 *     4.4540 *    13.3619 *  0.0000    16          
    71  Na    c     13.3619 *    -2.2270 *     4.4540 *  0.0000    16          
    72  Na    c     -4.4540 *    -2.2270 *    13.3619 *  0.0000    16          
    73  O     c      8.9079 *    11.1349 *    -2.2270 *  0.0000    16          
    74  Na    c      6.6810 *     6.6810 *    11.1349 *  0.0000    16          
    75  Na    c     11.1349 *     6.6810 *     6.6810    0.0000     8          
    76  Cl    c     11.1349 *     8.9079 *     4.4540 *  0.0000    16          
    77  Na    c      8.9079 *    11.1349 *     4.4540 *  0.0000    16          
    78  Na    c      4.4540 *    11.1349 *     8.9079 *  0.0000    16          
    79  Cl    c      6.6810 *     0.0000      13.3619 *  0.0000     8          
    80  Na    c      0.0000       6.6810 *    13.3619 *  0.0000     8          
    81  Na    c     13.3619 *     6.6810 *     0.0000    0.0000     8          
    82  O     c     13.3619 *    -2.2270 *     6.6810 *  0.0000    16          
    83  Cl    c    -15.5889 *     0.0000       0.0000    0.0000     2          
    84  Na    c      0.0000      15.5889 *     0.0000    0.0000     4          
    85  Cl    c      6.6810 *     4.4540 *    13.3619 *  0.0000    16          
    86  Na    c      4.4540 *     6.6810 *    13.3619 *  0.0000    16          
    87  Na    c     13.3619 *     6.6810 *     4.4540 *  0.0000    16          
    88  O     c      0.0000      -2.2270 *    15.5889 *  0.0000     8          
    89  O     c      0.0000      11.1349 *    11.1349    0.0000     4          
    90  O     c      8.9079 *     6.6810 *    11.1349 *  0.0000    16          
    91  Na    c      2.2270 *    -2.2270 *    15.5889 *  0.0000    16          
    92  Na    c    -15.5889 *    -2.2270 *    -2.2270    0.0000     8          
    93  Na    c      2.2270 *    11.1349 *    11.1349    0.0000     8          
    94  Na    c     11.1349 *    -2.2270 *    11.1349 *  0.0000    16          
    95  Cl    s      2.2270 *     0.0000       0.0000    0.0000     2          
    96  O     s      0.0000      -2.2270 *    -2.2270    0.0000     4          
    97  Cl    s      2.2270 *     0.0000       4.4540 *  0.0000     8          
    98  O     s     -4.4540 *    -2.2270 *    -2.2270    0.0000     8          
    99  Cl    s      2.2270 *     4.4540 *     4.4540    0.0000     8          
   100  Cl    s      6.6810 *     0.0000       0.0000    0.0000     2          
   101  O     s      0.0000      -2.2270 *     6.6810 *  0.0000     8          
   102  Cl    s      6.6810 *     0.0000       4.4540 *  0.0000     8          
   103  O     s      4.4540 *    -2.2270 *     6.6810 *  0.0000    16          
   104  Cl    s      2.2270 *     0.0000       8.9079 *  0.0000     8          
   105  Cl    s      6.6810 *     4.4540 *     4.4540    0.0000     8          
   106  O     s      0.0000       6.6810 *     6.6810    0.0000     4          
   107  O     s      8.9079 *    -2.2270 *    -2.2270    0.0000     8          
   108  Cl    s      2.2270 *     4.4540 *     8.9079 *  0.0000    16          
   109  O     s      4.4540 *     6.6810 *     6.6810    0.0000     8          
   110  Cl    s      6.6810 *     0.0000       8.9079 *  0.0000     8          
   111  Cl    s     11.1349 *     0.0000       0.0000    0.0000     2          
   112  O     s      0.0000      -2.2270 *    11.1349 *  0.0000     8          
   113  O     s      8.9079 *    -2.2270 *     6.6810 *  0.0000    16          
   114  Cl    s      6.6810 *     4.4540 *     8.9079 *  0.0000    16          
   115  Cl    s     11.1349 *     0.0000       4.4540 *  0.0000     8          
   116  O     s     -4.4540 *    -2.2270 *    11.1349 *  0.0000    16          
   117  Cl    s     11.1349 *     4.4540 *     4.4540    0.0000     8          
   118  Cl    s      2.2270 *     8.9079 *     8.9079    0.0000     8          
   119  O     s      0.0000       6.6810 *    11.1349 *  0.0000     8          
   120  O     s      8.9079 *     6.6810 *     6.6810    0.0000     8          
   121  Cl    s      2.2270 *     0.0000      13.3619 *  0.0000     8          
   122  O     s      4.4540 *     6.6810 *    11.1349 *  0.0000    16          
   123  O     s     13.3619 *    -2.2270 *    -2.2270    0.0000     8          
   124  Cl    s      6.6810 *     8.9079 *     8.9079    0.0000     8          
   125  Cl    s     11.1349 *     0.0000       8.9079 *  0.0000     8          
   126  Cl    s      2.2270 *     4.4540 *    13.3619 *  0.0000    16          
   127  O     s      8.9079 *    11.1349 *    -2.2270 *  0.0000    16          
   128  Cl    s     11.1349 *     8.9079 *     4.4540 *  0.0000    16          
   129  Cl    s      6.6810 *     0.0000      13.3619 *  0.0000     8          
   130  O     s     13.3619 *    -2.2270 *     6.6810 *  0.0000    16          
   131  Cl    s    -15.5889 *     0.0000       0.0000    0.0000     2          
   132  Cl    s      6.6810 *     4.4540 *    13.3619 *  0.0000    16          
   133  O     s      0.0000      -2.2270 *    15.5889 *  0.0000     8          
   134  O     s      0.0000      11.1349 *    11.1349    0.0000     4          
   135  O     s      8.9079 *     6.6810 *    11.1349 *  0.0000    16          
--------------------------------------------------------------------------------


  Constraints on symmetry reduced coordinates :

--------------------------------------------------------------------------------
  Constraint no.      Unconstrained     Constrained    Coefficient    
                         Variable         Variable
--------------------------------------------------------------------------------
           1                 4 y             4 z         1.00000
           2                 5 y             5 z         1.00000
           3                 9 y             9 z         1.00000
           4                10 y            10 z         1.00000
           5                16 y            16 z         1.00000
           6                22 y            22 z         1.00000
           7                26 y            26 z         1.00000
           8                27 y            27 z         1.00000
           9                28 y            28 z         1.00000
          10                33 y            33 z         1.00000
          11                42 y            42 z         1.00000
          12                43 y            43 z         1.00000
          13                51 y            51 z         1.00000
          14                53 y            53 z         1.00000
          15                56 y            56 z         1.00000
          16                64 y            64 z         1.00000
          17                65 y            65 z         1.00000
          18                75 y            75 z         1.00000
          19                89 y            89 z         1.00000
          20                92 y            92 z         1.00000
          21                93 y            93 z         1.00000
          22                96 y            96 z         1.00000
          23                98 y            98 z         1.00000
          24                99 y            99 z         1.00000
          25               105 y           105 z         1.00000
          26               106 y           106 z         1.00000
          27               107 y           107 z         1.00000
          28               109 y           109 z         1.00000
          29               117 y           117 z         1.00000
          30               118 y           118 z         1.00000
          31               120 y           120 z         1.00000
          32               123 y           123 z         1.00000
          33               124 y           124 z         1.00000
          34               134 y           134 z         1.00000
--------------------------------------------------------------------------------


  Components of defect energy : 

--------------------------------------------------------------------------------
  Region 1 - region 1                   =     10.41153321 eV
  Region 1 - region 2a (unrelaxed)      =     -7.18701593 eV
  Region 1 - 2a (relaxed - correction)  =     -0.28668002 eV
  Region 1 (Total)                      =      2.93783726 eV
  Region 2a                             =      0.14336742 eV
  Region 2b                             =     -0.29088744 eV
--------------------------------------------------------------------------------
  Total defect energy                   =      2.79031724 eV
--------------------------------------------------------------------------------

  Largest displacement in region 2 =   0.0107 Angstroms


  Number of variables =      298

  Maximum number of calculations  =        1000
  Maximum Hessian update interval =          10
  Maximum step size               =   1.0000000
  Maximum parameter tolerance     =   0.0000100
  Maximum function  tolerance     =   0.0000100
  Maximum gradient  tolerance     =   0.0010000

  Symmetry adapted optimisation

  Symmetry to be used for second derivatives

  Newton-Raphson optimiser to be used

  BFGS hessian update to be used

  Lower half triangular hessian to be used

  Start of defect optimisation :

  Cycle:      0 Defect Energy:   2.790317  Gnorm:     0.163499  CPU:   10.654
  ** Hessian calculated **
  Cycle:      1 Defect Energy:  -1.303327  Gnorm:     0.065675  CPU:   18.252
  ** Hessian calculated **
  Cycle:      2 Defect Energy:  -2.668596  Gnorm:     0.007013  CPU:   22.900
  Cycle:      3 Defect Energy:  -2.695918  Gnorm:     0.005638  CPU:   23.438
  Cycle:      4 Defect Energy:  -2.713213  Gnorm:     0.003822  CPU:   23.981
  Cycle:      5 Defect Energy:  -2.723559  Gnorm:     0.002583  CPU:   24.504
  Cycle:      6 Defect Energy:  -2.730735  Gnorm:     0.001779  CPU:   25.007
  Cycle:      7 Defect Energy:  -2.736559  Gnorm:     0.001238  CPU:   25.533
  Cycle:      8 Defect Energy:  -2.742143  Gnorm:     0.001465  CPU:   26.036
  Cycle:      9 Defect Energy:  -2.747582  Gnorm:     0.002145  CPU:   26.538
  Cycle:     10 Defect Energy:  -2.750754  Gnorm:     0.002550  CPU:   27.046
  Cycle:     11 Defect Energy:  -2.753000  Gnorm:     0.002418  CPU:   27.602
  ** Hessian calculated **
  Cycle:     12 Defect Energy:  -2.757081  Gnorm:     0.001729  CPU:   29.012
  Cycle:     13 Defect Energy:  -2.758923  Gnorm:     0.001240  CPU:   29.499
  Cycle:     14 Defect Energy:  -2.759760  Gnorm:     0.000863  CPU:   29.982
  Cycle:     15 Defect Energy:  -2.760138  Gnorm:     0.000607  CPU:   30.466
  Cycle:     16 Defect Energy:  -2.760316  Gnorm:     0.000424  CPU:   30.952
  Cycle:     17 Defect Energy:  -2.760396  Gnorm:     0.000298  CPU:   31.433
  Cycle:     18 Defect Energy:  -2.760433  Gnorm:     0.000208  CPU:   31.913
  Cycle:     19 Defect Energy:  -2.760448  Gnorm:     0.000146  CPU:   32.410


  **** Optimisation achieved ****


  Final defect energy  =       -2.76045415
  Final defect Gnorm   =        0.00010164

  Components of defect energy : 

--------------------------------------------------------------------------------
  Region 1 - region 1                   =      3.45681028 eV
  Region 1 - region 2a (unrelaxed)      =     -5.80597883 eV
  Region 1 - 2a (relaxed - correction)  =     -0.24072724 eV
  Region 1 (Total)                      =     -2.58989580 eV
  Region 2a                             =      0.12032909 eV
  Region 2b                             =     -0.29088744 eV
--------------------------------------------------------------------------------
  Total defect energy                   =     -2.76045415 eV
--------------------------------------------------------------------------------

  Largest displacement in region 2 =   0.0107 Angstroms

  Final coordinates of region 1 :

--------------------------------------------------------------------------------
   No.  Atomic        x           y           z          Radius      Charge
        Label       (Angs)      (Angs)      (Angs)       (Angs)       (e) 
--------------------------------------------------------------------------------
     1  Na    c     2.226987    0.000000    0.000000    0.000000    1.000000
     2  Cl    c     4.849764    0.000000    0.000000    0.000000    0.996000
     3  Cl    c    -0.395790    0.000000    0.000000    0.000000    0.996000
     4  Na    c     2.226987   -2.864973    0.000000    0.000000    1.000000
     5  Na    c     2.226987    2.864973    0.000000    0.000000    1.000000
     6  Na    c     2.226987    0.000000   -2.864973    0.000000    1.000000
     7  Na    c     2.226987    0.000000    2.864973    0.000000    1.000000
     8  O     c     2.226987   -2.093724   -2.093724    0.000000    1.443000
     9  O     c     2.226987   -2.093724    2.093724    0.000000    1.443000
    10  O     c     2.226987    2.093724   -2.093724    0.000000    1.443000
    11  O     c     2.226987    2.093724    2.093724    0.000000    1.443000
    12  Na    c     4.491884   -2.164450   -2.164450    0.000000    1.000000
    13  Na    c     4.491884   -2.164450    2.164450    0.000000    1.000000
    14  Na    c     4.491884    2.164450   -2.164450    0.000000    1.000000
    15  Na    c     4.491884    2.164450    2.164450    0.000000    1.000000
    16  Na    c    -0.037910   -2.164450   -2.164450    0.000000    1.000000
    17  Na    c    -0.037910   -2.164450    2.164450    0.000000    1.000000
    18  Na    c    -0.037910    2.164450   -2.164450    0.000000    1.000000
    19  Na    c    -0.037910    2.164450    2.164450    0.000000    1.000000
    20  Cl    c     4.453373    0.000000    4.488196    0.000000    0.996000
    21  Cl    c     4.453373    0.000000   -4.488196    0.000000    0.996000
    22  Cl    c     4.453373    4.488196    0.000000    0.000000    0.996000
    23  Cl    c     4.453373   -4.488196    0.000000    0.000000    0.996000
    24  Cl    c     0.000601    0.000000    4.488196    0.000000    0.996000
    25  Cl    c     0.000601    0.000000   -4.488196    0.000000    0.996000
    26  Cl    c     0.000601    4.488196    0.000000    0.000000    0.996000
    27  Cl    c     0.000601   -4.488196    0.000000    0.000000    0.996000
    28  Na    c     2.226987   -2.405683    4.433163    0.000000    1.000000
    29  Na    c     2.226987   -2.405683   -4.433163    0.000000    1.000000
    30  Na    c     2.226987    2.405683    4.433163    0.000000    1.000000
    31  Na    c     2.226987    2.405683   -4.433163    0.000000    1.000000
    32  Na    c     2.226987    4.433163   -2.405683    0.000000    1.000000
    33  Na    c     2.226987    4.433163    2.405683    0.000000    1.000000
    34  Na    c     2.226987   -4.433163   -2.405683    0.000000    1.000000
    35  Na    c     2.226987   -4.433163    2.405683    0.000000    1.000000
    36  Na    c    -2.402946   -2.217996    0.000000    0.000000    1.000000
    37  Na    c    -2.402946    2.217996    0.000000    0.000000    1.000000
    38  Na    c    -2.402946    0.000000   -2.217996    0.000000    1.000000
    39  Na    c    -2.402946    0.000000    2.217996    0.000000    1.000000
    40  Na    c     6.856920   -2.217996    0.000000    0.000000    1.000000
    41  Na    c     6.856920    2.217996    0.000000    0.000000    1.000000
    42  Na    c     6.856920    0.000000   -2.217996    0.000000    1.000000
    43  Na    c     6.856920    0.000000    2.217996    0.000000    1.000000
    44  O     c    -2.255189   -2.232410   -2.232410    0.000000    1.443000
    45  O     c    -2.255189   -2.232410    2.232410    0.000000    1.443000
    46  O     c    -2.255189    2.232410   -2.232410    0.000000    1.443000
    47  O     c    -2.255189    2.232410    2.232410    0.000000    1.443000
    48  O     c     6.709163   -2.232410   -2.232410    0.000000    1.443000
    49  O     c     6.709163   -2.232410    2.232410    0.000000    1.443000
    50  O     c     6.709163    2.232410   -2.232410    0.000000    1.443000
    51  O     c     6.709163    2.232410    2.232410    0.000000    1.443000
    52  Cl    c     4.378099    4.381559    4.381559    0.000000    0.996000
    53  Cl    c     4.378099    4.381559   -4.381559    0.000000    0.996000
    54  Cl    c     4.378099   -4.381559    4.381559    0.000000    0.996000
    55  Cl    c     4.378099   -4.381559   -4.381559    0.000000    0.996000
    56  Cl    c     0.075875    4.381559    4.381559    0.000000    0.996000
    57  Cl    c     0.075875    4.381559   -4.381559    0.000000    0.996000
    58  Cl    c     0.075875   -4.381559    4.381559    0.000000    0.996000
    59  Cl    c     0.075875   -4.381559   -4.381559    0.000000    0.996000
    60  Na    c    -2.294027   -2.237606    4.460185    0.000000    1.000000
    61  Na    c    -2.294027   -2.237606   -4.460185    0.000000    1.000000
    62  Na    c    -2.294027    2.237606    4.460185    0.000000    1.000000
    63  Na    c    -2.294027    2.237606   -4.460185    0.000000    1.000000
    64  Na    c    -2.294027    4.460185   -2.237606    0.000000    1.000000
    65  Na    c    -2.294027    4.460185    2.237606    0.000000    1.000000
    66  Na    c    -2.294027   -4.460185   -2.237606    0.000000    1.000000
    67  Na    c    -2.294027   -4.460185    2.237606    0.000000    1.000000
    68  Na    c     6.748001    4.460185   -2.237606    0.000000    1.000000
    69  Na    c     6.748001    4.460185    2.237606    0.000000    1.000000
    70  Na    c     6.748001   -4.460185   -2.237606    0.000000    1.000000
    71  Na    c     6.748001   -4.460185    2.237606    0.000000    1.000000
    72  Na    c     6.748001   -2.237606    4.460185    0.000000    1.000000
    73  Na    c     6.748001   -2.237606   -4.460185    0.000000    1.000000
    74  Na    c     6.748001    2.237606    4.460185    0.000000    1.000000
    75  Na    c     6.748001    2.237606   -4.460185    0.000000    1.000000
    76  Cl    c     8.947932    0.000000    0.000000    0.000000    0.996000
    77  Cl    c    -4.493958    0.000000    0.000000    0.000000    0.996000
    78  Na    c     2.226987    6.666597    0.000000    0.000000    1.000000
    79  Na    c     2.226987   -6.666597    0.000000    0.000000    1.000000
    80  Na    c     2.226987    0.000000    6.666597    0.000000    1.000000
    81  Na    c     2.226987    0.000000   -6.666597    0.000000    1.000000
    82  O     c     2.226987   -2.229282    6.658674    0.000000    1.443000
    83  O     c     2.226987   -2.229282   -6.658674    0.000000    1.443000
    84  O     c     2.226987    2.229282    6.658674    0.000000    1.443000
    85  O     c     2.226987    2.229282   -6.658674    0.000000    1.443000
    86  O     c     2.226987    6.658674   -2.229282    0.000000    1.443000
    87  O     c     2.226987    6.658674    2.229282    0.000000    1.443000
    88  O     c     2.226987   -6.658674   -2.229282    0.000000    1.443000
    89  O     c     2.226987   -6.658674    2.229282    0.000000    1.443000
    90  Na    c     4.449279    6.599248   -2.214623    0.000000    1.000000
    91  Na    c     4.449279    6.599248    2.214623    0.000000    1.000000
    92  Na    c     4.449279   -6.599248   -2.214623    0.000000    1.000000
    93  Na    c     4.449279   -6.599248    2.214623    0.000000    1.000000
    94  Na    c     0.004695    6.599248   -2.214623    0.000000    1.000000
    95  Na    c     0.004695    6.599248    2.214623    0.000000    1.000000
    96  Na    c     0.004695   -6.599248   -2.214623    0.000000    1.000000
    97  Na    c     0.004695   -6.599248    2.214623    0.000000    1.000000
    98  Na    c     4.449279   -2.214623    6.599248    0.000000    1.000000
    99  Na    c     4.449279   -2.214623   -6.599248    0.000000    1.000000
   100  Na    c     4.449279    2.214623    6.599248    0.000000    1.000000
   101  Na    c     4.449279    2.214623   -6.599248    0.000000    1.000000
   102  Na    c     0.004695   -2.214623    6.599248    0.000000    1.000000
   103  Na    c     0.004695   -2.214623   -6.599248    0.000000    1.000000
   104  Na    c     0.004695    2.214623    6.599248    0.000000    1.000000
   105  Na    c     0.004695    2.214623   -6.599248    0.000000    1.000000
   106  Na    c     8.932789   -2.321337   -2.321337    0.000000    1.000000
   107  Na    c     8.932789   -2.321337    2.321337    0.000000    1.000000
   108  Na    c     8.932789    2.321337   -2.321337    0.000000    1.000000
   109  Na    c     8.932789    2.321337    2.321337    0.000000    1.000000
   110  Na    c    -4.478816   -2.321337   -2.321337    0.000000    1.000000
   111  Na    c    -4.478816   -2.321337    2.321337    0.000000    1.000000
   112  Na    c    -4.478816    2.321337   -2.321337    0.000000    1.000000
   113  Na    c    -4.478816    2.321337    2.321337    0.000000    1.000000
   114  Cl    c     8.912208    0.000000    4.435862    0.000000    0.996000
   115  Cl    c     8.912208    0.000000   -4.435862    0.000000    0.996000
   116  Cl    c     8.912208    4.435862    0.000000    0.000000    0.996000
   117  Cl    c     8.912208   -4.435862    0.000000    0.000000    0.996000
   118  Cl    c    -4.458234    0.000000    4.435862    0.000000    0.996000
   119  Cl    c    -4.458234    0.000000   -4.435862    0.000000    0.996000
   120  Cl    c    -4.458234    4.435862    0.000000    0.000000    0.996000
   121  Cl    c    -4.458234   -4.435862    0.000000    0.000000    0.996000
   122  Na    c     2.226987    6.724972    4.462640    0.000000    1.000000
   123  Na    c     2.226987    6.724972   -4.462640    0.000000    1.000000
   124  Na    c     2.226987   -6.724972    4.462640    0.000000    1.000000
   125  Na    c     2.226987   -6.724972   -4.462640    0.000000    1.000000
   126  Na    c     2.226987    4.462640    6.724972    0.000000    1.000000
   127  Na    c     2.226987    4.462640   -6.724972    0.000000    1.000000
   128  Na    c     2.226987   -4.462640    6.724972    0.000000    1.000000
   129  Na    c     2.226987   -4.462640   -6.724972    0.000000    1.000000
   130  Na    c    -2.262139    6.718107    0.000000    0.000000    1.000000
   131  Na    c    -2.262139   -6.718107    0.000000    0.000000    1.000000
   132  Na    c    -2.262139    0.000000    6.718107    0.000000    1.000000
   133  Na    c    -2.262139    0.000000   -6.718107    0.000000    1.000000
   134  Na    c     6.716113    6.718107    0.000000    0.000000    1.000000
   135  Na    c     6.716113   -6.718107    0.000000    0.000000    1.000000
   136  Na    c     6.716113    0.000000    6.718107    0.000000    1.000000
   137  Na    c     6.716113    0.000000   -6.718107    0.000000    1.000000
   138  O     c     6.678734   -2.228049    6.682151    0.000000    1.443000
   139  O     c     6.678734   -2.228049   -6.682151    0.000000    1.443000
   140  O     c     6.678734    2.228049    6.682151    0.000000    1.443000
   141  O     c     6.678734    2.228049   -6.682151    0.000000    1.443000
   142  O     c    -2.224760   -2.228049    6.682151    0.000000    1.443000
   143  O     c    -2.224760   -2.228049   -6.682151    0.000000    1.443000
   144  O     c    -2.224760    2.228049    6.682151    0.000000    1.443000
   145  O     c    -2.224760    2.228049   -6.682151    0.000000    1.443000
   146  O     c    -2.224760    6.682151   -2.228049    0.000000    1.443000
   147  O     c    -2.224760    6.682151    2.228049    0.000000    1.443000
   148  O     c    -2.224760   -6.682151   -2.228049    0.000000    1.443000
   149  O     c    -2.224760   -6.682151    2.228049    0.000000    1.443000
   150  O     c     6.678734    6.682151   -2.228049    0.000000    1.443000
   151  O     c     6.678734    6.682151    2.228049    0.000000    1.443000
   152  O     c     6.678734   -6.682151   -2.228049    0.000000    1.443000
   153  O     c     6.678734   -6.682151    2.228049    0.000000    1.443000
   154  Cl    c     4.443262    0.000000    8.881617    0.000000    0.996000
   155  Cl    c     4.443262    0.000000   -8.881617    0.000000    0.996000
   156  Cl    c     4.443262    8.881617    0.000000    0.000000    0.996000
   157  Cl    c     4.443262   -8.881617    0.000000    0.000000    0.996000
   158  Cl    c     0.010712    0.000000    8.881617    0.000000    0.996000
   159  Cl    c     0.010712    0.000000   -8.881617    0.000000    0.996000
   160  Cl    c     0.010712    8.881617    0.000000    0.000000    0.996000
   161  Cl    c     0.010712   -8.881617    0.000000    0.000000    0.996000
   162  Cl    c     8.904760    4.457584    4.457584    0.000000    0.996000
   163  Cl    c     8.904760    4.457584   -4.457584    0.000000    0.996000
   164  Cl    c     8.904760   -4.457584    4.457584    0.000000    0.996000
   165  Cl    c     8.904760   -4.457584   -4.457584    0.000000    0.996000
   166  Cl    c    -4.450786    4.457584    4.457584    0.000000    0.996000
   167  Cl    c    -4.450786    4.457584   -4.457584    0.000000    0.996000
   168  Cl    c    -4.450786   -4.457584    4.457584    0.000000    0.996000
   169  Cl    c    -4.450786   -4.457584   -4.457584    0.000000    0.996000
   170  Na    c     2.226987   -2.257011    8.899543    0.000000    1.000000
   171  Na    c     2.226987   -2.257011   -8.899543    0.000000    1.000000
   172  Na    c     2.226987    2.257011    8.899543    0.000000    1.000000
   173  Na    c     2.226987    2.257011   -8.899543    0.000000    1.000000
   174  Na    c     2.226987    8.899543   -2.257011    0.000000    1.000000
   175  Na    c     2.226987    8.899543    2.257011    0.000000    1.000000
   176  Na    c     2.226987   -8.899543   -2.257011    0.000000    1.000000
   177  Na    c     2.226987   -8.899543    2.257011    0.000000    1.000000
   178  Na    c    11.034717   -2.216784    0.000000    0.000000    1.000000
   179  Na    c    11.034717    2.216784    0.000000    0.000000    1.000000
   180  Na    c    -6.580744   -2.216784    0.000000    0.000000    1.000000
   181  Na    c    -6.580744    2.216784    0.000000    0.000000    1.000000
   182  Na    c    11.034717    0.000000   -2.216784    0.000000    1.000000
   183  Na    c    11.034717    0.000000    2.216784    0.000000    1.000000
   184  Na    c    -6.580744    0.000000   -2.216784    0.000000    1.000000
   185  Na    c    -6.580744    0.000000    2.216784    0.000000    1.000000
   186  Na    c    -2.250598    6.736089    4.454869    0.000000    1.000000
   187  Na    c    -2.250598    6.736089   -4.454869    0.000000    1.000000
   188  Na    c    -2.250598   -6.736089    4.454869    0.000000    1.000000
   189  Na    c    -2.250598   -6.736089   -4.454869    0.000000    1.000000
   190  Na    c    -2.250598    4.454869    6.736089    0.000000    1.000000
   191  Na    c    -2.250598    4.454869   -6.736089    0.000000    1.000000
   192  Na    c    -2.250598   -4.454869    6.736089    0.000000    1.000000
   193  Na    c    -2.250598   -4.454869   -6.736089    0.000000    1.000000
   194  Na    c     6.704572    6.736089    4.454869    0.000000    1.000000
   195  Na    c     6.704572    6.736089   -4.454869    0.000000    1.000000
   196  Na    c     6.704572   -6.736089    4.454869    0.000000    1.000000
   197  Na    c     6.704572   -6.736089   -4.454869    0.000000    1.000000
   198  Na    c     6.704572    4.454869    6.736089    0.000000    1.000000
   199  Na    c     6.704572    4.454869   -6.736089    0.000000    1.000000
   200  Na    c     6.704572   -4.454869    6.736089    0.000000    1.000000
   201  Na    c     6.704572   -4.454869   -6.736089    0.000000    1.000000
   202  O     c     2.226987    6.685707    6.685707    0.000000    1.443000
   203  O     c     2.226987    6.685707   -6.685707    0.000000    1.443000
   204  O     c     2.226987   -6.685707    6.685707    0.000000    1.443000
   205  O     c     2.226987   -6.685707   -6.685707    0.000000    1.443000
   206  O     c    11.149557   -2.229437   -2.229437    0.000000    1.443000
   207  O     c    11.149557   -2.229437    2.229437    0.000000    1.443000
   208  O     c    11.149557    2.229437   -2.229437    0.000000    1.443000
   209  O     c    11.149557    2.229437    2.229437    0.000000    1.443000
   210  O     c    -6.695583   -2.229437   -2.229437    0.000000    1.443000
   211  O     c    -6.695583   -2.229437    2.229437    0.000000    1.443000
   212  O     c    -6.695583    2.229437   -2.229437    0.000000    1.443000
   213  O     c    -6.695583    2.229437    2.229437    0.000000    1.443000
   214  Na    c     4.452195    6.718348    6.718348    0.000000    1.000000
   215  Na    c     4.452195    6.718348   -6.718348    0.000000    1.000000
   216  Na    c     4.452195   -6.718348    6.718348    0.000000    1.000000
   217  Na    c     4.452195   -6.718348   -6.718348    0.000000    1.000000
   218  Na    c     0.001779    6.718348    6.718348    0.000000    1.000000
   219  Na    c     0.001779    6.718348   -6.718348    0.000000    1.000000
   220  Na    c     0.001779   -6.718348    6.718348    0.000000    1.000000
   221  Na    c     0.001779   -6.718348   -6.718348    0.000000    1.000000
   222  Na    c     8.910913   -2.246409    6.819198    0.000000    1.000000
   223  Na    c     8.910913   -2.246409   -6.819198    0.000000    1.000000
   224  Na    c     8.910913    2.246409    6.819198    0.000000    1.000000
   225  Na    c     8.910913    2.246409   -6.819198    0.000000    1.000000
   226  Na    c    -4.456939   -2.246409    6.819198    0.000000    1.000000
   227  Na    c    -4.456939   -2.246409   -6.819198    0.000000    1.000000
   228  Na    c    -4.456939    2.246409    6.819198    0.000000    1.000000
   229  Na    c    -4.456939    2.246409   -6.819198    0.000000    1.000000
   230  Na    c     8.910913    6.819198   -2.246409    0.000000    1.000000
   231  Na    c     8.910913    6.819198    2.246409    0.000000    1.000000
   232  Na    c     8.910913   -6.819198   -2.246409    0.000000    1.000000
   233  Na    c     8.910913   -6.819198    2.246409    0.000000    1.000000
   234  Na    c    -4.456939    6.819198   -2.246409    0.000000    1.000000
   235  Na    c    -4.456939    6.819198    2.246409    0.000000    1.000000
   236  Na    c    -4.456939   -6.819198   -2.246409    0.000000    1.000000
   237  Na    c    -4.456939   -6.819198    2.246409    0.000000    1.000000
   238  Cl    c     4.449795    4.460729    8.888042    0.000000    0.996000
   239  Cl    c     4.449795    4.460729   -8.888042    0.000000    0.996000
   240  Cl    c     4.449795    8.888042    4.460729    0.000000    0.996000
   241  Cl    c     4.449795    8.888042   -4.460729    0.000000    0.996000
   242  Cl    c     4.449795   -4.460729    8.888042    0.000000    0.996000
   243  Cl    c     4.449795   -4.460729   -8.888042    0.000000    0.996000
   244  Cl    c     4.449795   -8.888042    4.460729    0.000000    0.996000
   245  Cl    c     4.449795   -8.888042   -4.460729    0.000000    0.996000
   246  Cl    c     0.004179    4.460729    8.888042    0.000000    0.996000
   247  Cl    c     0.004179    4.460729   -8.888042    0.000000    0.996000
   248  Cl    c     0.004179    8.888042    4.460729    0.000000    0.996000
   249  Cl    c     0.004179    8.888042   -4.460729    0.000000    0.996000
   250  Cl    c     0.004179   -4.460729    8.888042    0.000000    0.996000
   251  Cl    c     0.004179   -4.460729   -8.888042    0.000000    0.996000
   252  Cl    c     0.004179   -8.888042    4.460729    0.000000    0.996000
   253  Cl    c     0.004179   -8.888042   -4.460729    0.000000    0.996000
   254  Na    c     6.507453   -2.215768    8.910871    0.000000    1.000000
   255  Na    c     6.507453   -2.215768   -8.910871    0.000000    1.000000
   256  Na    c     6.507453    2.215768    8.910871    0.000000    1.000000
   257  Na    c     6.507453    2.215768   -8.910871    0.000000    1.000000
   258  Na    c    -2.053479   -2.215768    8.910871    0.000000    1.000000
   259  Na    c    -2.053479   -2.215768   -8.910871    0.000000    1.000000
   260  Na    c    -2.053479    2.215768    8.910871    0.000000    1.000000
   261  Na    c    -2.053479    2.215768   -8.910871    0.000000    1.000000
   262  Na    c     6.507453    8.910871   -2.215768    0.000000    1.000000
   263  Na    c     6.507453    8.910871    2.215768    0.000000    1.000000
   264  Na    c     6.507453   -8.910871   -2.215768    0.000000    1.000000
   265  Na    c     6.507453   -8.910871    2.215768    0.000000    1.000000
   266  Na    c    -2.053479    8.910871   -2.215768    0.000000    1.000000
   267  Na    c    -2.053479    8.910871    2.215768    0.000000    1.000000
   268  Na    c    -2.053479   -8.910871   -2.215768    0.000000    1.000000
   269  Na    c    -2.053479   -8.910871    2.215768    0.000000    1.000000
   270  Na    c    11.149616   -2.194565    4.461251    0.000000    1.000000
   271  Na    c    11.149616   -2.194565   -4.461251    0.000000    1.000000
   272  Na    c    11.149616    2.194565    4.461251    0.000000    1.000000
   273  Na    c    11.149616    2.194565   -4.461251    0.000000    1.000000
   274  Na    c    -6.695642   -2.194565    4.461251    0.000000    1.000000
   275  Na    c    -6.695642   -2.194565   -4.461251    0.000000    1.000000
   276  Na    c    -6.695642    2.194565    4.461251    0.000000    1.000000
   277  Na    c    -6.695642    2.194565   -4.461251    0.000000    1.000000
   278  Na    c    11.149616    4.461251   -2.194565    0.000000    1.000000
   279  Na    c    11.149616    4.461251    2.194565    0.000000    1.000000
   280  Na    c    11.149616   -4.461251   -2.194565    0.000000    1.000000
   281  Na    c    11.149616   -4.461251    2.194565    0.000000    1.000000
   282  Na    c    -6.695642    4.461251   -2.194565    0.000000    1.000000
   283  Na    c    -6.695642    4.461251    2.194565    0.000000    1.000000
   284  Na    c    -6.695642   -4.461251   -2.194565    0.000000    1.000000
   285  Na    c    -6.695642   -4.461251    2.194565    0.000000    1.000000
   286  O     c     6.676203    6.675804    6.675804    0.000000    1.443000
   287  O     c     6.676203    6.675804   -6.675804    0.000000    1.443000
   288  O     c     6.676203   -6.675804    6.675804    0.000000    1.443000
   289  O     c     6.676203   -6.675804   -6.675804    0.000000    1.443000
   290  O     c    -2.222229    6.675804    6.675804    0.000000    1.443000
   291  O     c    -2.222229    6.675804   -6.675804    0.000000    1.443000
   292  O     c    -2.222229   -6.675804    6.675804    0.000000    1.443000
   293  O     c    -2.222229   -6.675804   -6.675804    0.000000    1.443000
   294  Cl    c     8.896466    0.000000    8.898247    0.000000    0.996000
   295  Cl    c     8.896466    0.000000   -8.898247    0.000000    0.996000
   296  Cl    c     8.896466    8.898247    0.000000    0.000000    0.996000
   297  Cl    c     8.896466   -8.898247    0.000000    0.000000    0.996000
   298  Cl    c    -4.442493    0.000000    8.898247    0.000000    0.996000
   299  Cl    c    -4.442493    0.000000   -8.898247    0.000000    0.996000
   300  Cl    c    -4.442493    8.898247    0.000000    0.000000    0.996000
   301  Cl    c    -4.442493   -8.898247    0.000000    0.000000    0.996000
   302  Cl    c    13.366503    0.000000    0.000000    0.000000    0.996000
   303  Cl    c    -8.912529    0.000000    0.000000    0.000000    0.996000
   304  Na    c     2.226987    6.689962    8.917546    0.000000    1.000000
   305  Na    c     2.226987    6.689962   -8.917546    0.000000    1.000000
   306  Na    c     2.226987   -6.689962    8.917546    0.000000    1.000000
   307  Na    c     2.226987   -6.689962   -8.917546    0.000000    1.000000
   308  Na    c     2.226987    8.917546    6.689962    0.000000    1.000000
   309  Na    c     2.226987    8.917546   -6.689962    0.000000    1.000000
   310  Na    c     2.226987   -8.917546    6.689962    0.000000    1.000000
   311  Na    c     2.226987   -8.917546   -6.689962    0.000000    1.000000
   312  Na    c     2.226987   11.083198    0.000000    0.000000    1.000000
   313  Na    c     2.226987  -11.083198    0.000000    0.000000    1.000000
   314  Na    c     2.226987    0.000000   11.083198    0.000000    1.000000
   315  Na    c     2.226987    0.000000  -11.083198    0.000000    1.000000
   316  Na    c    11.136890    6.767956    0.000000    0.000000    1.000000
   317  Na    c    11.136890   -6.767956    0.000000    0.000000    1.000000
   318  Na    c    -6.682916    6.767956    0.000000    0.000000    1.000000
   319  Na    c    -6.682916   -6.767956    0.000000    0.000000    1.000000
   320  Na    c    11.136890    0.000000    6.767956    0.000000    1.000000
   321  Na    c    11.136890    0.000000   -6.767956    0.000000    1.000000
   322  Na    c    -6.682916    0.000000    6.767956    0.000000    1.000000
   323  Na    c    -6.682916    0.000000   -6.767956    0.000000    1.000000
   324  O     c     2.226987   -2.226855   11.129176    0.000000    1.443000
   325  O     c     2.226987   -2.226855  -11.129176    0.000000    1.443000
   326  O     c     2.226987    2.226855   11.129176    0.000000    1.443000
   327  O     c     2.226987    2.226855  -11.129176    0.000000    1.443000
   328  O     c     2.226987   11.129176   -2.226855    0.000000    1.443000
   329  O     c     2.226987   11.129176    2.226855    0.000000    1.443000
   330  O     c     2.226987  -11.129176   -2.226855    0.000000    1.443000
   331  O     c     2.226987  -11.129176    2.226855    0.000000    1.443000
   332  O     c    11.135941   -2.225619    6.687270    0.000000    1.443000
   333  O     c    11.135941   -2.225619   -6.687270    0.000000    1.443000
   334  O     c    11.135941    2.225619    6.687270    0.000000    1.443000
   335  O     c    11.135941    2.225619   -6.687270    0.000000    1.443000
   336  O     c    11.135941    6.687270   -2.225619    0.000000    1.443000
   337  O     c    11.135941    6.687270    2.225619    0.000000    1.443000
   338  O     c    11.135941   -6.687270   -2.225619    0.000000    1.443000
   339  O     c    11.135941   -6.687270    2.225619    0.000000    1.443000
   340  O     c    -6.681967   -2.225619    6.687270    0.000000    1.443000
   341  O     c    -6.681967   -2.225619   -6.687270    0.000000    1.443000
   342  O     c    -6.681967    2.225619    6.687270    0.000000    1.443000
   343  O     c    -6.681967    2.225619   -6.687270    0.000000    1.443000
   344  O     c    -6.681967    6.687270   -2.225619    0.000000    1.443000
   345  O     c    -6.681967    6.687270    2.225619    0.000000    1.443000
   346  O     c    -6.681967   -6.687270   -2.225619    0.000000    1.443000
   347  O     c    -6.681967   -6.687270    2.225619    0.000000    1.443000
   348  Na    c     4.451138   -2.223971   11.244653    0.000000    1.000000
   349  Na    c     4.451138   -2.223971  -11.244653    0.000000    1.000000
   350  Na    c     4.451138    2.223971   11.244653    0.000000    1.000000
   351  Na    c     4.451138    2.223971  -11.244653    0.000000    1.000000
   352  Na    c     4.451138   11.244653   -2.223971    0.000000    1.000000
   353  Na    c     4.451138   11.244653    2.223971    0.000000    1.000000
   354  Na    c     4.451138  -11.244653   -2.223971    0.000000    1.000000
   355  Na    c     4.451138  -11.244653    2.223971    0.000000    1.000000
   356  Na    c     0.002836   -2.223971   11.244653    0.000000    1.000000
   357  Na    c     0.002836   -2.223971  -11.244653    0.000000    1.000000
   358  Na    c     0.002836    2.223971   11.244653    0.000000    1.000000
   359  Na    c     0.002836    2.223971  -11.244653    0.000000    1.000000
   360  Na    c     0.002836   11.244653   -2.223971    0.000000    1.000000
   361  Na    c     0.002836   11.244653    2.223971    0.000000    1.000000
   362  Na    c     0.002836  -11.244653   -2.223971    0.000000    1.000000
   363  Na    c     0.002836  -11.244653    2.223971    0.000000    1.000000
   364  Na    c     8.909640    6.696937    6.696937    0.000000    1.000000
   365  Na    c     8.909640    6.696937   -6.696937    0.000000    1.000000
   366  Na    c     8.909640   -6.696937    6.696937    0.000000    1.000000
   367  Na    c     8.909640   -6.696937   -6.696937    0.000000    1.000000
   368  Na    c    -4.455666    6.696937    6.696937    0.000000    1.000000
   369  Na    c    -4.455666    6.696937   -6.696937    0.000000    1.000000
   370  Na    c    -4.455666   -6.696937    6.696937    0.000000    1.000000
   371  Na    c    -4.455666   -6.696937   -6.696937    0.000000    1.000000
   372  Na    c    13.367139   -2.157822   -2.157822    0.000000    1.000000
   373  Na    c    13.367139   -2.157822    2.157822    0.000000    1.000000
   374  Na    c    13.367139    2.157822   -2.157822    0.000000    1.000000
   375  Na    c    13.367139    2.157822    2.157822    0.000000    1.000000
   376  Na    c    -8.913165   -2.157822   -2.157822    0.000000    1.000000
   377  Na    c    -8.913165   -2.157822    2.157822    0.000000    1.000000
   378  Na    c    -8.913165    2.157822   -2.157822    0.000000    1.000000
   379  Na    c    -8.913165    2.157822    2.157822    0.000000    1.000000
   380  Cl    c     8.904000    4.461459    8.896940    0.000000    0.996000
   381  Cl    c     8.904000    4.461459   -8.896940    0.000000    0.996000
   382  Cl    c     8.904000    8.896940    4.461459    0.000000    0.996000
   383  Cl    c     8.904000    8.896940   -4.461459    0.000000    0.996000
   384  Cl    c     8.904000   -4.461459    8.896940    0.000000    0.996000
   385  Cl    c     8.904000   -4.461459   -8.896940    0.000000    0.996000
   386  Cl    c     8.904000   -8.896940    4.461459    0.000000    0.996000
   387  Cl    c     8.904000   -8.896940   -4.461459    0.000000    0.996000
   388  Cl    c    -4.450026    4.461459    8.896940    0.000000    0.996000
   389  Cl    c    -4.450026    4.461459   -8.896940    0.000000    0.996000
   390  Cl    c    -4.450026    8.896940    4.461459    0.000000    0.996000
   391  Cl    c    -4.450026    8.896940   -4.461459    0.000000    0.996000
   392  Cl    c    -4.450026   -4.461459    8.896940    0.000000    0.996000
   393  Cl    c    -4.450026   -4.461459   -8.896940    0.000000    0.996000
   394  Cl    c    -4.450026   -8.896940    4.461459    0.000000    0.996000
   395  Cl    c    -4.450026   -8.896940   -4.461459    0.000000    0.996000
   396  Cl    c    13.366933    0.000000    4.465700    0.000000    0.996000
   397  Cl    c    13.366933    0.000000   -4.465700    0.000000    0.996000
   398  Cl    c    13.366933    4.465700    0.000000    0.000000    0.996000
   399  Cl    c    13.366933   -4.465700    0.000000    0.000000    0.996000
   400  Cl    c    -8.912959    0.000000    4.465700    0.000000    0.996000
   401  Cl    c    -8.912959    0.000000   -4.465700    0.000000    0.996000
   402  Cl    c    -8.912959    4.465700    0.000000    0.000000    0.996000
   403  Cl    c    -8.912959   -4.465700    0.000000    0.000000    0.996000
   404  Na    c     2.226987   11.188319    4.452095    0.000000    1.000000
   405  Na    c     2.226987   11.188319   -4.452095    0.000000    1.000000
   406  Na    c     2.226987  -11.188319    4.452095    0.000000    1.000000
   407  Na    c     2.226987  -11.188319   -4.452095    0.000000    1.000000
   408  Na    c     2.226987    4.452095   11.188319    0.000000    1.000000
   409  Na    c     2.226987    4.452095  -11.188319    0.000000    1.000000
   410  Na    c     2.226987   -4.452095   11.188319    0.000000    1.000000
   411  Na    c     2.226987   -4.452095  -11.188319    0.000000    1.000000
   412  Na    c    11.142469    6.653868    4.453062    0.000000    1.000000
   413  Na    c    11.142469    6.653868   -4.453062    0.000000    1.000000
   414  Na    c    11.142469   -6.653868    4.453062    0.000000    1.000000
   415  Na    c    11.142469   -6.653868   -4.453062    0.000000    1.000000
   416  Na    c    -6.688495    6.653868    4.453062    0.000000    1.000000
   417  Na    c    -6.688495    6.653868   -4.453062    0.000000    1.000000
   418  Na    c    -6.688495   -6.653868    4.453062    0.000000    1.000000
   419  Na    c    -6.688495   -6.653868   -4.453062    0.000000    1.000000
   420  Na    c    11.142469    4.453062    6.653868    0.000000    1.000000
   421  Na    c    11.142469    4.453062   -6.653868    0.000000    1.000000
   422  Na    c    11.142469   -4.453062    6.653868    0.000000    1.000000
   423  Na    c    11.142469   -4.453062   -6.653868    0.000000    1.000000
   424  Na    c    -6.688495    4.453062    6.653868    0.000000    1.000000
   425  Na    c    -6.688495    4.453062   -6.653868    0.000000    1.000000
   426  Na    c    -6.688495   -4.453062    6.653868    0.000000    1.000000
   427  Na    c    -6.688495   -4.453062   -6.653868    0.000000    1.000000
   428  Na    c    -2.224515    6.702001    8.911381    0.000000    1.000000
   429  Na    c    -2.224515    6.702001   -8.911381    0.000000    1.000000
   430  Na    c    -2.224515   -6.702001    8.911381    0.000000    1.000000
   431  Na    c    -2.224515   -6.702001   -8.911381    0.000000    1.000000
   432  Na    c     6.678488    6.702001    8.911381    0.000000    1.000000
   433  Na    c     6.678488    6.702001   -8.911381    0.000000    1.000000
   434  Na    c     6.678488   -6.702001    8.911381    0.000000    1.000000
   435  Na    c     6.678488   -6.702001   -8.911381    0.000000    1.000000
   436  Na    c     6.678488    8.911381    6.702001    0.000000    1.000000
   437  Na    c     6.678488    8.911381   -6.702001    0.000000    1.000000
   438  Na    c     6.678488   -8.911381    6.702001    0.000000    1.000000
   439  Na    c     6.678488   -8.911381   -6.702001    0.000000    1.000000
   440  Na    c    -2.224515    8.911381    6.702001    0.000000    1.000000
   441  Na    c    -2.224515    8.911381   -6.702001    0.000000    1.000000
   442  Na    c    -2.224515   -8.911381    6.702001    0.000000    1.000000
   443  Na    c    -2.224515   -8.911381   -6.702001    0.000000    1.000000
   444  Na    c    -2.236248   11.151362    0.000000    0.000000    1.000000
   445  Na    c    -2.236248  -11.151362    0.000000    0.000000    1.000000
   446  Na    c    -2.236248    0.000000   11.151362    0.000000    1.000000
   447  Na    c    -2.236248    0.000000  -11.151362    0.000000    1.000000
   448  Na    c     6.690222   11.151362    0.000000    0.000000    1.000000
   449  Na    c     6.690222  -11.151362    0.000000    0.000000    1.000000
   450  Na    c     6.690222    0.000000   11.151362    0.000000    1.000000
   451  Na    c     6.690222    0.000000  -11.151362    0.000000    1.000000
   452  O     c    -2.225143   -2.227327   11.129901    0.000000    1.443000
   453  O     c    -2.225143   -2.227327  -11.129901    0.000000    1.443000
   454  O     c    -2.225143    2.227327   11.129901    0.000000    1.443000
   455  O     c    -2.225143    2.227327  -11.129901    0.000000    1.443000
   456  O     c    -2.225143   11.129901   -2.227327    0.000000    1.443000
   457  O     c    -2.225143   11.129901    2.227327    0.000000    1.443000
   458  O     c    -2.225143  -11.129901   -2.227327    0.000000    1.443000
   459  O     c    -2.225143  -11.129901    2.227327    0.000000    1.443000
   460  O     c     6.679117   -2.227327   11.129901    0.000000    1.443000
   461  O     c     6.679117   -2.227327  -11.129901    0.000000    1.443000
   462  O     c     6.679117    2.227327   11.129901    0.000000    1.443000
   463  O     c     6.679117    2.227327  -11.129901    0.000000    1.443000
   464  O     c     6.679117   11.129901   -2.227327    0.000000    1.443000
   465  O     c     6.679117   11.129901    2.227327    0.000000    1.443000
   466  O     c     6.679117  -11.129901   -2.227327    0.000000    1.443000
   467  O     c     6.679117  -11.129901    2.227327    0.000000    1.443000
   468  Cl    c    13.361393    4.461212    4.461212    0.000000    0.996000
   469  Cl    c    13.361393    4.461212   -4.461212    0.000000    0.996000
   470  Cl    c    13.361393   -4.461212    4.461212    0.000000    0.996000
   471  Cl    c    13.361393   -4.461212   -4.461212    0.000000    0.996000
   472  Cl    c    -8.907420    4.461212    4.461212    0.000000    0.996000
   473  Cl    c    -8.907420    4.461212   -4.461212    0.000000    0.996000
   474  Cl    c    -8.907420   -4.461212    4.461212    0.000000    0.996000
   475  Cl    c    -8.907420   -4.461212   -4.461212    0.000000    0.996000
   476  Na    c    -2.223453   11.138885    4.454435    0.000000    1.000000
   477  Na    c    -2.223453   11.138885   -4.454435    0.000000    1.000000
   478  Na    c    -2.223453  -11.138885    4.454435    0.000000    1.000000
   479  Na    c    -2.223453  -11.138885   -4.454435    0.000000    1.000000
   480  Na    c     6.677427   11.138885    4.454435    0.000000    1.000000
   481  Na    c     6.677427   11.138885   -4.454435    0.000000    1.000000
   482  Na    c     6.677427  -11.138885    4.454435    0.000000    1.000000
   483  Na    c     6.677427  -11.138885   -4.454435    0.000000    1.000000
   484  Na    c     6.677427    4.454435   11.138885    0.000000    1.000000
   485  Na    c     6.677427    4.454435  -11.138885    0.000000    1.000000
   486  Na    c     6.677427   -4.454435   11.138885    0.000000    1.000000
   487  Na    c     6.677427   -4.454435  -11.138885    0.000000    1.000000
   488  Na    c    -2.223453    4.454435   11.138885    0.000000    1.000000
   489  Na    c    -2.223453    4.454435  -11.138885    0.000000    1.000000
   490  Na    c    -2.223453   -4.454435   11.138885    0.000000    1.000000
   491  Na    c    -2.223453   -4.454435  -11.138885    0.000000    1.000000
   492  Cl    c     4.456386    8.898009    8.898009    0.000000    0.996000
   493  Cl    c     4.456386    8.898009   -8.898009    0.000000    0.996000
   494  Cl    c     4.456386   -8.898009    8.898009    0.000000    0.996000
   495  Cl    c     4.456386   -8.898009   -8.898009    0.000000    0.996000
   496  Cl    c    -0.002413    8.898009    8.898009    0.000000    0.996000
   497  Cl    c    -0.002413    8.898009   -8.898009    0.000000    0.996000
   498  Cl    c    -0.002413   -8.898009    8.898009    0.000000    0.996000
   499  Cl    c    -0.002413   -8.898009   -8.898009    0.000000    0.996000
   500  Na    c    11.279630   -2.295592    8.910604    0.000000    1.000000
   501  Na    c    11.279630   -2.295592   -8.910604    0.000000    1.000000
   502  Na    c    11.279630    2.295592    8.910604    0.000000    1.000000
   503  Na    c    11.279630    2.295592   -8.910604    0.000000    1.000000
[...]
     55 y          6.680961      6.681031     0.000071    Cartesian    0.00
     55 z         11.134934     11.139330     0.004395    Cartesian    0.04
     56 x         11.134934     11.135585     0.000651    Cartesian    0.01
     56 y          6.680961      6.679426    -0.001535    Cartesian   -0.02
     56 z          6.680961      6.679426    -0.001535    Cartesian   -0.02
     57 x          4.453974      4.454415     0.000442    Cartesian    0.01
     57 y          6.680961      6.679778    -0.001183    Cartesian   -0.02
     57 z         11.134934     11.151521     0.016587    Cartesian    0.15
     58 x          8.907948      8.907529    -0.000419    Cartesian   -0.00
     58 y         -2.226987     -2.233748    -0.006761    Cartesian    0.30
     58 z         11.134934     10.998674    -0.136260    Cartesian   -1.22
     59 x         13.361921     13.367652     0.005731    Cartesian    0.04
     59 y         -2.226987     -2.219306     0.007681    Cartesian   -0.34
     59 z          6.680961      6.639216    -0.041745    Cartesian   -0.62
     60 x          4.453974      4.442778    -0.011196    Cartesian   -0.25
     60 y          0.000000      0.000000     0.000000    Cartesian    0.00
     60 z         13.361921     13.345692    -0.016229    Cartesian   -0.12
     61 x          2.226987      2.226987     0.000000    Cartesian    0.00
     61 y         -2.226987     -2.160007     0.066980    Cartesian   -3.01
     61 z         13.361921     13.367177     0.005256    Cartesian    0.04
     62 x         15.588908     15.666718     0.077810    Cartesian    0.50
     62 y         -2.226987     -2.220519     0.006468    Cartesian   -0.29
     62 z          0.000000      0.000000     0.000000    Cartesian    0.00
     63 x          6.680961      6.680742    -0.000219    Cartesian   -0.00
     63 y          6.680961      6.681515     0.000554    Cartesian    0.01
     63 z         11.134934     11.136121     0.001186    Cartesian    0.01
     64 x         15.588908     15.592903     0.003994    Cartesian    0.03
     64 y         -2.226987     -2.226086     0.000901    Cartesian   -0.04
     64 z         -2.226987     -2.226086     0.000901    Cartesian   -0.04
     65 x          8.907948      8.895505    -0.012443    Cartesian   -0.14
     65 y          8.907948      8.900938    -0.007009    Cartesian   -0.08
     65 z          8.907948      8.900938    -0.007009    Cartesian   -0.08
     66 x         13.361921     13.356293    -0.005628    Cartesian   -0.04
     66 y          0.000000      0.000000     0.000000    Cartesian    0.00
     66 z          8.907948      8.913060     0.005113    Cartesian    0.06
     67 x          2.226987      2.226987     0.000000    Cartesian    0.00
     67 y         11.134934     11.143729     0.008794    Cartesian    0.08
     67 z          8.907948      8.908222     0.000274    Cartesian    0.00
     68 x         11.134934     11.148505     0.013571    Cartesian    0.12
     68 y          6.680961      6.664467    -0.016493    Cartesian   -0.25
     68 z          8.907948      8.906221    -0.001727    Cartesian   -0.02
     69 x         11.134934     11.143961     0.009026    Cartesian    0.08
     69 y         11.134934     11.084641    -0.050293    Cartesian   -0.45
     69 z          0.000000      0.000000     0.000000    Cartesian    0.00
     70 x          4.453974      4.452470    -0.001504    Cartesian   -0.03
     70 y          4.453974      4.456455     0.002481    Cartesian    0.06
     70 z         13.361921     13.347856    -0.014065    Cartesian   -0.11
     71 x         15.588908     15.578871    -0.010037    Cartesian   -0.06
     71 y         -2.226987     -2.223934     0.003053    Cartesian   -0.14
     71 z          4.453974      4.450948    -0.003026    Cartesian   -0.07
     72 x         -2.226987     -2.316594    -0.089607    Cartesian    4.02
     72 y         -2.226987     -2.226229     0.000758    Cartesian   -0.03
     72 z         13.361921     13.359064    -0.002857    Cartesian   -0.02
     73 x         11.134934     11.133950    -0.000984    Cartesian   -0.01
     73 y         11.134934     11.133228    -0.001707    Cartesian   -0.02
     73 z         -2.226987     -2.227300    -0.000313    Cartesian    0.01
     74 x          8.907948      8.907710    -0.000238    Cartesian   -0.00
     74 y          6.680961      6.684724     0.003764    Cartesian    0.06
     74 z         11.134934     11.131390    -0.003545    Cartesian   -0.03
     75 x         13.361921     13.364503     0.002581    Cartesian    0.02
     75 y          6.680961      6.672778    -0.008183    Cartesian   -0.12
     75 z          6.680961      6.672778    -0.008183    Cartesian   -0.12
     76 x         13.361921     13.360346    -0.001575    Cartesian   -0.01
     76 y          8.907948      8.910316     0.002368    Cartesian    0.03
     76 z          4.453974      4.454504     0.000530    Cartesian    0.01
     77 x         11.134934     11.135248     0.000313    Cartesian    0.00
     77 y         11.134934     11.164330     0.029395    Cartesian    0.26
     77 z          4.453974      4.455867     0.001894    Cartesian    0.04
     78 x          6.680961      6.681488     0.000528    Cartesian    0.01
     78 y         11.134934     11.143318     0.008384    Cartesian    0.08
     78 z          8.907948      8.909797     0.001850    Cartesian    0.02
     79 x          8.907948      8.886544    -0.021403    Cartesian   -0.24
     79 y          0.000000      0.000000     0.000000    Cartesian    0.00
     79 z         13.361921     13.366378     0.004456    Cartesian    0.03
     80 x          2.226987      2.226987     0.000000    Cartesian    0.00
     80 y          6.680961      6.693676     0.012715    Cartesian    0.19
     80 z         13.361921     13.366838     0.004916    Cartesian    0.04
     81 x         15.588908     15.600081     0.011173    Cartesian    0.07
     81 y          6.680961      6.673119    -0.007842    Cartesian   -0.12
     81 z          0.000000      0.000000     0.000000    Cartesian    0.00
     82 x         15.588908     15.589758     0.000850    Cartesian    0.01
     82 y         -2.226987     -2.227099    -0.000112    Cartesian    0.01
     82 z          6.680961      6.679720    -0.001241    Cartesian   -0.02
     83 x        -13.361921    -13.347830     0.014091    Cartesian   -0.11
     83 y          0.000000      0.000000     0.000000    Cartesian    0.00
     83 z          0.000000      0.000000     0.000000    Cartesian    0.00
     84 x          2.226987      2.226987     0.000000    Cartesian    0.00
     84 y         15.588908     15.643348     0.054440    Cartesian    0.35
     84 z          0.000000      0.000000     0.000000    Cartesian    0.00
     85 x          8.907948      8.905157    -0.002790    Cartesian   -0.03
     85 y          4.453974      4.453402    -0.000571    Cartesian   -0.01
     85 z         13.361921     13.355775    -0.006147    Cartesian   -0.05
     86 x          6.680961      6.691501     0.010541    Cartesian    0.16
     86 y          6.680961      6.685119     0.004159    Cartesian    0.06
     86 z         13.361921     13.364529     0.002607    Cartesian    0.02
     87 x         15.588908     15.597926     0.009017    Cartesian    0.06
     87 y          6.680961      6.678669    -0.002292    Cartesian   -0.03
     87 z          4.453974      4.454238     0.000264    Cartesian    0.01
     88 x          2.226987      2.226987     0.000000    Cartesian    0.00
     88 y         -2.226987     -2.226070     0.000917    Cartesian   -0.04
     88 z         15.588908     15.587868    -0.001041    Cartesian   -0.01
     89 x          2.226987      2.226987     0.000000    Cartesian    0.00
     89 y         11.134934     11.132378    -0.002557    Cartesian   -0.02
     89 z         11.134934     11.132378    -0.002557    Cartesian   -0.02
     90 x         11.134934     11.132896    -0.002039    Cartesian   -0.02
     90 y          6.680961      6.679973    -0.000988    Cartesian   -0.01
     90 z         11.134934     11.132544    -0.002391    Cartesian   -0.02
     91 x          4.453974      4.458173     0.004199    Cartesian    0.09
     91 y         -2.226987     -2.231217    -0.004230    Cartesian    0.19
     91 z         15.588908     15.583497    -0.005411    Cartesian   -0.03
     92 x        -13.361921    -13.368382    -0.006461    Cartesian    0.05
     92 y         -2.226987     -2.255075    -0.028088    Cartesian    1.26
     92 z         -2.226987     -2.255075    -0.028088    Cartesian    1.26
     93 x          4.453974      4.454636     0.000663    Cartesian    0.01
     93 y         11.134934     11.147621     0.012687    Cartesian    0.11
     93 z         11.134934     11.147621     0.012687    Cartesian    0.11
     94 x         13.361921     13.366077     0.004156    Cartesian    0.03
     94 y         -2.226987     -2.229705    -0.002718    Cartesian    0.12
     94 z         11.134934     11.176878     0.041943    Cartesian    0.38
     95 x          4.453974      4.794312     0.340338    Cartesian    7.64
     95 y          0.000000      0.000000     0.000000    Cartesian    0.00
     95 z          0.000000      0.000000     0.000000    Cartesian    0.00
     96 x          2.226987      2.226987     0.000000    Cartesian    0.00
     96 y         -2.226987     -2.113416     0.113571    Cartesian   -5.10
     96 z         -2.226987     -2.113416     0.113571    Cartesian   -5.10
     97 x          4.453974      4.406420    -0.047554    Cartesian   -1.07
     97 y          0.000000      0.000000     0.000000    Cartesian    0.00
     97 z          4.453974      4.472448     0.018475    Cartesian    0.41
     98 x         -2.226987     -2.276043    -0.049056    Cartesian    2.20
     98 y         -2.226987     -2.237463    -0.010477    Cartesian    0.47
     98 z         -2.226987     -2.237463    -0.010477    Cartesian    0.47
     99 x          4.453974      4.338646    -0.115328    Cartesian   -2.59
     99 y          4.453974      4.360916    -0.093058    Cartesian   -2.09
     99 z          4.453974      4.360916    -0.093058    Cartesian   -2.09
    100 x          8.907948      8.948750     0.040802    Cartesian    0.46
    100 y          0.000000      0.000000     0.000000    Cartesian    0.00
    100 z          0.000000      0.000000     0.000000    Cartesian    0.00
    101 x          2.226987      2.226987     0.000000    Cartesian    0.00
    101 y         -2.226987     -2.238407    -0.011420    Cartesian    0.51
    101 z          6.680961      6.652238    -0.028723    Cartesian   -0.43
    102 x          8.907948      8.906598    -0.001350    Cartesian   -0.02
    102 y          0.000000      0.000000     0.000000    Cartesian    0.00
    102 z          4.453974      4.414571    -0.039402    Cartesian   -0.88
    103 x          6.680961      6.674039    -0.006921    Cartesian   -0.10
    103 y         -2.226987     -2.228647    -0.001660    Cartesian    0.07
    103 z          6.680961      6.685967     0.005006    Cartesian    0.07
    104 x          4.453974      4.453030    -0.000944    Cartesian   -0.02
    104 y          0.000000      0.000000     0.000000    Cartesian    0.00
    104 z          8.907948      8.876728    -0.031219    Cartesian   -0.35
    105 x          8.907948      8.900679    -0.007268    Cartesian   -0.08
    105 y          4.453974      4.449427    -0.004547    Cartesian   -0.10
    105 z          4.453974      4.449427    -0.004547    Cartesian   -0.10
    106 x          2.226987      2.226987     0.000000    Cartesian    0.00
    106 y          6.680961      6.689426     0.008465    Cartesian    0.13
    106 z          6.680961      6.689426     0.008465    Cartesian    0.13
    107 x         11.134934     11.134732    -0.000202    Cartesian   -0.00
    107 y         -2.226987     -2.227962    -0.000975    Cartesian    0.04
    107 z         -2.226987     -2.227962    -0.000975    Cartesian    0.04
    108 x          4.453974      4.453536    -0.000438    Cartesian   -0.01
    108 y          4.453974      4.459580     0.005607    Cartesian    0.13
    108 z          8.907948      8.880659    -0.027289    Cartesian   -0.31
    109 x          6.680961      6.676551    -0.004409    Cartesian   -0.07
    109 y          6.680961      6.679917    -0.001043    Cartesian   -0.02
    109 z          6.680961      6.679917    -0.001043    Cartesian   -0.02
    110 x          8.907948      8.894845    -0.013102    Cartesian   -0.15
    110 y          0.000000      0.000000     0.000000    Cartesian    0.00
    110 z          8.907948      8.893098    -0.014849    Cartesian   -0.17
    111 x         13.361921     13.368964     0.007043    Cartesian    0.05
    111 y          0.000000      0.000000     0.000000    Cartesian    0.00
    111 z          0.000000      0.000000     0.000000    Cartesian    0.00
    112 x          2.226987      2.226987     0.000000    Cartesian    0.00
    112 y         -2.226987     -2.224687     0.002300    Cartesian   -0.10
    112 z         11.134934     11.141519     0.006584    Cartesian    0.06
    113 x         11.134934     11.145762     0.010827    Cartesian    0.10
    113 y         -2.226987     -2.228962    -0.001976    Cartesian    0.09
    113 z          6.680961      6.694555     0.013594    Cartesian    0.20
    114 x          8.907948      8.902152    -0.005796    Cartesian   -0.07
    114 y          4.453974      4.458136     0.004163    Cartesian    0.09
    114 z          8.907948      8.891491    -0.016456    Cartesian   -0.18
    115 x         13.361921     13.368684     0.006763    Cartesian    0.05
    115 y          0.000000      0.000000     0.000000    Cartesian    0.00
    115 z          4.453974      4.473308     0.019335    Cartesian    0.43
    116 x         -2.226987     -2.219646     0.007341    Cartesian   -0.33
    116 y         -2.226987     -2.226826     0.000161    Cartesian   -0.01
    116 z         11.134934     11.128859    -0.006075    Cartesian   -0.05
    117 x         13.361921     13.360374    -0.001547    Cartesian   -0.01
    117 y          4.453974      4.467094     0.013120    Cartesian    0.29
    117 z          4.453974      4.467094     0.013120    Cartesian    0.29
    118 x          4.453974      4.457779     0.003805    Cartesian    0.09
    118 y          8.907948      8.891692    -0.016255    Cartesian   -0.18
    118 z          8.907948      8.891692    -0.016255    Cartesian   -0.18
    119 x          2.226987      2.226987     0.000000    Cartesian    0.00
    119 y          6.680961      6.683356     0.002395    Cartesian    0.04
    119 z         11.134934     11.142017     0.007082    Cartesian    0.06
    120 x         11.134934     11.137016     0.002082    Cartesian    0.02
    120 y          6.680961      6.677281    -0.003680    Cartesian   -0.06
    120 z          6.680961      6.677281    -0.003680    Cartesian   -0.06
    121 x          4.453974      4.435170    -0.018804    Cartesian   -0.42
    121 y          0.000000      0.000000     0.000000    Cartesian    0.00
    121 z         13.361921     13.335506    -0.026416    Cartesian   -0.20
    122 x          6.680961      6.680880    -0.000080    Cartesian   -0.00
    122 y          6.680961      6.682715     0.001754    Cartesian    0.03
    122 z         11.134934     11.135936     0.001001    Cartesian    0.01
    123 x         15.588908     15.600135     0.011227    Cartesian    0.07
    123 y         -2.226987     -2.224023     0.002964    Cartesian   -0.13
    123 z         -2.226987     -2.224023     0.002964    Cartesian   -0.13
    124 x          8.907948      8.890691    -0.017257    Cartesian   -0.19
    124 y          8.907948      8.898726    -0.009221    Cartesian   -0.10
    124 z          8.907948      8.898726    -0.009221    Cartesian   -0.10
    125 x         13.361921     13.346344    -0.015578    Cartesian   -0.12
    125 y          0.000000      0.000000     0.000000    Cartesian    0.00
    125 z          8.907948      8.913125     0.005178    Cartesian    0.06
    126 x          4.453974      4.450304    -0.003669    Cartesian   -0.08
    126 y          4.453974      4.456647     0.002674    Cartesian    0.06
    126 z         13.361921     13.340002    -0.021919    Cartesian   -0.16
    127 x         11.134934     11.143834     0.008900    Cartesian    0.08
    127 y         11.134934     11.126205    -0.008729    Cartesian   -0.08
    127 z         -2.226987     -2.232032    -0.005045    Cartesian    0.23
    128 x         13.361921     13.352519    -0.009402    Cartesian   -0.07
    128 y          8.907948      8.911075     0.003127    Cartesian    0.04
    128 z          4.453974      4.449509    -0.004465    Cartesian   -0.10
    129 x          8.907948      8.874547    -0.033400    Cartesian   -0.37
    129 y          0.000000      0.000000     0.000000    Cartesian    0.00
    129 z         13.361921     13.374293     0.012372    Cartesian    0.09
    130 x         15.588908     15.588625    -0.000283    Cartesian   -0.00
    130 y         -2.226987     -2.226329     0.000658    Cartesian   -0.03
    130 z          6.680961      6.676775    -0.004186    Cartesian   -0.06
    131 x        -13.361921    -13.334943     0.026978    Cartesian   -0.20
    131 y          0.000000      0.000000     0.000000    Cartesian    0.00
    131 z          0.000000      0.000000     0.000000    Cartesian    0.00
    132 x          8.907948      8.902827    -0.005120    Cartesian   -0.06
    132 y          4.453974      4.453704    -0.000270    Cartesian   -0.01
    132 z         13.361921     13.357059    -0.004862    Cartesian   -0.04
    133 x          2.226987      2.226987     0.000000    Cartesian    0.00
    133 y         -2.226987     -2.221838     0.005149    Cartesian   -0.23
    133 z         15.588908     15.588353    -0.000555    Cartesian   -0.00
    134 x          2.226987      2.226987     0.000000    Cartesian    0.00
    134 y         11.134934     11.133018    -0.001917    Cartesian   -0.02
    134 z         11.134934     11.133018    -0.001917    Cartesian   -0.02
    135 x         11.134934     11.132700    -0.002234    Cartesian   -0.02
    135 y          6.680961      6.677791    -0.003169    Cartesian   -0.05
    135 z         11.134934     11.133660    -0.001274    Cartesian   -0.01
--------------------------------------------------------------------------------


  Time to end of optimisation  =       33.0092 seconds


  Peak dynamic memory used =     317.35 MB 


  Timing analysis for GULP :

--------------------------------------------------------------------------------
  Task / Subroutine                                          Time (Seconds)
--------------------------------------------------------------------------------
  Calculation of reciprocal space energy and derivatives          0.0004
  Calculation of reciprocal space energy using symmetry           0.0005
  Calculation of real space energy and derivatives                0.0021
  Calculation of real space energy using symmetry                 0.0048
  Calculation for region 1 energy and derivatives (2-b)          20.1994
  Calculation for region 2a energy                               11.5317
  Calculation for region 2b energy                                0.0003
  Calculation and manipulation of Hessian matrix                  0.8862
  Calculation of matrix inversion                                 0.0444
  Symmetry generation of equivalent positions                     0.0026
--------------------------------------------------------------------------------
  Total CPU time                                                 33.0093
--------------------------------------------------------------------------------


  Dump file written as Na3OCl.grs


  Job Finished at 17:07.46  1st March      2021                               

