********************************************************************************
*                       GENERAL UTILITY LATTICE PROGRAM                        *
*                                 Julian Gale                                  *
*                       Curtin Institute for Computation                       *
*                    School of Molecular and Life Sciences                     *
*                    Curtin University, Western Australia                      *
********************************************************************************
* Version = 5.2.0 * Last modified =  10th September 2020                       *
********************************************************************************
*  optimise     - perform optimisation run                                     *
*  conp         - constant pressure calculation                                *
*  property     - calculate properties for final geometry                      *
*  defect       - perform defect calculation after bulk run                    *
*  compare      - compare initial and final structures                         *
********************************************************************************

  Job Started  at 23:06.58 25th August     2021                               

  Number of CPUs =     1


  Total number of configurations input =      1

********************************************************************************
*  Input for Configuration =   1                                               *
********************************************************************************

  Formula = ClONa3                                                      

  Number of irreducible atoms/shells =       5


  Total number atoms/shells =       7

  Dimensionality = 3               :  Bulk   


  Symmetry :

  Crystal family                   :  Cubic       
  Crystal class  (Groth - 1921)    :  Cubic Hexakisoctahedral              

  Space group (centrosymmetric)    :  P M 3 M         

  Patterson group                  :  P m -3 m 

  Cartesian lattice vectors (Angstroms) :

        4.504000    0.000000    0.000000
        0.000000    4.504000    0.000000
        0.000000    0.000000    4.504000

  Cell parameters (Angstroms/Degrees):

  a =       4.5040    alpha =  90.0000
  b =       4.5040    beta  =  90.0000
  c =       4.5040    gamma =  90.0000

  Initial cell volume =          91.368216 Angs**3

  Temperature of configuration =   0.00     K 

  Pressure of configuration =         0.000 GPa 

  Fractional coordinates of asymmetric unit :

--------------------------------------------------------------------------------
   No.  Atomic       x           y          z         Charge      Occupancy
        Label      (Frac)      (Frac)     (Frac)        (e)         (Frac)  
--------------------------------------------------------------------------------
      1 Cl    c    0.000000    0.000000    0.000000     1.48500    1.000000    
      2 O     c    0.500000    0.500000    0.500000     0.18300    1.000000    
      3 Na    c    0.500000    0.500000    0.000000     1.00000    1.000000    
      4 Cl    s    0.000000    0.000000    0.000000    -2.48500    1.000000    
      5 O     s    0.500000    0.500000    0.500000    -2.18300    1.000000    
--------------------------------------------------------------------------------


  Constraints : 

--------------------------------------------------------------------------------
  Constraint no.      Unconstrained     Constrained    Coefficient    Offset
                         Variable         Variable
--------------------------------------------------------------------------------
           1              Strain 1        Strain 2       1.00000      0.0000
           2              Strain 1        Strain 3       1.00000      0.0000
--------------------------------------------------------------------------------


********************************************************************************
*  General input information                                                   *
********************************************************************************

  Species output for all configurations : 

--------------------------------------------------------------------------------
  Species    Type    Atomic    Atomic    Charge       Radii (Angs)     Library
                     Number     Mass       (e)     Cova   Ionic  VDW   Symbol
--------------------------------------------------------------------------------
    Na       Core       11      22.99   1.000000   0.970  0.000  2.300          
    O        Core        8      16.00   0.183000   0.730  0.000  1.360          
    O        Shell       8       0.00  -2.183000   0.730  0.000  1.360          
    Cl       Core       17      35.45   1.485000   0.990  0.000  1.650          
    Cl       Shell      17       0.00  -2.485000   0.990  0.000  1.650          
    Mg       Core       12      24.31   0.415000   1.100  0.000  0.000          
    Mg       Shell      12       0.00   1.585000   1.100  0.000  0.000          
    Ca       Core       20      40.08  -1.135000   0.990  0.000  0.000          
    Ca       Shell      20       0.00   3.135000   0.990  0.000  0.000          
    Sr       Core       38      87.62  -1.251000   1.120  0.000  0.000          
    Sr       Shell      38       0.00   3.251000   1.120  0.000  0.000          
    Ba       Core       56     137.33  -7.203000   1.340  0.000  0.000          
    Ba       Shell      56       0.00   9.203000   1.340  0.000  0.000          
    Al       Core       13      26.98   3.000000   1.350  0.000  0.000          
--------------------------------------------------------------------------------


  Lattice summation method               =    Ewald          (3-D)
                                         =    Parry          (2-D)
                                         =    Saunders et al (1-D)
  Accuracy factor for lattice sums       =   12.000


  Analytic derivatives to be used

  Time limit = Infinity

  Maximum range for interatomic potentials =    100000.000000 Angstroms

  General interatomic potentials :

--------------------------------------------------------------------------------
Atom  Types   Potential      Parameter       Value         Units   Cutoffs(Ang)
  1     2                                                            Min /  Max 
--------------------------------------------------------------------------------
O    c O    s Spring (c-s)  Spring k 2       593.71600    eV*Ang^-2 0.000  0.800
                            Spring k 4       0.0000000    eV*Ang^-4 
--------------------------------------------------------------------------------
Cl   c Cl   s Spring (c-s)  Spring k 2       29.380000    eV*Ang^-2 0.000  0.800
                            Spring k 4       0.0000000    eV*Ang^-4 
--------------------------------------------------------------------------------
Mg   c Mg   s Spring (c-s)  Spring k 2       361.60000    eV*Ang^-2 0.000  0.800
                            Spring k 4       0.0000000    eV*Ang^-4 
--------------------------------------------------------------------------------
Ca   c Ca   s Spring (c-s)  Spring k 2       110.20000    eV*Ang^-2 0.000  0.800
                            Spring k 4       0.0000000    eV*Ang^-4 
--------------------------------------------------------------------------------
Sr   c Sr   s Spring (c-s)  Spring k 2       71.700000    eV*Ang^-2 0.000  0.800
                            Spring k 4       0.0000000    eV*Ang^-4 
--------------------------------------------------------------------------------
Ba   c Ba   s Spring (c-s)  Spring k 2       495.20000    eV*Ang^-2 0.000  0.800
                            Spring k 4       0.0000000    eV*Ang^-4 
--------------------------------------------------------------------------------
Na   c Na   c Buckingham    Buckingham A     1788.1900    eV        0.000 12.000
                            Buckingham rho  0.15900000    Ang       
                            Buckingham C     0.0000000    eV*Ang^6  
--------------------------------------------------------------------------------
Na   c O    s Buckingham    Buckingham A     588.38000    eV        0.000 12.000
                            Buckingham rho  0.33800000    Ang       
                            Buckingham C     0.0000000    eV*Ang^6  
--------------------------------------------------------------------------------
Na   c Cl   s Buckingham    Buckingham A     1170.4100    eV        0.000 12.000
                            Buckingham rho  0.31500000    Ang       
                            Buckingham C     0.0000000    eV*Ang^6  
--------------------------------------------------------------------------------
O    s O    s Buckingham    Buckingham A     22764.300    eV        0.000 12.000
                            Buckingham rho  0.14900000    Ang       
                            Buckingham C     13.190000    eV*Ang^6  
--------------------------------------------------------------------------------
O    s Cl   s Buckingham    Buckingham A     8286.9100    eV        0.000 12.000
                            Buckingham rho  0.25900000    Ang       
                            Buckingham C     62.200000    eV*Ang^6  
--------------------------------------------------------------------------------
Cl   s Cl   s Buckingham    Buckingham A     1227.2000    eV        0.000 12.000
                            Buckingham rho  0.32100000    Ang       
                            Buckingham C     14.530000    eV*Ang^6  
--------------------------------------------------------------------------------
O    s Mg   s Buckingham    Buckingham A     1428.5000    eV        0.000 12.000
                            Buckingham rho  0.29450000    Ang       
                            Buckingham C     0.0000000    eV*Ang^6  
--------------------------------------------------------------------------------
Mg   s Cl   s Buckingham    Buckingham A     4914.5400    eV        0.000 12.000
                            Buckingham rho  0.25700000    Ang       
                            Buckingham C     0.0000000    eV*Ang^6  
--------------------------------------------------------------------------------
O    s Ca   s Buckingham    Buckingham A     1090.4000    eV        0.000 12.000
                            Buckingham rho  0.34370000    Ang       
                            Buckingham C     0.0000000    eV*Ang^6  
--------------------------------------------------------------------------------
Cl   s Ca   s Buckingham    Buckingham A     2302.0000    eV        0.000 12.000
                            Buckingham rho  0.34020000    Ang       
                            Buckingham C     0.0000000    eV*Ang^6  
--------------------------------------------------------------------------------
O    s Sr   s Buckingham    Buckingham A     959.10000    eV        0.000 12.000
                            Buckingham rho  0.37210000    Ang       
                            Buckingham C     0.0000000    eV*Ang^6  
--------------------------------------------------------------------------------
Cl   s Sr   s Buckingham    Buckingham A     2191.0900    eV        0.000 12.000
                            Buckingham rho  0.34570000    Ang       
                            Buckingham C     0.0000000    eV*Ang^6  
--------------------------------------------------------------------------------
O    s Ba   s Buckingham    Buckingham A     905.70000    eV        0.000 12.000
                            Buckingham rho  0.39760000    Ang       
                            Buckingham C     0.0000000    eV*Ang^6  
--------------------------------------------------------------------------------
Cl   s Ba   s Buckingham    Buckingham A     2704.5500    eV        0.000 12.000
                            Buckingham rho  0.35280000    Ang       
                            Buckingham C     0.0000000    eV*Ang^6  
--------------------------------------------------------------------------------
Al   c O    s Buckingham    Buckingham A     1725.0000    eV        0.000 12.000
                            Buckingham rho  0.28970000    Ang       
                            Buckingham C     0.0000000    eV*Ang^6  
--------------------------------------------------------------------------------
Al   c Cl   s Buckingham    Buckingham A     1736.1200    eV        0.000 12.000
                            Buckingham rho  0.29170000    Ang       
                            Buckingham C     0.0000000    eV*Ang^6  
--------------------------------------------------------------------------------

********************************************************************************
*  Output for configuration   1                                                *
********************************************************************************


  Components of energy : 

--------------------------------------------------------------------------------
  Interatomic potentials     =           4.94315381 eV    
  Monopole - monopole (real) =         -10.03624526 eV    
  Monopole - monopole (recip)=         -29.53581274 eV    
  Monopole - monopole (total)=         -39.57205800 eV    
--------------------------------------------------------------------------------
  Total lattice energy       =         -34.62890419 eV    
--------------------------------------------------------------------------------
  Total lattice energy       =           -3341.1599 kJ/(mole unit cells)
--------------------------------------------------------------------------------


  Number of variables =        1

  Maximum number of calculations  =          1000
  Maximum Hessian update interval =            10
  Maximum step size               =   1.000000000
  Maximum parameter tolerance     =   0.000010000
  Maximum function  tolerance     =   0.000010000
  Maximum gradient  tolerance     =   0.001000000
  Maximum gradient  component     =   0.010000000

  Symmetry constrained optimisation

  Symmetry used for second derivatives

  Cell parameters to be optimised using strains

  Newton-Raphson optimiser to be used

  BFGS hessian update to be used

  Lower half triangular hessian to be used

  Start of bulk optimisation :

  Cycle:      0 Energy:       -34.628904  Gnorm:      4.328237  CPU:    0.005
  ** Hessian calculated **
  Cycle:      1 Energy:       -34.677667  Gnorm:      0.044008  CPU:    0.007
  Cycle:      2 Energy:       -34.677671  Gnorm:      0.003653  CPU:    0.008


  **** Optimisation achieved ****


  Final energy =     -34.67767136 eV
  Final Gnorm  =       0.00000010

  Components of energy : 

--------------------------------------------------------------------------------
  Interatomic potentials     =           5.77546103 eV    
  Monopole - monopole (real) =         -10.25970290 eV    
  Monopole - monopole (recip)=         -30.19342950 eV    
  Monopole - monopole (total)=         -40.45313239 eV    
--------------------------------------------------------------------------------
  Total lattice energy       =         -34.67767136 eV    
--------------------------------------------------------------------------------
  Total lattice energy       =           -3345.8652 kJ/(mole unit cells)
--------------------------------------------------------------------------------

  Final asymmetric unit coordinates :

--------------------------------------------------------------------------------
   No.  Atomic        x           y           z         Radius
        Label       (Frac)      (Frac)      (Frac)       (Angs) 
--------------------------------------------------------------------------------
     1  Cl    c     0.000000    0.000000    0.000000    0.000000
     2  O     c     0.500000    0.500000    0.500000    0.000000
     3  Na    c     0.500000    0.500000    0.000000    0.000000
     4  Cl    s     0.000000    0.000000    0.000000    0.000000
     5  O     s     0.500000    0.500000    0.500000    0.000000
--------------------------------------------------------------------------------

  Final Cartesian lattice vectors (Angstroms) :

        4.405902    0.000000    0.000000
        0.000000    4.405902    0.000000
        0.000000    0.000000    4.405902


  Final cell parameters and derivatives :

--------------------------------------------------------------------------------
       a            4.405902 Angstrom     dE/de1(xx)     0.000000 eV/strain
       b            4.405902 Angstrom     dE/de2(yy)     0.000000 eV/strain
       c            4.405902 Angstrom     dE/de3(zz)     0.000000 eV/strain
       alpha       90.000000 Degrees      dE/de4(yz)     0.000000 eV/strain
       beta        90.000000 Degrees      dE/de5(xz)     0.000000 eV/strain
       gamma       90.000000 Degrees      dE/de6(xy)     0.000000 eV/strain
--------------------------------------------------------------------------------

  Primitive cell volume =            85.527266 Angs**3

  Density of cell =      2.338030 g/cm**3

  Non-primitive cell volume =            85.527266 Angs**3


  Final internal derivatives :

--------------------------------------------------------------------------------
   No.  Atomic          a             b             c           Radius
        Label          (eV)          (eV)          (eV)        (eV/Angs)
--------------------------------------------------------------------------------
      1 Cl    c       0.000000      0.000000      0.000000      0.000000
      2 O     c       0.000000      0.000000      0.000000      0.000000
      3 Na    c       0.000000      0.000000      0.000000      0.000000
      4 Cl    s       0.000000      0.000000      0.000000      0.000000
      5 O     s       0.000000      0.000000      0.000000      0.000000
--------------------------------------------------------------------------------
  Maximum abs         0.000000      0.000000      0.000000      0.000000
--------------------------------------------------------------------------------

  Comparison of initial and final structures : 

--------------------------------------------------------------------------------
  Parameter   Initial value   Final value   Difference    Units      Percent
--------------------------------------------------------------------------------
    Volume        91.368216     85.527266    -5.840950    Angs**3     -6.39
    a              4.504000      4.405902    -0.098098    Angstroms   -2.18
    b              4.504000      4.405902    -0.098098    Angstroms   -2.18
    c              4.504000      4.405902    -0.098098    Angstroms   -2.18
    alpha         90.000000     90.000000     0.000000    Degrees      0.00
    beta          90.000000     90.000000     0.000000    Degrees      0.00
    gamma         90.000000     90.000000     0.000000    Degrees      0.00
      1 x          0.000000      0.000000     0.000000    Fractional   0.00
      1 y          0.000000      0.000000     0.000000    Fractional   0.00
      1 z          0.000000      0.000000     0.000000    Fractional   0.00
      2 x          0.500000      0.500000     0.000000    Fractional   0.00
      2 y          0.500000      0.500000     0.000000    Fractional   0.00
      2 z          0.500000      0.500000     0.000000    Fractional   0.00
      3 x          0.500000      0.500000     0.000000    Fractional   0.00
      3 y          0.500000      0.500000     0.000000    Fractional   0.00
      3 z          0.000000      0.000000     0.000000    Fractional   0.00
      4 x          0.000000      0.000000     0.000000    Fractional   0.00
      4 y          0.000000      0.000000     0.000000    Fractional   0.00
      4 z          0.000000      0.000000     0.000000    Fractional   0.00
      5 x          0.500000      0.500000     0.000000    Fractional   0.00
      5 y          0.500000      0.500000     0.000000    Fractional   0.00
      5 z          0.500000      0.500000     0.000000    Fractional   0.00
--------------------------------------------------------------------------------


  Born effective charge tensors : 

-------------------------------------------------------------------------------
  Atom             x           y             z
-------------------------------------------------------------------------------
    1 Cl    x      -0.9918     -0.0000     -0.0000
            y      -0.0000     -0.9918     -0.0000
            z      -0.0000     -0.0000     -0.9918
-------------------------------------------------------------------------------
    2 O     x      -2.2939      0.0000      0.0000
            y       0.0000     -2.2939      0.0000
            z       0.0000      0.0000     -2.2939
-------------------------------------------------------------------------------
    3 Na    x       1.2243      0.0000      0.0000
            y       0.0000      1.2243     -0.0000
            z       0.0000      0.0000      0.8372
-------------------------------------------------------------------------------




  Elastic Constant Matrix: (Units=GPa)

-------------------------------------------------------------------------------
  Indices      1         2         3         4         5         6    
-------------------------------------------------------------------------------
       1     82.7680   24.3534   24.3534   -0.0000    0.0000   -0.0000
       2     24.3534   82.7680   24.3534    0.0000   -0.0000   -0.0000
       3     24.3534   24.3534   82.7680    0.0000   -0.0000    0.0000
       4     -0.0000    0.0000    0.0000   24.3534   -0.0000    0.0000
       5      0.0000   -0.0000   -0.0000   -0.0000   24.3534    0.0000
       6     -0.0000   -0.0000    0.0000    0.0000    0.0000   24.3534
-------------------------------------------------------------------------------


  Elastic Compliance Matrix: (Units=1/GPa)

-------------------------------------------------------------------------------
  Indices      1         2         3         4         5         6    
-------------------------------------------------------------------------------
       1    0.013948 -0.003171 -0.003171  0.000000 -0.000000  0.000000
       2   -0.003171  0.013948 -0.003171 -0.000000  0.000000 -0.000000
       3   -0.003171 -0.003171  0.013948 -0.000000  0.000000 -0.000000
       4    0.000000 -0.000000 -0.000000  0.041062  0.000000 -0.000000
       5   -0.000000  0.000000  0.000000  0.000000  0.041062 -0.000000
       6    0.000000 -0.000000 -0.000000 -0.000000 -0.000000  0.041062
-------------------------------------------------------------------------------

  Mechanical properties :

-------------------------------------------------------------------------------
  Convention :                    Reuss         Voigt         Hill
-------------------------------------------------------------------------------
  Bulk  Modulus (GPa)     =      43.82493      43.82493      43.82493
  Shear Modulus (GPa)     =      26.08758      26.29496      26.19127
-------------------------------------------------------------------------------
  Velocity S-wave (km/s)  =       3.34035       3.35360       3.34698
  Velocity P-wave (km/s)  =       5.79842       5.80861       5.80351
-------------------------------------------------------------------------------
  Compressibility (1/GPa) =    0.02281806
-------------------------------------------------------------------------------
  Stress axis :                     x             y             z
-------------------------------------------------------------------------------
  Youngs Moduli (GPa)     =      71.69479      71.69479      71.69479
-------------------------------------------------------------------------------
  Poissons Ratio (x)      =                     0.22734       0.22734
  Poissons Ratio (y)      =       0.22734                     0.22734
  Poissons Ratio (z)      =       0.22734       0.22734
-------------------------------------------------------------------------------


  Piezoelectric Strain Matrix: (Units=C/m**2)

-------------------------------------------------------------------------------
  Indices      1         2         3         4         5         6    
-------------------------------------------------------------------------------
       x    -0.00000  -0.00000  -0.00000  -0.00000   0.00000  -0.00000
       y     0.00000  -0.00000   0.00000   0.00000  -0.00000   0.00000
       z    -0.00000  -0.00000   0.00000  -0.00000   0.00000  -0.00000
-------------------------------------------------------------------------------


  Piezoelectric Stress Matrix: (Units=10**-11 C/N)

-------------------------------------------------------------------------------
  Indices      1         2         3         4         5         6    
-------------------------------------------------------------------------------
       x     0.00000  -0.00000  -0.00000  -0.00000   0.00000  -0.00000
       y     0.00000  -0.00000   0.00000   0.00000  -0.00000   0.00000
       z    -0.00000  -0.00000   0.00000  -0.00000   0.00000  -0.00000
-------------------------------------------------------------------------------


  Static dielectric constant tensor : 

-------------------------------------------------------------------------------
              x         y         z
-------------------------------------------------------------------------------
       x    11.08357   0.00000   0.00000
       y     0.00000  11.08357   0.00000
       z     0.00000   0.00000  11.08357
--------------------------------------------------------------------------------

  High frequency dielectric constant tensor : 

-------------------------------------------------------------------------------
              x         y         z
-------------------------------------------------------------------------------
       x     1.50771   0.00000   0.00000
       y     0.00000   1.50771   0.00000
       z     0.00000   0.00000   1.50771
-------------------------------------------------------------------------------

  Static refractive indices : 

-------------------------------------------------------------------------------
    1 =    3.32920      2 =    3.32920      3 =    3.32920
-------------------------------------------------------------------------------

  High frequency refractive indices : 

-------------------------------------------------------------------------------
    1 =    1.22789      2 =    1.22789      3 =    1.22789
-------------------------------------------------------------------------------


  Time to end of optimisation =       0.0107 seconds

********************************************************************************
*  Defect calculation for configuration   1 :                                  *
********************************************************************************

  Total number of defects =      1

  Total charge on defect  =   2.00

  Defect centre is at   0.5000   0.5000   0.0000  Frac

  Region 1 radius =  16.0000      Number of ions =   1371

  Number of symmetry inequivalent region 1 ions  =    140

  Region 2 radius =  20.0000      Number of ions =   1374

  Number of symmetry inequivalent region 2a ions =    116

  Region 2a mode = 4 : screened electrostatics due to region 1 
                       neglect correction to region 1 forces from 2a
                       region 2a displacements based on defects only

  Region 2a ions will only interact with defects in region 1

  Impurities:

--------------------------------------------------------------------------------
    Specification type     Symbol/Number         x          y          z
--------------------------------------------------------------------------------
    Frac/Symbol             Al               0.500000   0.500000   0.000000
--------------------------------------------------------------------------------


  Symmetry reduced region 1 (Relative to defect centre) :

--------------------------------------------------------------------------------
   No.   Atomic       x            y             z       Radius  Multiplicity   
         Label      (Angs)       (Angs)        (Angs)    (Angs)     
--------------------------------------------------------------------------------
     1  Al    c      0.0000       0.0000       0.0000    0.0000     1    Defect
     2  O     c      0.0000       0.0000      -2.2030 *  0.0000     2          
     3  Cl    c      2.2030 *     2.2030       0.0000    0.0000     4          
     4  Na    c      2.2030 *     0.0000      -2.2030 *  0.0000     8          
     5  Na    c      0.0000       0.0000       4.4059 *  0.0000     2          
     6  Na    c      0.0000       4.4059 *     0.0000    0.0000     4          
     7  O     c      0.0000       4.4059 *    -2.2030 *  0.0000     8          
     8  Na    c      2.2030 *     4.4059 *    -2.2030 *  0.0000    16          
     9  Cl    c      2.2030 *     2.2030       4.4059 *  0.0000     8          
    10  Na    c      0.0000       4.4059 *     4.4059 *  0.0000     8          
    11  Na    c      4.4059 *     4.4059       0.0000    0.0000     4          
    12  O     c      0.0000       0.0000       6.6089 *  0.0000     2          
    13  O     c      4.4059 *     4.4059      -2.2030 *  0.0000     8          
    14  Cl    c      2.2030 *     6.6089 *     0.0000    0.0000     8          
    15  Na    c      2.2030 *     0.0000       6.6089 *  0.0000     8          
    16  Na    c      6.6089 *     0.0000      -2.2030 *  0.0000     8          
    17  Na    c      4.4059 *     4.4059       4.4059 *  0.0000     8          
    18  O     c      0.0000       4.4059 *     6.6089 *  0.0000     8          
    19  Cl    c      2.2030 *     6.6089 *     4.4059 *  0.0000    16          
    20  Na    c      2.2030 *     4.4059 *     6.6089 *  0.0000    16          
    21  Na    c      6.6089 *     4.4059 *    -2.2030 *  0.0000    16          
    22  Na    c      0.0000       0.0000       8.8118 *  0.0000     2          
    23  Na    c      0.0000       8.8118 *     0.0000    0.0000     4          
    24  O     c      4.4059 *     4.4059       6.6089 *  0.0000     8          
    25  O     c      0.0000       8.8118 *    -2.2030 *  0.0000     8          
    26  Cl    c      2.2030 *     2.2030       8.8118 *  0.0000     8          
    27  Cl    c      6.6089 *     6.6089       0.0000    0.0000     4          
    28  Na    c      6.6089 *     0.0000       6.6089 *  0.0000     8          
    29  Na    c      2.2030 *     8.8118 *    -2.2030 *  0.0000    16          
    30  Na    c      0.0000       4.4059 *     8.8118 *  0.0000     8          
    31  Na    c      0.0000       8.8118 *     4.4059 *  0.0000     8          
    32  Na    c      4.4059 *     8.8118 *     0.0000    0.0000     8          
    33  O     c      4.4059 *     8.8118 *    -2.2030 *  0.0000    16          
    34  Cl    c      6.6089 *     6.6089       4.4059 *  0.0000     8          
    35  Na    c      6.6089 *     4.4059 *     6.6089 *  0.0000    16          
    36  Na    c      4.4059 *     8.8118 *     4.4059 *  0.0000    16          
    37  Na    c      4.4059 *     4.4059       8.8118 *  0.0000     8          
    38  O     c      0.0000       0.0000      11.0148 *  0.0000     2          
    39  O     c      0.0000       8.8118 *     6.6089 *  0.0000     8          
    40  Cl    c      2.2030 *     6.6089 *     8.8118 *  0.0000    16          
    41  Cl    c      2.2030 *    11.0148 *     0.0000    0.0000     8          
    42  Na    c      2.2030 *     0.0000      11.0148 *  0.0000     8          
    43  Na    c      2.2030 *     8.8118 *     6.6089 *  0.0000    16          
    44  Na    c     11.0148 *     0.0000      -2.2030 *  0.0000     8          
    45  Na    c      6.6089 *     8.8118 *    -2.2030 *  0.0000    16          
    46  O     c      0.0000       4.4059 *    11.0148 *  0.0000     8          
    47  O     c      4.4059 *     8.8118 *     6.6089 *  0.0000    16          
    48  Cl    c      2.2030 *    11.0148 *     4.4059 *  0.0000    16          
    49  Na    c      2.2030 *     4.4059 *    11.0148 *  0.0000    16          
    50  Na    c     11.0148 *     4.4059 *    -2.2030 *  0.0000    16          
    51  Na    c      0.0000       8.8118 *     8.8118 *  0.0000     8          
    52  Na    c      8.8118 *     8.8118       0.0000    0.0000     4          
    53  O     c      4.4059 *     4.4059      11.0148 *  0.0000     8          
    54  O     c      8.8118 *     8.8118      -2.2030 *  0.0000     8          
    55  Cl    c      6.6089 *     6.6089       8.8118 *  0.0000     8          
    56  Cl    c      6.6089 *    11.0148 *     0.0000    0.0000     8          
    57  Na    c      6.6089 *     0.0000      11.0148 *  0.0000     8          
    58  Na    c     11.0148 *     0.0000       6.6089 *  0.0000     8          
    59  Na    c      6.6089 *     8.8118 *     6.6089 *  0.0000    16          
    60  Na    c      0.0000       0.0000      13.2177 *  0.0000     2          
    61  Na    c      0.0000      13.2177 *     0.0000    0.0000     4          
    62  Na    c      4.4059 *     8.8118 *     8.8118 *  0.0000    16          
    63  Na    c      8.8118 *     8.8118       4.4059 *  0.0000     8          
    64  O     c      0.0000      13.2177 *    -2.2030 *  0.0000     8          
    65  Cl    c      6.6089 *    11.0148 *     4.4059 *  0.0000    16          
    66  Na    c      2.2030 *    13.2177 *    -2.2030 *  0.0000    16          
    67  Cl    c      2.2030 *     2.2030      13.2177 *  0.0000     8          
    68  Na    c      6.6089 *     4.4059 *    11.0148 *  0.0000    16          
    69  Na    c     11.0148 *     4.4059 *     6.6089 *  0.0000    16          
    70  Na    c      0.0000       4.4059 *    13.2177 *  0.0000     8          
    71  Na    c      0.0000      13.2177 *     4.4059 *  0.0000     8          
    72  Na    c      4.4059 *    13.2177 *     0.0000    0.0000     8          
    73  O     c      4.4059 *    13.2177 *    -2.2030 *  0.0000    16          
    74  O     c      0.0000       8.8118 *    11.0148 *  0.0000     8          
    75  O     c      8.8118 *     8.8118       6.6089 *  0.0000     8          
    76  Cl    c      2.2030 *    11.0148 *     8.8118 *  0.0000    16          
    77  Na    c      2.2030 *     8.8118 *    11.0148 *  0.0000    16          
    78  Na    c     11.0148 *     8.8118 *    -2.2030 *  0.0000    16          
    79  Na    c      4.4059 *    13.2177 *     4.4059 *  0.0000    16          
    80  Na    c      4.4059 *     4.4059      13.2177 *  0.0000     8          
    81  O     c      4.4059 *     8.8118 *    11.0148 *  0.0000    16          
    82  O     c      0.0000      13.2177 *     6.6089 *  0.0000     8          
    83  Cl    c      2.2030 *     6.6089 *    13.2177 *  0.0000    16          
    84  Na    c      2.2030 *    13.2177 *     6.6089 *  0.0000    16          
    85  Na    c      6.6089 *    13.2177 *    -2.2030 *  0.0000    16          
    86  Na    c      8.8118 *     8.8118       8.8118 *  0.0000     8          
    87  O     c      0.0000       0.0000      15.4207 *  0.0000     2          
    88  O     c      4.4059 *    13.2177 *     6.6089 *  0.0000    16          
    89  Cl    c      2.2030 *    15.4207 *     0.0000    0.0000     8          
    90  Cl    c      6.6089 *    11.0148 *     8.8118 *  0.0000    16          
    91  Cl    c     11.0148 *    11.0148       0.0000    0.0000     4          
    92  Na    c      2.2030 *     0.0000      15.4207 *  0.0000     8          
    93  Na    c     11.0148 *     0.0000      11.0148 *  0.0000     8          
    94  Na    c     15.4207 *     0.0000      -2.2030 *  0.0000     8          
    95  Na    c      6.6089 *     8.8118 *    11.0148 *  0.0000    16          
    96  Na    c     11.0148 *     8.8118 *     6.6089 *  0.0000    16          
    97  Na    c      0.0000       8.8118 *    13.2177 *  0.0000     8          
    98  Na    c      0.0000      13.2177 *     8.8118 *  0.0000     8          
    99  Na    c      8.8118 *    13.2177 *     0.0000    0.0000     8          
   100  O     s      0.0000       0.0000      -2.2030 *  0.0000     2          
   101  Cl    s      2.2030 *     2.2030       0.0000    0.0000     4          
   102  O     s      0.0000       4.4059 *    -2.2030 *  0.0000     8          
   103  Cl    s      2.2030 *     2.2030       4.4059 *  0.0000     8          
   104  O     s      0.0000       0.0000       6.6089 *  0.0000     2          
   105  O     s      4.4059 *     4.4059      -2.2030 *  0.0000     8          
   106  Cl    s      2.2030 *     6.6089 *     0.0000    0.0000     8          
   107  O     s      0.0000       4.4059 *     6.6089 *  0.0000     8          
   108  Cl    s      2.2030 *     6.6089 *     4.4059 *  0.0000    16          
   109  O     s      4.4059 *     4.4059       6.6089 *  0.0000     8          
   110  O     s      0.0000       8.8118 *    -2.2030 *  0.0000     8          
   111  Cl    s      2.2030 *     2.2030       8.8118 *  0.0000     8          
   112  Cl    s      6.6089 *     6.6089       0.0000    0.0000     4          
   113  O     s      4.4059 *     8.8118 *    -2.2030 *  0.0000    16          
   114  Cl    s      6.6089 *     6.6089       4.4059 *  0.0000     8          
   115  O     s      0.0000       0.0000      11.0148 *  0.0000     2          
   116  O     s      0.0000       8.8118 *     6.6089 *  0.0000     8          
   117  Cl    s      2.2030 *     6.6089 *     8.8118 *  0.0000    16          
   118  Cl    s      2.2030 *    11.0148 *     0.0000    0.0000     8          
   119  O     s      0.0000       4.4059 *    11.0148 *  0.0000     8          
   120  O     s      4.4059 *     8.8118 *     6.6089 *  0.0000    16          
   121  Cl    s      2.2030 *    11.0148 *     4.4059 *  0.0000    16          
   122  O     s      4.4059 *     4.4059      11.0148 *  0.0000     8          
   123  O     s      8.8118 *     8.8118      -2.2030 *  0.0000     8          
   124  Cl    s      6.6089 *     6.6089       8.8118 *  0.0000     8          
   125  Cl    s      6.6089 *    11.0148 *     0.0000    0.0000     8          
   126  O     s      0.0000      13.2177 *    -2.2030 *  0.0000     8          
   127  Cl    s      6.6089 *    11.0148 *     4.4059 *  0.0000    16          
   128  Cl    s      2.2030 *     2.2030      13.2177 *  0.0000     8          
   129  O     s      4.4059 *    13.2177 *    -2.2030 *  0.0000    16          
   130  O     s      0.0000       8.8118 *    11.0148 *  0.0000     8          
   131  O     s      8.8118 *     8.8118       6.6089 *  0.0000     8          
   132  Cl    s      2.2030 *    11.0148 *     8.8118 *  0.0000    16          
   133  O     s      4.4059 *     8.8118 *    11.0148 *  0.0000    16          
   134  O     s      0.0000      13.2177 *     6.6089 *  0.0000     8          
   135  Cl    s      2.2030 *     6.6089 *    13.2177 *  0.0000    16          
   136  O     s      0.0000       0.0000      15.4207 *  0.0000     2          
   137  O     s      4.4059 *    13.2177 *     6.6089 *  0.0000    16          
   138  Cl    s      2.2030 *    15.4207 *     0.0000    0.0000     8          
   139  Cl    s      6.6089 *    11.0148 *     8.8118 *  0.0000    16          
   140  Cl    s     11.0148 *    11.0148       0.0000    0.0000     4          
--------------------------------------------------------------------------------


  Constraints on symmetry reduced coordinates :

--------------------------------------------------------------------------------
  Constraint no.      Unconstrained     Constrained    Coefficient    
                         Variable         Variable
--------------------------------------------------------------------------------
           1                 3 x             3 y         1.00000
           2                 9 x             9 y         1.00000
           3                11 x            11 y         1.00000
           4                13 x            13 y         1.00000
           5                17 x            17 y         1.00000
           6                24 x            24 y         1.00000
           7                26 x            26 y         1.00000
           8                27 x            27 y         1.00000
           9                34 x            34 y         1.00000
          10                37 x            37 y         1.00000
          11                52 x            52 y         1.00000
          12                53 x            53 y         1.00000
          13                54 x            54 y         1.00000
          14                55 x            55 y         1.00000
          15                63 x            63 y         1.00000
          16                67 x            67 y         1.00000
          17                75 x            75 y         1.00000
          18                80 x            80 y         1.00000
          19                86 x            86 y         1.00000
          20                91 x            91 y         1.00000
          21               101 x           101 y         1.00000
          22               103 x           103 y         1.00000
          23               105 x           105 y         1.00000
          24               109 x           109 y         1.00000
          25               111 x           111 y         1.00000
          26               112 x           112 y         1.00000
          27               114 x           114 y         1.00000
          28               122 x           122 y         1.00000
          29               123 x           123 y         1.00000
          30               124 x           124 y         1.00000
          31               128 x           128 y         1.00000
          32               131 x           131 y         1.00000
          33               140 x           140 y         1.00000
--------------------------------------------------------------------------------


  Components of defect energy : 

--------------------------------------------------------------------------------
  Region 1 - region 1                   =      5.27030605 eV
  Region 1 - region 2a (unrelaxed)      =    -26.46857350 eV
  Region 1 - 2a (relaxed - correction)  =     -0.67346978 eV
  Region 1 (Total)                      =    -21.87173723 eV
  Region 2a                             =      0.33685172 eV
  Region 2b                             =     -1.31179472 eV
--------------------------------------------------------------------------------
  Total defect energy                   =    -22.84668023 eV
--------------------------------------------------------------------------------

  Largest displacement in region 2 =   0.0180 Angstroms


  Number of variables =      302

  Maximum number of calculations  =        1000
  Maximum Hessian update interval =          10
  Maximum step size               =   1.0000000
  Maximum parameter tolerance     =   0.0000100
  Maximum function  tolerance     =   0.0000100
  Maximum gradient  tolerance     =   0.0010000

  Symmetry adapted optimisation

  Symmetry to be used for second derivatives

  Newton-Raphson optimiser to be used

  BFGS hessian update to be used

  Lower half triangular hessian to be used

  Start of defect optimisation :

  Cycle:      0 Defect Energy: -22.846680  Gnorm:     0.284440  CPU:    1.923
  ** Hessian calculated **
  Cycle:      1 Defect Energy: -30.373616  Gnorm:     0.273664  CPU:    3.974
  Cycle:      2 Defect Energy: -38.096564  Gnorm:     0.140108  CPU:    5.213
  Cycle:      3 Defect Energy: -41.697763  Gnorm:     0.042354  CPU:    6.344
  ** Hessian calculated **
  Cycle:      4 Defect Energy: -42.671416  Gnorm:     0.020966  CPU:    7.579
  Cycle:      5 Defect Energy: -42.884264  Gnorm:     0.003797  CPU:    8.406
  Cycle:      6 Defect Energy: -42.890194  Gnorm:     0.003103  CPU:    8.642
  Cycle:      7 Defect Energy: -42.894684  Gnorm:     0.002077  CPU:    8.878
  Cycle:      8 Defect Energy: -42.896913  Gnorm:     0.001491  CPU:    9.114
  Cycle:      9 Defect Energy: -42.898037  Gnorm:     0.001026  CPU:    9.351
  Cycle:     10 Defect Energy: -42.898618  Gnorm:     0.000728  CPU:    9.587
  Cycle:     11 Defect Energy: -42.898908  Gnorm:     0.000503  CPU:    9.835
  Cycle:     12 Defect Energy: -42.899060  Gnorm:     0.000357  CPU:   10.071
  Cycle:     13 Defect Energy: -42.899137  Gnorm:     0.000247  CPU:   10.307
  ** Hessian calculated **
  Cycle:     14 Defect Energy: -42.899178  Gnorm:     0.000174  CPU:   10.974
  Cycle:     15 Defect Energy: -42.899201  Gnorm:     0.000122  CPU:   11.213
  Cycle:     16 Defect Energy: -42.899213  Gnorm:     0.000086  CPU:   11.452
  Cycle:     17 Defect Energy: -42.899220  Gnorm:     0.000061  CPU:   11.705
  Cycle:     18 Defect Energy: -42.899224  Gnorm:     0.000059  CPU:   11.957


  **** Optimisation achieved ****


  Final defect energy  =      -42.89922689
  Final defect Gnorm   =        0.00003195

  Components of defect energy : 

--------------------------------------------------------------------------------
  Region 1 - region 1                   =    -17.32370408 eV
  Region 1 - region 2a (unrelaxed)      =    -23.99930556 eV
  Region 1 - 2a (relaxed - correction)  =     -0.52856281 eV
  Region 1 (Total)                      =    -41.85157245 eV
  Region 2a                             =      0.26414028 eV
  Region 2b                             =     -1.31179472 eV
--------------------------------------------------------------------------------
  Total defect energy                   =    -42.89922689 eV
--------------------------------------------------------------------------------

  Largest displacement in region 2 =   0.0180 Angstroms

  Final coordinates of region 1 :

--------------------------------------------------------------------------------
   No.  Atomic        x           y           z          Radius      Charge
        Label       (Angs)      (Angs)      (Angs)       (Angs)       (e) 
--------------------------------------------------------------------------------
     1  Al    c     2.202951    2.202951    0.000000    0.000000    3.000000
     2  O     c     2.202951    2.202951   -1.707292    0.000000    0.183000
     3  O     c     2.202951    2.202951    1.707292    0.000000    0.183000
     4  Cl    c     3.933794    3.933794    0.000000    0.000000    1.485000
     5  Cl    c     3.933794    0.472109    0.000000    0.000000    1.485000
     6  Cl    c     0.472109    3.933794    0.000000    0.000000    1.485000
     7  Cl    c     0.472109    0.472109    0.000000    0.000000    1.485000
     8  Na    c     4.489162    2.202951   -2.268107    0.000000    1.000000
     9  Na    c     4.489162    2.202951    2.268107    0.000000    1.000000
    10  Na    c    -0.083260    2.202951   -2.268107    0.000000    1.000000
    11  Na    c    -0.083260    2.202951    2.268107    0.000000    1.000000
    12  Na    c     2.202951    4.489162   -2.268107    0.000000    1.000000
    13  Na    c     2.202951    4.489162    2.268107    0.000000    1.000000
    14  Na    c     2.202951   -0.083260   -2.268107    0.000000    1.000000
    15  Na    c     2.202951   -0.083260    2.268107    0.000000    1.000000
    16  Na    c     2.202951    2.202951    4.409864    0.000000    1.000000
    17  Na    c     2.202951    2.202951   -4.409864    0.000000    1.000000
    18  Na    c     2.202951    6.657931    0.000000    0.000000    1.000000
    19  Na    c     2.202951   -2.252029    0.000000    0.000000    1.000000
    20  Na    c     6.657931    2.202951    0.000000    0.000000    1.000000
    21  Na    c    -2.252029    2.202951    0.000000    0.000000    1.000000
    22  O     c     2.202951    6.654153   -2.198698    0.000000    0.183000
    23  O     c     2.202951    6.654153    2.198698    0.000000    0.183000
    24  O     c     2.202951   -2.248251   -2.198698    0.000000    0.183000
    25  O     c     2.202951   -2.248251    2.198698    0.000000    0.183000
    26  O     c     6.654153    2.202951   -2.198698    0.000000    0.183000
    27  O     c     6.654153    2.202951    2.198698    0.000000    0.183000
    28  O     c    -2.248251    2.202951   -2.198698    0.000000    0.183000
    29  O     c    -2.248251    2.202951    2.198698    0.000000    0.183000
    30  Na    c     4.407580    6.708735   -2.270180    0.000000    1.000000
    31  Na    c     4.407580    6.708735    2.270180    0.000000    1.000000
    32  Na    c     4.407580   -2.302832   -2.270180    0.000000    1.000000
    33  Na    c     4.407580   -2.302832    2.270180    0.000000    1.000000
    34  Na    c    -0.001678    6.708735   -2.270180    0.000000    1.000000
    35  Na    c    -0.001678    6.708735    2.270180    0.000000    1.000000
    36  Na    c    -0.001678   -2.302832   -2.270180    0.000000    1.000000
    37  Na    c    -0.001678   -2.302832    2.270180    0.000000    1.000000
    38  Na    c     6.708735    4.407580   -2.270180    0.000000    1.000000
    39  Na    c     6.708735    4.407580    2.270180    0.000000    1.000000
    40  Na    c     6.708735   -0.001678   -2.270180    0.000000    1.000000
    41  Na    c     6.708735   -0.001678    2.270180    0.000000    1.000000
    42  Na    c    -2.302832    4.407580   -2.270180    0.000000    1.000000
    43  Na    c    -2.302832    4.407580    2.270180    0.000000    1.000000
    44  Na    c    -2.302832   -0.001678   -2.270180    0.000000    1.000000
    45  Na    c    -2.302832   -0.001678    2.270180    0.000000    1.000000
    46  Cl    c     4.295868    4.295868    4.275768    0.000000    1.485000
    47  Cl    c     4.295868    4.295868   -4.275768    0.000000    1.485000
    48  Cl    c     4.295868    0.110035    4.275768    0.000000    1.485000
    49  Cl    c     4.295868    0.110035   -4.275768    0.000000    1.485000
    50  Cl    c     0.110035    4.295868    4.275768    0.000000    1.485000
    51  Cl    c     0.110035    4.295868   -4.275768    0.000000    1.485000
    52  Cl    c     0.110035    0.110035    4.275768    0.000000    1.485000
    53  Cl    c     0.110035    0.110035   -4.275768    0.000000    1.485000
    54  Na    c     2.202951    6.689214    4.418660    0.000000    1.000000
    55  Na    c     2.202951    6.689214   -4.418660    0.000000    1.000000
    56  Na    c     2.202951   -2.283312    4.418660    0.000000    1.000000
    57  Na    c     2.202951   -2.283312   -4.418660    0.000000    1.000000
    58  Na    c     6.689214    2.202951    4.418660    0.000000    1.000000
    59  Na    c     6.689214    2.202951   -4.418660    0.000000    1.000000
    60  Na    c    -2.283312    2.202951    4.418660    0.000000    1.000000
    61  Na    c    -2.283312    2.202951   -4.418660    0.000000    1.000000
    62  Na    c     6.695957    6.695957    0.000000    0.000000    1.000000
    63  Na    c     6.695957   -2.290055    0.000000    0.000000    1.000000
    64  Na    c    -2.290055    6.695957    0.000000    0.000000    1.000000
    65  Na    c    -2.290055   -2.290055    0.000000    0.000000    1.000000
    66  O     c     2.202951    2.202951    6.586653    0.000000    0.183000
    67  O     c     2.202951    2.202951   -6.586653    0.000000    0.183000
    68  O     c     6.592732    6.592732   -2.191922    0.000000    0.183000
    69  O     c     6.592732    6.592732    2.191922    0.000000    0.183000
    70  O     c     6.592732   -2.186830   -2.191922    0.000000    0.183000
    71  O     c     6.592732   -2.186830    2.191922    0.000000    0.183000
    72  O     c    -2.186830    6.592732   -2.191922    0.000000    0.183000
    73  O     c    -2.186830    6.592732    2.191922    0.000000    0.183000
    74  O     c    -2.186830   -2.186830   -2.191922    0.000000    0.183000
    75  O     c    -2.186830   -2.186830    2.191922    0.000000    0.183000
    76  Cl    c     4.413065    8.759657    0.000000    0.000000    1.485000
    77  Cl    c     4.413065   -4.353754    0.000000    0.000000    1.485000
    78  Cl    c     8.759657    4.413065    0.000000    0.000000    1.485000
    79  Cl    c     8.759657   -0.007163    0.000000    0.000000    1.485000
    80  Cl    c    -0.007163    8.759657    0.000000    0.000000    1.485000
    81  Cl    c    -0.007163   -4.353754    0.000000    0.000000    1.485000
    82  Cl    c    -4.353754    4.413065    0.000000    0.000000    1.485000
    83  Cl    c    -4.353754   -0.007163    0.000000    0.000000    1.485000
    84  Na    c     4.409515    2.202951    6.613694    0.000000    1.000000
    85  Na    c     4.409515    2.202951   -6.613694    0.000000    1.000000
    86  Na    c    -0.003612    2.202951    6.613694    0.000000    1.000000
    87  Na    c    -0.003612    2.202951   -6.613694    0.000000    1.000000
    88  Na    c     2.202951    4.409515    6.613694    0.000000    1.000000
    89  Na    c     2.202951    4.409515   -6.613694    0.000000    1.000000
    90  Na    c     2.202951   -0.003612    6.613694    0.000000    1.000000
    91  Na    c     2.202951   -0.003612   -6.613694    0.000000    1.000000
    92  Na    c     8.853861    2.202951   -2.171326    0.000000    1.000000
    93  Na    c     8.853861    2.202951    2.171326    0.000000    1.000000
    94  Na    c    -4.447958    2.202951   -2.171326    0.000000    1.000000
    95  Na    c    -4.447958    2.202951    2.171326    0.000000    1.000000
    96  Na    c     2.202951    8.853861   -2.171326    0.000000    1.000000
    97  Na    c     2.202951    8.853861    2.171326    0.000000    1.000000
    98  Na    c     2.202951   -4.447958   -2.171326    0.000000    1.000000
    99  Na    c     2.202951   -4.447958    2.171326    0.000000    1.000000
   100  Na    c     6.649467    6.649467    4.411402    0.000000    1.000000
   101  Na    c     6.649467    6.649467   -4.411402    0.000000    1.000000
   102  Na    c     6.649467   -2.243565    4.411402    0.000000    1.000000
   103  Na    c     6.649467   -2.243565   -4.411402    0.000000    1.000000
   104  Na    c    -2.243565    6.649467    4.411402    0.000000    1.000000
   105  Na    c    -2.243565    6.649467   -4.411402    0.000000    1.000000
   106  Na    c    -2.243565   -2.243565    4.411402    0.000000    1.000000
   107  Na    c    -2.243565   -2.243565   -4.411402    0.000000    1.000000
   108  O     c     2.202951    6.610747    6.604458    0.000000    0.183000
   109  O     c     2.202951    6.610747   -6.604458    0.000000    0.183000
   110  O     c     2.202951   -2.204844    6.604458    0.000000    0.183000
   111  O     c     2.202951   -2.204844   -6.604458    0.000000    0.183000
   112  O     c     6.610747    2.202951    6.604458    0.000000    0.183000
   113  O     c     6.610747    2.202951   -6.604458    0.000000    0.183000
   114  O     c    -2.204844    2.202951    6.604458    0.000000    0.183000
   115  O     c    -2.204844    2.202951   -6.604458    0.000000    0.183000
   116  Cl    c     4.408747    8.779677    4.387865    0.000000    1.485000
   117  Cl    c     4.408747    8.779677   -4.387865    0.000000    1.485000
   118  Cl    c     4.408747   -4.373775    4.387865    0.000000    1.485000
   119  Cl    c     4.408747   -4.373775   -4.387865    0.000000    1.485000
   120  Cl    c     8.779677    4.408747    4.387865    0.000000    1.485000
   121  Cl    c     8.779677    4.408747   -4.387865    0.000000    1.485000
   122  Cl    c     8.779677   -0.002845    4.387865    0.000000    1.485000
   123  Cl    c     8.779677   -0.002845   -4.387865    0.000000    1.485000
   124  Cl    c    -0.002845    8.779677    4.387865    0.000000    1.485000
   125  Cl    c    -0.002845    8.779677   -4.387865    0.000000    1.485000
   126  Cl    c    -0.002845   -4.373775    4.387865    0.000000    1.485000
   127  Cl    c    -0.002845   -4.373775   -4.387865    0.000000    1.485000
   128  Cl    c    -4.373775    4.408747    4.387865    0.000000    1.485000
   129  Cl    c    -4.373775    4.408747   -4.387865    0.000000    1.485000
   130  Cl    c    -4.373775   -0.002845    4.387865    0.000000    1.485000
   131  Cl    c    -4.373775   -0.002845   -4.387865    0.000000    1.485000
   132  Na    c     4.405476    6.636168    6.650359    0.000000    1.000000
   133  Na    c     4.405476    6.636168   -6.650359    0.000000    1.000000
   134  Na    c     4.405476   -2.230266    6.650359    0.000000    1.000000
   135  Na    c     4.405476   -2.230266   -6.650359    0.000000    1.000000
   136  Na    c     0.000427    6.636168    6.650359    0.000000    1.000000
   137  Na    c     0.000427    6.636168   -6.650359    0.000000    1.000000
   138  Na    c     0.000427   -2.230266    6.650359    0.000000    1.000000
   139  Na    c     0.000427   -2.230266   -6.650359    0.000000    1.000000
   140  Na    c     6.636168    4.405476    6.650359    0.000000    1.000000
   141  Na    c     6.636168    4.405476   -6.650359    0.000000    1.000000
   142  Na    c     6.636168    0.000427    6.650359    0.000000    1.000000
   143  Na    c     6.636168    0.000427   -6.650359    0.000000    1.000000
   144  Na    c    -2.230266    4.405476    6.650359    0.000000    1.000000
   145  Na    c    -2.230266    4.405476   -6.650359    0.000000    1.000000
   146  Na    c    -2.230266    0.000427    6.650359    0.000000    1.000000
   147  Na    c    -2.230266    0.000427   -6.650359    0.000000    1.000000
   148  Na    c     8.824942    6.625361   -2.209013    0.000000    1.000000
   149  Na    c     8.824942    6.625361    2.209013    0.000000    1.000000
   150  Na    c     8.824942   -2.219459   -2.209013    0.000000    1.000000
   151  Na    c     8.824942   -2.219459    2.209013    0.000000    1.000000
   152  Na    c    -4.419040    6.625361   -2.209013    0.000000    1.000000
   153  Na    c    -4.419040    6.625361    2.209013    0.000000    1.000000
   154  Na    c    -4.419040   -2.219459   -2.209013    0.000000    1.000000
   155  Na    c    -4.419040   -2.219459    2.209013    0.000000    1.000000
   156  Na    c     6.625361    8.824942   -2.209013    0.000000    1.000000
   157  Na    c     6.625361    8.824942    2.209013    0.000000    1.000000
   158  Na    c     6.625361   -4.419040   -2.209013    0.000000    1.000000
   159  Na    c     6.625361   -4.419040    2.209013    0.000000    1.000000
   160  Na    c    -2.219459    8.824942   -2.209013    0.000000    1.000000
   161  Na    c    -2.219459    8.824942    2.209013    0.000000    1.000000
   162  Na    c    -2.219459   -4.419040   -2.209013    0.000000    1.000000
   163  Na    c    -2.219459   -4.419040    2.209013    0.000000    1.000000
   164  Na    c     2.202951    2.202951    8.806090    0.000000    1.000000
   165  Na    c     2.202951    2.202951   -8.806090    0.000000    1.000000
   166  Na    c     2.202951   11.101651    0.000000    0.000000    1.000000
   167  Na    c     2.202951   -6.695748    0.000000    0.000000    1.000000
   168  Na    c    11.101651    2.202951    0.000000    0.000000    1.000000
   169  Na    c    -6.695748    2.202951    0.000000    0.000000    1.000000
   170  O     c     6.600223    6.600223    6.600392    0.000000    0.183000
   171  O     c     6.600223    6.600223   -6.600392    0.000000    0.183000
   172  O     c     6.600223   -2.194321    6.600392    0.000000    0.183000
   173  O     c     6.600223   -2.194321   -6.600392    0.000000    0.183000
   174  O     c    -2.194321    6.600223    6.600392    0.000000    0.183000
   175  O     c    -2.194321    6.600223   -6.600392    0.000000    0.183000
   176  O     c    -2.194321   -2.194321    6.600392    0.000000    0.183000
   177  O     c    -2.194321   -2.194321   -6.600392    0.000000    0.183000
   178  O     c     2.202951   11.032042   -2.199711    0.000000    0.183000
   179  O     c     2.202951   11.032042    2.199711    0.000000    0.183000
   180  O     c     2.202951   -6.626139   -2.199711    0.000000    0.183000
   181  O     c     2.202951   -6.626139    2.199711    0.000000    0.183000
   182  O     c    11.032042    2.202951   -2.199711    0.000000    0.183000
   183  O     c    11.032042    2.202951    2.199711    0.000000    0.183000
   184  O     c    -6.626139    2.202951   -2.199711    0.000000    0.183000
   185  O     c    -6.626139    2.202951    2.199711    0.000000    0.183000
   186  Cl    c     4.402079    4.402079    8.772205    0.000000    1.485000
   187  Cl    c     4.402079    4.402079   -8.772205    0.000000    1.485000
   188  Cl    c     4.402079    0.003824    8.772205    0.000000    1.485000
   189  Cl    c     4.402079    0.003824   -8.772205    0.000000    1.485000
   190  Cl    c     0.003824    4.402079    8.772205    0.000000    1.485000
   191  Cl    c     0.003824    4.402079   -8.772205    0.000000    1.485000
   192  Cl    c     0.003824    0.003824    8.772205    0.000000    1.485000
   193  Cl    c     0.003824    0.003824   -8.772205    0.000000    1.485000
   194  Cl    c     8.780941    8.780941    0.000000    0.000000    1.485000
   195  Cl    c     8.780941   -4.375038    0.000000    0.000000    1.485000
   196  Cl    c    -4.375038    8.780941    0.000000    0.000000    1.485000
   197  Cl    c    -4.375038   -4.375038    0.000000    0.000000    1.485000
   198  Na    c     8.822524    2.202951    6.655314    0.000000    1.000000
   199  Na    c     8.822524    2.202951   -6.655314    0.000000    1.000000
   200  Na    c    -4.416622    2.202951    6.655314    0.000000    1.000000
   201  Na    c    -4.416622    2.202951   -6.655314    0.000000    1.000000
   202  Na    c     2.202951    8.822524    6.655314    0.000000    1.000000
   203  Na    c     2.202951    8.822524   -6.655314    0.000000    1.000000
   204  Na    c     2.202951   -4.416622    6.655314    0.000000    1.000000
   205  Na    c     2.202951   -4.416622   -6.655314    0.000000    1.000000
   206  Na    c     4.409832   11.054105   -2.208949    0.000000    1.000000
   207  Na    c     4.409832   11.054105    2.208949    0.000000    1.000000
   208  Na    c     4.409832   -6.648203   -2.208949    0.000000    1.000000
   209  Na    c     4.409832   -6.648203    2.208949    0.000000    1.000000
   210  Na    c    -0.003930   11.054105   -2.208949    0.000000    1.000000
   211  Na    c    -0.003930   11.054105    2.208949    0.000000    1.000000
   212  Na    c    -0.003930   -6.648203   -2.208949    0.000000    1.000000
   213  Na    c    -0.003930   -6.648203    2.208949    0.000000    1.000000
   214  Na    c    11.054105    4.409832   -2.208949    0.000000    1.000000
   215  Na    c    11.054105    4.409832    2.208949    0.000000    1.000000
   216  Na    c    11.054105   -0.003930   -2.208949    0.000000    1.000000
   217  Na    c    11.054105   -0.003930    2.208949    0.000000    1.000000
   218  Na    c    -6.648203    4.409832   -2.208949    0.000000    1.000000
   219  Na    c    -6.648203    4.409832    2.208949    0.000000    1.000000
   220  Na    c    -6.648203   -0.003930   -2.208949    0.000000    1.000000
   221  Na    c    -6.648203   -0.003930    2.208949    0.000000    1.000000
   222  Na    c     2.202951    6.600480    8.820123    0.000000    1.000000
   223  Na    c     2.202951    6.600480   -8.820123    0.000000    1.000000
   224  Na    c     2.202951   -2.194578    8.820123    0.000000    1.000000
   225  Na    c     2.202951   -2.194578   -8.820123    0.000000    1.000000
   226  Na    c     6.600480    2.202951    8.820123    0.000000    1.000000
   227  Na    c     6.600480    2.202951   -8.820123    0.000000    1.000000
   228  Na    c    -2.194578    2.202951    8.820123    0.000000    1.000000
   229  Na    c    -2.194578    2.202951   -8.820123    0.000000    1.000000
   230  Na    c     2.202951   11.030176    4.409998    0.000000    1.000000
   231  Na    c     2.202951   11.030176   -4.409998    0.000000    1.000000
   232  Na    c     2.202951   -6.624273    4.409998    0.000000    1.000000
   233  Na    c     2.202951   -6.624273   -4.409998    0.000000    1.000000
   234  Na    c    11.030176    2.202951    4.409998    0.000000    1.000000
   235  Na    c    11.030176    2.202951   -4.409998    0.000000    1.000000
   236  Na    c    -6.624273    2.202951    4.409998    0.000000    1.000000
   237  Na    c    -6.624273    2.202951   -4.409998    0.000000    1.000000
   238  Na    c     6.619098   11.041593    0.000000    0.000000    1.000000
   239  Na    c     6.619098   -6.635690    0.000000    0.000000    1.000000
   240  Na    c    11.041593    6.619098    0.000000    0.000000    1.000000
   241  Na    c    11.041593   -2.213196    0.000000    0.000000    1.000000
   242  Na    c    -2.213196   11.041593    0.000000    0.000000    1.000000
   243  Na    c    -2.213196   -6.635690    0.000000    0.000000    1.000000
   244  Na    c    -6.635690    6.619098    0.000000    0.000000    1.000000
   245  Na    c    -6.635690   -2.213196    0.000000    0.000000    1.000000
   246  O     c     6.609127   11.016113   -2.202572    0.000000    0.183000
   247  O     c     6.609127   11.016113    2.202572    0.000000    0.183000
   248  O     c     6.609127   -6.610211   -2.202572    0.000000    0.183000
   249  O     c     6.609127   -6.610211    2.202572    0.000000    0.183000
   250  O     c    11.016113    6.609127   -2.202572    0.000000    0.183000
   251  O     c    11.016113    6.609127    2.202572    0.000000    0.183000
   252  O     c    11.016113   -2.203225   -2.202572    0.000000    0.183000
   253  O     c    11.016113   -2.203225    2.202572    0.000000    0.183000
   254  O     c    -2.203225   11.016113   -2.202572    0.000000    0.183000
   255  O     c    -2.203225   11.016113    2.202572    0.000000    0.183000
   256  O     c    -2.203225   -6.610211   -2.202572    0.000000    0.183000
   257  O     c    -2.203225   -6.610211    2.202572    0.000000    0.183000
   258  O     c    -6.610211    6.609127   -2.202572    0.000000    0.183000
   259  O     c    -6.610211    6.609127    2.202572    0.000000    0.183000
   260  O     c    -6.610211   -2.203225   -2.202572    0.000000    0.183000
   261  O     c    -6.610211   -2.203225    2.202572    0.000000    0.183000
   262  Cl    c     8.783151    8.783151    4.382586    0.000000    1.485000
   263  Cl    c     8.783151    8.783151   -4.382586    0.000000    1.485000
   264  Cl    c     8.783151   -4.377248    4.382586    0.000000    1.485000
   265  Cl    c     8.783151   -4.377248   -4.382586    0.000000    1.485000
   266  Cl    c    -4.377248    8.783151    4.382586    0.000000    1.485000
   267  Cl    c    -4.377248    8.783151   -4.382586    0.000000    1.485000
   268  Cl    c    -4.377248   -4.377248    4.382586    0.000000    1.485000
   269  Cl    c    -4.377248   -4.377248   -4.382586    0.000000    1.485000
   270  Na    c     8.815246    6.617224    6.626275    0.000000    1.000000
   271  Na    c     8.815246    6.617224   -6.626275    0.000000    1.000000
   272  Na    c     8.815246   -2.211322    6.626275    0.000000    1.000000
   273  Na    c     8.815246   -2.211322   -6.626275    0.000000    1.000000
   274  Na    c    -4.409344    6.617224    6.626275    0.000000    1.000000
   275  Na    c    -4.409344    6.617224   -6.626275    0.000000    1.000000
   276  Na    c    -4.409344   -2.211322    6.626275    0.000000    1.000000
   277  Na    c    -4.409344   -2.211322   -6.626275    0.000000    1.000000
   278  Na    c     6.617224    8.815246    6.626275    0.000000    1.000000
   279  Na    c     6.617224    8.815246   -6.626275    0.000000    1.000000
   280  Na    c     6.617224   -4.409344    6.626275    0.000000    1.000000
   281  Na    c     6.617224   -4.409344   -6.626275    0.000000    1.000000
   282  Na    c    -2.211322    8.815246    6.626275    0.000000    1.000000
   283  Na    c    -2.211322    8.815246   -6.626275    0.000000    1.000000
   284  Na    c    -2.211322   -4.409344    6.626275    0.000000    1.000000
   285  Na    c    -2.211322   -4.409344   -6.626275    0.000000    1.000000
   286  Na    c     6.615952   11.027670    4.408468    0.000000    1.000000
   287  Na    c     6.615952   11.027670   -4.408468    0.000000    1.000000
   288  Na    c     6.615952   -6.621768    4.408468    0.000000    1.000000
   289  Na    c     6.615952   -6.621768   -4.408468    0.000000    1.000000
   290  Na    c    11.027670    6.615952    4.408468    0.000000    1.000000
   291  Na    c    11.027670    6.615952   -4.408468    0.000000    1.000000
   292  Na    c    11.027670   -2.210050    4.408468    0.000000    1.000000
   293  Na    c    11.027670   -2.210050   -4.408468    0.000000    1.000000
   294  Na    c    -2.210050   11.027670    4.408468    0.000000    1.000000
   295  Na    c    -2.210050   11.027670   -4.408468    0.000000    1.000000
   296  Na    c    -2.210050   -6.621768    4.408468    0.000000    1.000000
   297  Na    c    -2.210050   -6.621768   -4.408468    0.000000    1.000000
   298  Na    c    -6.621768    6.615952    4.408468    0.000000    1.000000
   299  Na    c    -6.621768    6.615952   -4.408468    0.000000    1.000000
   300  Na    c    -6.621768   -2.210050    4.408468    0.000000    1.000000
   301  Na    c    -6.621768   -2.210050   -4.408468    0.000000    1.000000
   302  Na    c     6.614197    6.614197    8.816933    0.000000    1.000000
   303  Na    c     6.614197    6.614197   -8.816933    0.000000    1.000000
   304  Na    c     6.614197   -2.208295    8.816933    0.000000    1.000000
   305  Na    c     6.614197   -2.208295   -8.816933    0.000000    1.000000
   306  Na    c    -2.208295    6.614197    8.816933    0.000000    1.000000
   307  Na    c    -2.208295    6.614197   -8.816933    0.000000    1.000000
   308  Na    c    -2.208295   -2.208295    8.816933    0.000000    1.000000
   309  Na    c    -2.208295   -2.208295   -8.816933    0.000000    1.000000
   310  O     c     2.202951    2.202951   11.008735    0.000000    0.183000
   311  O     c     2.202951    2.202951  -11.008735    0.000000    0.183000
   312  O     c     2.202951   11.014519    6.609466    0.000000    0.183000
   313  O     c     2.202951   11.014519   -6.609466    0.000000    0.183000
   314  O     c     2.202951   -6.608617    6.609466    0.000000    0.183000
   315  O     c     2.202951   -6.608617   -6.609466    0.000000    0.183000
   316  O     c    11.014519    2.202951    6.609466    0.000000    0.183000
   317  O     c    11.014519    2.202951   -6.609466    0.000000    0.183000
   318  O     c    -6.608617    2.202951    6.609466    0.000000    0.183000
   319  O     c    -6.608617    2.202951   -6.609466    0.000000    0.183000
   320  Cl    c     4.401359    8.795050    8.789063    0.000000    1.485000
   321  Cl    c     4.401359    8.795050   -8.789063    0.000000    1.485000
   322  Cl    c     4.401359   -4.389147    8.789063    0.000000    1.485000
   323  Cl    c     4.401359   -4.389147   -8.789063    0.000000    1.485000
   324  Cl    c     8.795050    4.401359    8.789063    0.000000    1.485000
   325  Cl    c     8.795050    4.401359   -8.789063    0.000000    1.485000
   326  Cl    c     8.795050    0.004543    8.789063    0.000000    1.485000
   327  Cl    c     8.795050    0.004543   -8.789063    0.000000    1.485000
   328  Cl    c     0.004543    8.795050    8.789063    0.000000    1.485000
   329  Cl    c     0.004543    8.795050   -8.789063    0.000000    1.485000
   330  Cl    c     0.004543   -4.389147    8.789063    0.000000    1.485000
   331  Cl    c     0.004543   -4.389147   -8.789063    0.000000    1.485000
   332  Cl    c    -4.389147    4.401359    8.789063    0.000000    1.485000
   333  Cl    c    -4.389147    4.401359   -8.789063    0.000000    1.485000
   334  Cl    c    -4.389147    0.004543    8.789063    0.000000    1.485000
   335  Cl    c    -4.389147    0.004543   -8.789063    0.000000    1.485000
   336  Cl    c     4.403780   13.200946    0.000000    0.000000    1.485000
   337  Cl    c     4.403780   -8.795044    0.000000    0.000000    1.485000
   338  Cl    c    13.200946    4.403780    0.000000    0.000000    1.485000
   339  Cl    c    13.200946    0.002123    0.000000    0.000000    1.485000
   340  Cl    c     0.002123   13.200946    0.000000    0.000000    1.485000
   341  Cl    c     0.002123   -8.795044    0.000000    0.000000    1.485000
   342  Cl    c    -8.795044    4.403780    0.000000    0.000000    1.485000
   343  Cl    c    -8.795044    0.002123    0.000000    0.000000    1.485000
   344  Na    c     4.404459    2.202951   11.031101    0.000000    1.000000
   345  Na    c     4.404459    2.202951  -11.031101    0.000000    1.000000
   346  Na    c     0.001443    2.202951   11.031101    0.000000    1.000000
   347  Na    c     0.001443    2.202951  -11.031101    0.000000    1.000000
   348  Na    c     2.202951    4.404459   11.031101    0.000000    1.000000
   349  Na    c     2.202951    4.404459  -11.031101    0.000000    1.000000
   350  Na    c     2.202951    0.001443   11.031101    0.000000    1.000000
   351  Na    c     2.202951    0.001443  -11.031101    0.000000    1.000000
   352  Na    c     4.407630   11.031163    6.622938    0.000000    1.000000
   353  Na    c     4.407630   11.031163   -6.622938    0.000000    1.000000
   354  Na    c     4.407630   -6.625260    6.622938    0.000000    1.000000
   355  Na    c     4.407630   -6.625260   -6.622938    0.000000    1.000000
   356  Na    c    -0.001728   11.031163    6.622938    0.000000    1.000000
   357  Na    c    -0.001728   11.031163   -6.622938    0.000000    1.000000
   358  Na    c    -0.001728   -6.625260    6.622938    0.000000    1.000000
   359  Na    c    -0.001728   -6.625260   -6.622938    0.000000    1.000000
   360  Na    c    11.031163    4.407630    6.622938    0.000000    1.000000
   361  Na    c    11.031163    4.407630   -6.622938    0.000000    1.000000
   362  Na    c    11.031163   -0.001728    6.622938    0.000000    1.000000
   363  Na    c    11.031163   -0.001728   -6.622938    0.000000    1.000000
   364  Na    c    -6.625260    4.407630    6.622938    0.000000    1.000000
   365  Na    c    -6.625260    4.407630   -6.622938    0.000000    1.000000
   366  Na    c    -6.625260   -0.001728    6.622938    0.000000    1.000000
   367  Na    c    -6.625260   -0.001728   -6.622938    0.000000    1.000000
   368  Na    c    13.236744    2.202951   -2.228886    0.000000    1.000000
   369  Na    c    13.236744    2.202951    2.228886    0.000000    1.000000
   370  Na    c    -8.830842    2.202951   -2.228886    0.000000    1.000000
   371  Na    c    -8.830842    2.202951    2.228886    0.000000    1.000000
   372  Na    c     2.202951   13.236744   -2.228886    0.000000    1.000000
   373  Na    c     2.202951   13.236744    2.228886    0.000000    1.000000
   374  Na    c     2.202951   -8.830842   -2.228886    0.000000    1.000000
   375  Na    c     2.202951   -8.830842    2.228886    0.000000    1.000000
   376  Na    c     8.816599   11.034401   -2.210636    0.000000    1.000000
   377  Na    c     8.816599   11.034401    2.210636    0.000000    1.000000
   378  Na    c     8.816599   -6.628498   -2.210636    0.000000    1.000000
   379  Na    c     8.816599   -6.628498    2.210636    0.000000    1.000000
   380  Na    c    -4.410696   11.034401   -2.210636    0.000000    1.000000
   381  Na    c    -4.410696   11.034401    2.210636    0.000000    1.000000
   382  Na    c    -4.410696   -6.628498   -2.210636    0.000000    1.000000
   383  Na    c    -4.410696   -6.628498    2.210636    0.000000    1.000000
   384  Na    c    11.034401    8.816599   -2.210636    0.000000    1.000000
   385  Na    c    11.034401    8.816599    2.210636    0.000000    1.000000
   386  Na    c    11.034401   -4.410696   -2.210636    0.000000    1.000000
   387  Na    c    11.034401   -4.410696    2.210636    0.000000    1.000000
   388  Na    c    -6.628498    8.816599   -2.210636    0.000000    1.000000
   389  Na    c    -6.628498    8.816599    2.210636    0.000000    1.000000
   390  Na    c    -6.628498   -4.410696   -2.210636    0.000000    1.000000
   391  Na    c    -6.628498   -4.410696    2.210636    0.000000    1.000000
   392  O     c     2.202951    6.604861   11.013367    0.000000    0.183000
   393  O     c     2.202951    6.604861  -11.013367    0.000000    0.183000
   394  O     c     2.202951   -2.198959   11.013367    0.000000    0.183000
   395  O     c     2.202951   -2.198959  -11.013367    0.000000    0.183000
   396  O     c     6.604861    2.202951   11.013367    0.000000    0.183000
   397  O     c     6.604861    2.202951  -11.013367    0.000000    0.183000
   398  O     c    -2.198959    2.202951   11.013367    0.000000    0.183000
   399  O     c    -2.198959    2.202951  -11.013367    0.000000    0.183000
   400  O     c     6.608454   11.011487    6.605947    0.000000    0.183000
   401  O     c     6.608454   11.011487   -6.605947    0.000000    0.183000
   402  O     c     6.608454   -6.605585    6.605947    0.000000    0.183000
   403  O     c     6.608454   -6.605585   -6.605947    0.000000    0.183000
   404  O     c    11.011487    6.608454    6.605947    0.000000    0.183000
   405  O     c    11.011487    6.608454   -6.605947    0.000000    0.183000
   406  O     c    11.011487   -2.202552    6.605947    0.000000    0.183000
   407  O     c    11.011487   -2.202552   -6.605947    0.000000    0.183000
   408  O     c    -2.202552   11.011487    6.605947    0.000000    0.183000
   409  O     c    -2.202552   11.011487   -6.605947    0.000000    0.183000
   410  O     c    -2.202552   -6.605585    6.605947    0.000000    0.183000
   411  O     c    -2.202552   -6.605585   -6.605947    0.000000    0.183000
   412  O     c    -6.605585    6.608454    6.605947    0.000000    0.183000
   413  O     c    -6.605585    6.608454   -6.605947    0.000000    0.183000
   414  O     c    -6.605585   -2.202552    6.605947    0.000000    0.183000
   415  O     c    -6.605585   -2.202552   -6.605947    0.000000    0.183000
   416  Cl    c     4.401112   13.199682    4.398305    0.000000    1.485000
   417  Cl    c     4.401112   13.199682   -4.398305    0.000000    1.485000
   418  Cl    c     4.401112   -8.793780    4.398305    0.000000    1.485000
   419  Cl    c     4.401112   -8.793780   -4.398305    0.000000    1.485000
   420  Cl    c    13.199682    4.401112    4.398305    0.000000    1.485000
   421  Cl    c    13.199682    4.401112   -4.398305    0.000000    1.485000
   422  Cl    c    13.199682    0.004790    4.398305    0.000000    1.485000
   423  Cl    c    13.199682    0.004790   -4.398305    0.000000    1.485000
   424  Cl    c     0.004790   13.199682    4.398305    0.000000    1.485000
   425  Cl    c     0.004790   13.199682   -4.398305    0.000000    1.485000
   426  Cl    c     0.004790   -8.793780    4.398305    0.000000    1.485000
   427  Cl    c     0.004790   -8.793780   -4.398305    0.000000    1.485000
   428  Cl    c    -8.793780    4.401112    4.398305    0.000000    1.485000
   429  Cl    c    -8.793780    4.401112   -4.398305    0.000000    1.485000
   430  Cl    c    -8.793780    0.004790    4.398305    0.000000    1.485000
   431  Cl    c    -8.793780    0.004790   -4.398305    0.000000    1.485000
   432  Na    c     4.407008    6.615459   11.032982    0.000000    1.000000
   433  Na    c     4.407008    6.615459  -11.032982    0.000000    1.000000
   434  Na    c     4.407008   -2.209557   11.032982    0.000000    1.000000
   435  Na    c     4.407008   -2.209557  -11.032982    0.000000    1.000000
   436  Na    c    -0.001106    6.615459   11.032982    0.000000    1.000000
   437  Na    c    -0.001106    6.615459  -11.032982    0.000000    1.000000
   438  Na    c    -0.001106   -2.209557   11.032982    0.000000    1.000000
[...]
     60 x          2.202951      2.202951     0.000000    Cartesian    0.00
     60 y          2.202951      2.202951     0.000000    Cartesian    0.00
     60 z         13.217707     13.223819     0.006112    Cartesian    0.05
     61 x          2.202951      2.202951     0.000000    Cartesian    0.00
     61 y         15.420658     15.440334     0.019676    Cartesian    0.13
     61 z          0.000000      0.000000     0.000000    Cartesian    0.00
     62 x          6.608853      6.620671     0.011817    Cartesian    0.18
     62 y         11.014756     11.024131     0.009375    Cartesian    0.09
     62 z          8.811805      8.813405     0.001600    Cartesian    0.02
     63 x         11.014756     11.032487     0.017731    Cartesian    0.16
     63 y         11.014756     11.032487     0.017731    Cartesian    0.16
     63 z          4.405902      4.407028     0.001126    Cartesian    0.03
     64 x          2.202951      2.202951     0.000000    Cartesian    0.00
     64 y         15.420658     15.426837     0.006179    Cartesian    0.04
     64 z         -2.202951     -2.206949    -0.003998    Cartesian    0.18
     65 x          8.811805      8.805647    -0.006158    Cartesian   -0.07
     65 y         13.217707     13.202071    -0.015636    Cartesian   -0.12
     65 z          4.405902      4.398683    -0.007219    Cartesian   -0.16
     66 x          4.405902      4.407244     0.001342    Cartesian    0.03
     66 y         15.420658     15.435793     0.015135    Cartesian    0.10
     66 z         -2.202951     -2.198856     0.004095    Cartesian   -0.19
     67 x          4.405902      4.404305    -0.001598    Cartesian   -0.04
     67 y          4.405902      4.404305    -0.001598    Cartesian   -0.04
     67 z         13.217707     13.200313    -0.017394    Cartesian   -0.13
     68 x          8.811805      8.813524     0.001720    Cartesian    0.02
     68 y          6.608853      6.612720     0.003866    Cartesian    0.06
     68 z         11.014756     11.020441     0.005686    Cartesian    0.05
     69 x         13.217707     13.218594     0.000888    Cartesian    0.01
     69 y          6.608853      6.610405     0.001552    Cartesian    0.02
     69 z          6.608853      6.611095     0.002242    Cartesian    0.03
     70 x          2.202951      2.202951     0.000000    Cartesian    0.00
     70 y          6.608853      6.607467    -0.001386    Cartesian   -0.02
     70 z         13.217707     13.221610     0.003903    Cartesian    0.03
     71 x          2.202951      2.202951     0.000000    Cartesian    0.00
     71 y         15.420658     15.441284     0.020626    Cartesian    0.13
     71 z          4.405902      4.409456     0.003554    Cartesian    0.08
     72 x          6.608853      6.613893     0.005039    Cartesian    0.08
     72 y         15.420658     15.428707     0.008048    Cartesian    0.05
     72 z          0.000000      0.000000     0.000000    Cartesian    0.00
     73 x          6.608853      6.610317     0.001464    Cartesian    0.02
     73 y         15.420658     15.420287    -0.000372    Cartesian   -0.00
     73 z         -2.202951     -2.203199    -0.000248    Cartesian    0.01
     74 x          2.202951      2.202951     0.000000    Cartesian    0.00
     74 y         11.014756     11.016886     0.002130    Cartesian    0.02
     74 z         11.014756     11.015806     0.001050    Cartesian    0.01
     75 x         11.014756     11.015950     0.001194    Cartesian    0.01
     75 y         11.014756     11.015950     0.001194    Cartesian    0.01
     75 z          6.608853      6.607040    -0.001814    Cartesian   -0.03
     76 x          4.405902      4.404486    -0.001416    Cartesian   -0.03
     76 y         13.217707     13.203269    -0.014438    Cartesian   -0.11
     76 z          8.811805      8.802635    -0.009170    Cartesian   -0.10
     77 x          4.405902      4.406404     0.000502    Cartesian    0.01
     77 y         11.014756     11.020583     0.005827    Cartesian    0.05
     77 z         11.014756     11.024180     0.009424    Cartesian    0.09
     78 x         13.217707     13.223039     0.005332    Cartesian    0.04
     78 y         11.014756     11.021486     0.006730    Cartesian    0.06
     78 z         -2.202951     -2.196400     0.006551    Cartesian   -0.30
     79 x          6.608853      6.610125     0.001271    Cartesian    0.02
     79 y         15.420658     15.433659     0.013001    Cartesian    0.08
     79 z          4.405902      4.406801     0.000899    Cartesian    0.02
     80 x          6.608853      6.615392     0.006538    Cartesian    0.10
     80 y          6.608853      6.615392     0.006538    Cartesian    0.10
     80 z         13.217707     13.221457     0.003751    Cartesian    0.03
     81 x          6.608853      6.608484    -0.000369    Cartesian   -0.01
     81 y         11.014756     11.011842    -0.002914    Cartesian   -0.03
     81 z         11.014756     11.011848    -0.002908    Cartesian   -0.03
     82 x          2.202951      2.202951     0.000000    Cartesian    0.00
     82 y         15.420658     15.420379    -0.000279    Cartesian   -0.00
     82 z          6.608853      6.608953     0.000100    Cartesian    0.00
     83 x          4.405902      4.404360    -0.001542    Cartesian   -0.03
     83 y          8.811805      8.802963    -0.008842    Cartesian   -0.10
     83 z         13.217707     13.195956    -0.021751    Cartesian   -0.16
     84 x          4.405902      4.406094     0.000191    Cartesian    0.00
     84 y         15.420658     15.431625     0.010967    Cartesian    0.07
     84 z          6.608853      6.617090     0.008237    Cartesian    0.12
     85 x          8.811805      8.815496     0.003691    Cartesian    0.04
     85 y         15.420658     15.437722     0.017064    Cartesian    0.11
     85 z         -2.202951     -2.205045    -0.002094    Cartesian    0.10
     86 x         11.014756     11.018652     0.003897    Cartesian    0.04
     86 y         11.014756     11.018652     0.003897    Cartesian    0.04
     86 z          8.811805      8.815174     0.003369    Cartesian    0.04
     87 x          2.202951      2.202951     0.000000    Cartesian    0.00
     87 y          2.202951      2.202951     0.000000    Cartesian    0.00
     87 z         15.420658     15.420091    -0.000567    Cartesian   -0.00
     88 x          6.608853      6.605765    -0.003088    Cartesian   -0.05
     88 y         15.420658     15.414119    -0.006539    Cartesian   -0.04
     88 z          6.608853      6.605437    -0.003416    Cartesian   -0.05
     89 x          4.405902      4.404226    -0.001676    Cartesian   -0.04
     89 y         17.623609     17.596542    -0.027067    Cartesian   -0.15
     89 z          0.000000      0.000000     0.000000    Cartesian    0.00
     90 x          8.811805      8.802727    -0.009077    Cartesian   -0.10
     90 y         13.217707     13.198804    -0.018903    Cartesian   -0.14
     90 z          8.811805      8.798956    -0.012849    Cartesian   -0.15
     91 x         13.217707     13.201104    -0.016603    Cartesian   -0.13
     91 y         13.217707     13.201104    -0.016603    Cartesian   -0.13
     91 z          0.000000      0.000000     0.000000    Cartesian    0.00
     92 x          4.405902      4.407073     0.001170    Cartesian    0.03
     92 y          2.202951      2.202951     0.000000    Cartesian    0.00
     92 z         15.420658     15.441889     0.021231    Cartesian    0.14
     93 x         13.217707     13.224171     0.006465    Cartesian    0.05
     93 y          2.202951      2.202951     0.000000    Cartesian    0.00
     93 z         11.014756     11.031423     0.016667    Cartesian    0.15
     94 x         17.623609     17.632102     0.008493    Cartesian    0.05
     94 y          2.202951      2.202951     0.000000    Cartesian    0.00
     94 z         -2.202951     -2.208591    -0.005640    Cartesian    0.26
     95 x          8.811805      8.814179     0.002374    Cartesian    0.03
     95 y         11.014756     11.025993     0.011237    Cartesian    0.10
     95 z         11.014756     11.032181     0.017426    Cartesian    0.16
     96 x         13.217707     13.223238     0.005531    Cartesian    0.04
     96 y         11.014756     11.027820     0.013064    Cartesian    0.12
     96 z          6.608853      6.618754     0.009901    Cartesian    0.15
     97 x          2.202951      2.202951     0.000000    Cartesian    0.00
     97 y         11.014756     11.027510     0.012755    Cartesian    0.12
     97 z         13.217707     13.223819     0.006112    Cartesian    0.05
     98 x          2.202951      2.202951     0.000000    Cartesian    0.00
     98 y         15.420658     15.440082     0.019424    Cartesian    0.13
     98 z          8.811805      8.816283     0.004479    Cartesian    0.05
     99 x         11.014756     11.028141     0.013386    Cartesian    0.12
     99 y         15.420658     15.444574     0.023916    Cartesian    0.16
     99 z          0.000000      0.000000     0.000000    Cartesian    0.00
    100 x          2.202951      2.202951     0.000000    Cartesian    0.00
    100 y          2.202951      2.202951     0.000000    Cartesian    0.00
    100 z         -2.202951     -1.704997     0.497954    Cartesian  -22.60
    101 x          4.405902      3.860288    -0.545614    Cartesian  -12.38
    101 y          4.405902      3.860288    -0.545614    Cartesian  -12.38
    101 z          0.000000      0.000000     0.000000    Cartesian    0.00
    102 x          2.202951      2.202951     0.000000    Cartesian    0.00
    102 y          6.608853      6.654139     0.045285    Cartesian    0.69
    102 z         -2.202951     -2.198708     0.004244    Cartesian   -0.19
    103 x          4.405902      4.280549    -0.125353    Cartesian   -2.85
    103 y          4.405902      4.280549    -0.125353    Cartesian   -2.85
    103 z          4.405902      4.258856    -0.147047    Cartesian   -3.34
    104 x          2.202951      2.202951     0.000000    Cartesian    0.00
    104 y          2.202951      2.202951     0.000000    Cartesian    0.00
    104 z          6.608853      6.586622    -0.022231    Cartesian   -0.34
    105 x          6.608853      6.592739    -0.016115    Cartesian   -0.24
    105 y          6.608853      6.592739    -0.016115    Cartesian   -0.24
    105 z         -2.202951     -2.191929     0.011022    Cartesian   -0.50
    106 x          4.405902      4.411927     0.006024    Cartesian    0.14
    106 y          8.811805      8.751048    -0.060757    Cartesian   -0.69
    106 z          0.000000      0.000000     0.000000    Cartesian    0.00
    107 x          2.202951      2.202951     0.000000    Cartesian    0.00
    107 y          6.608853      6.610756     0.001903    Cartesian    0.03
    107 z          6.608853      6.604452    -0.004401    Cartesian   -0.07
    108 x          4.405902      4.408223     0.002321    Cartesian    0.05
    108 y          8.811805      8.770576    -0.041228    Cartesian   -0.47
    108 z          4.405902      4.381799    -0.024103    Cartesian   -0.55
    109 x          6.608853      6.600221    -0.008632    Cartesian   -0.13
    109 y          6.608853      6.600221    -0.008632    Cartesian   -0.13
    109 z          6.608853      6.600389    -0.008465    Cartesian   -0.13
    110 x          2.202951      2.202951     0.000000    Cartesian    0.00
    110 y         11.014756     11.032029     0.017274    Cartesian    0.16
    110 z         -2.202951     -2.199703     0.003249    Cartesian   -0.15
    111 x          4.405902      4.401634    -0.004268    Cartesian   -0.10
    111 y          4.405902      4.401634    -0.004268    Cartesian   -0.10
    111 z          8.811805      8.766534    -0.045271    Cartesian   -0.51
    112 x          8.811805      8.772302    -0.039502    Cartesian   -0.45
    112 y          8.811805      8.772302    -0.039502    Cartesian   -0.45
    112 z          0.000000      0.000000     0.000000    Cartesian    0.00
    113 x          6.608853      6.609127     0.000273    Cartesian    0.00
    113 y         11.014756     11.016109     0.001353    Cartesian    0.01
    113 z         -2.202951     -2.202573     0.000378    Cartesian   -0.02
    114 x          8.811805      8.777333    -0.034471    Cartesian   -0.39
    114 y          8.811805      8.777333    -0.034471    Cartesian   -0.39
    114 z          4.405902      4.378799    -0.027103    Cartesian   -0.62
    115 x          2.202951      2.202951     0.000000    Cartesian    0.00
    115 y          2.202951      2.202951     0.000000    Cartesian    0.00
    115 z         11.014756     11.008737    -0.006019    Cartesian   -0.05
    116 x          2.202951      2.202951     0.000000    Cartesian    0.00
    116 y         11.014756     11.014513    -0.000243    Cartesian   -0.00
    116 z          6.608853      6.609468     0.000615    Cartesian    0.01
    117 x          4.405902      4.400532    -0.005371    Cartesian   -0.12
    117 y          8.811805      8.791344    -0.020460    Cartesian   -0.23
    117 z          8.811805      8.783895    -0.027910    Cartesian   -0.32
    118 x          4.405902      4.402530    -0.003373    Cartesian   -0.08
    118 y         13.217707     13.195881    -0.021826    Cartesian   -0.17
    118 z          0.000000      0.000000     0.000000    Cartesian    0.00
    119 x          2.202951      2.202951     0.000000    Cartesian    0.00
    119 y          6.608853      6.604855    -0.003999    Cartesian   -0.06
    119 z         11.014756     11.013362    -0.001394    Cartesian   -0.01
    120 x          6.608853      6.608452    -0.000401    Cartesian   -0.01
    120 y         11.014756     11.011487    -0.003269    Cartesian   -0.03
    120 z          6.608853      6.605945    -0.002909    Cartesian   -0.04
    121 x          4.405902      4.400010    -0.005893    Cartesian   -0.13
    121 y         13.217707     13.195719    -0.021988    Cartesian   -0.17
    121 z          4.405902      4.396337    -0.009565    Cartesian   -0.22
    122 x          6.608853      6.609097     0.000244    Cartesian    0.00
    122 y          6.608853      6.609097     0.000244    Cartesian    0.00
    122 z         11.014756     11.013031    -0.001725    Cartesian   -0.02
    123 x         11.014756     11.014308    -0.000448    Cartesian   -0.00
    123 y         11.014756     11.014308    -0.000448    Cartesian   -0.00
    123 z         -2.202951     -2.202516     0.000435    Cartesian   -0.02
    124 x          8.811805      8.793389    -0.018416    Cartesian   -0.21
    124 y          8.811805      8.793389    -0.018416    Cartesian   -0.21
    124 z          8.811805      8.788261    -0.023544    Cartesian   -0.27
    125 x          8.811805      8.800885    -0.010919    Cartesian   -0.12
    125 y         13.217707     13.196921    -0.020786    Cartesian   -0.16
    125 z          0.000000      0.000000     0.000000    Cartesian    0.00
    126 x          2.202951      2.202951     0.000000    Cartesian    0.00
    126 y         15.420658     15.426827     0.006169    Cartesian    0.04
    126 z         -2.202951     -2.206955    -0.004004    Cartesian    0.18
    127 x          8.811805      8.804019    -0.007785    Cartesian   -0.09
    127 y         13.217707     13.199226    -0.018481    Cartesian   -0.14
    127 z          4.405902      4.397343    -0.008559    Cartesian   -0.19
    128 x          4.405902      4.404217    -0.001685    Cartesian   -0.04
    128 y          4.405902      4.404217    -0.001685    Cartesian   -0.04
    128 z         13.217707     13.197080    -0.020627    Cartesian   -0.16
    129 x          6.608853      6.610317     0.001464    Cartesian    0.02
    129 y         15.420658     15.420287    -0.000372    Cartesian   -0.00
    129 z         -2.202951     -2.203199    -0.000248    Cartesian    0.01
    130 x          2.202951      2.202951     0.000000    Cartesian    0.00
    130 y         11.014756     11.016889     0.002133    Cartesian    0.02
    130 z         11.014756     11.015801     0.001045    Cartesian    0.01
    131 x         11.014756     11.015950     0.001194    Cartesian    0.01
    131 y         11.014756     11.015950     0.001194    Cartesian    0.01
    131 z          6.608853      6.607038    -0.001816    Cartesian   -0.03
    132 x          4.405902      4.404367    -0.001535    Cartesian   -0.03
    132 y         13.217707     13.200641    -0.017065    Cartesian   -0.13
    132 z          8.811805      8.800864    -0.010941    Cartesian   -0.12
    133 x          6.608853      6.608483    -0.000371    Cartesian   -0.01
    133 y         11.014756     11.011840    -0.002916    Cartesian   -0.03
    133 z         11.014756     11.011847    -0.002908    Cartesian   -0.03
    134 x          2.202951      2.202951     0.000000    Cartesian    0.00
    134 y         15.420658     15.420382    -0.000276    Cartesian   -0.00
    134 z          6.608853      6.608948     0.000094    Cartesian    0.00
    135 x          4.405902      4.404283    -0.001619    Cartesian   -0.04
    135 y          8.811805      8.801485    -0.010319    Cartesian   -0.12
    135 z         13.217707     13.192990    -0.024717    Cartesian   -0.19
    136 x          2.202951      2.202951     0.000000    Cartesian    0.00
    136 y          2.202951      2.202951     0.000000    Cartesian    0.00
    136 z         15.420658     15.420098    -0.000560    Cartesian   -0.00
    137 x          6.608853      6.605760    -0.003093    Cartesian   -0.05
    137 y         15.420658     15.414112    -0.006547    Cartesian   -0.04
    137 z          6.608853      6.605433    -0.003421    Cartesian   -0.05
    138 x          4.405902      4.403944    -0.001958    Cartesian   -0.04
    138 y         17.623609     17.592685    -0.030924    Cartesian   -0.18
    138 z          0.000000      0.000000     0.000000    Cartesian    0.00
    139 x          8.811805      8.801312    -0.010492    Cartesian   -0.12
    139 y         13.217707     13.196168    -0.021539    Cartesian   -0.16
    139 z          8.811805      8.797119    -0.014685    Cartesian   -0.17
    140 x         13.217707     13.198528    -0.019179    Cartesian   -0.15
    140 y         13.217707     13.198528    -0.019179    Cartesian   -0.15
    140 z          0.000000      0.000000     0.000000    Cartesian    0.00
--------------------------------------------------------------------------------


  Time to end of optimisation  =       12.2185 seconds


  Peak dynamic memory used =     318.24 MB 


  Timing analysis for GULP :

--------------------------------------------------------------------------------
  Task / Subroutine                                          Time (Seconds)
--------------------------------------------------------------------------------
  Calculation of reciprocal space energy and derivatives          0.0002
  Calculation of reciprocal space energy using symmetry           0.0004
  Calculation of real space energy and derivatives                0.0013
  Calculation of real space energy using symmetry                 0.0040
  Calculation for region 1 energy and derivatives (2-b)           8.3005
  Calculation for region 2a energy                                3.3496
  Calculation and manipulation of Hessian matrix                  0.4017
  Calculation of matrix inversion                                 0.0216
  Symmetry generation of equivalent positions                     0.0016
--------------------------------------------------------------------------------
  Total CPU time                                                 12.2185
--------------------------------------------------------------------------------


  Dump file written as Na3OCl.grs


  Job Finished at 23:07.10 25th August     2021                               

