********************************************************************************
*                       GENERAL UTILITY LATTICE PROGRAM                        *
*                                 Julian Gale                                  *
*                       Curtin Institute for Computation                       *
*                    School of Molecular and Life Sciences                     *
*                    Curtin University, Western Australia                      *
********************************************************************************
* Version = 5.2.0 * Last modified =  10th September 2020                       *
********************************************************************************
*  optimise     - perform optimisation run                                     *
*  conp         - constant pressure calculation                                *
*  property     - calculate properties for final geometry                      *
*  defect       - perform defect calculation after bulk run                    *
*  compare      - compare initial and final structures                         *
********************************************************************************

  Job Started  at 14:48.23  2nd January    2021                               

  Number of CPUs =     1


  Total number of configurations input =      1

********************************************************************************
*  Input for Configuration =   1                                               *
********************************************************************************

  Formula = ClONa3                                                      

  Number of irreducible atoms/shells =       5


  Total number atoms/shells =       7

  Dimensionality = 3               :  Bulk   


  Symmetry :

  Crystal family                   :  Cubic       
  Crystal class  (Groth - 1921)    :  Cubic Hexakisoctahedral              

  Space group (centrosymmetric)    :  P M 3 M         

  Patterson group                  :  P m -3 m 

  Cartesian lattice vectors (Angstroms) :

        4.504000    0.000000    0.000000
        0.000000    4.504000    0.000000
        0.000000    0.000000    4.504000

  Cell parameters (Angstroms/Degrees):

  a =       4.5040    alpha =  90.0000
  b =       4.5040    beta  =  90.0000
  c =       4.5040    gamma =  90.0000

  Initial cell volume =          91.368216 Angs**3

  Temperature of configuration =   0.00     K 

  Pressure of configuration =         0.000 GPa 

  Fractional coordinates of asymmetric unit :

--------------------------------------------------------------------------------
   No.  Atomic       x           y          z         Charge      Occupancy
        Label      (Frac)      (Frac)     (Frac)        (e)         (Frac)  
--------------------------------------------------------------------------------
      1 Cl    c    0.000000    0.000000    0.000000     1.48500    1.000000    
      2 O     c    0.500000    0.500000    0.500000     0.18300    1.000000    
      3 Na    c    0.500000    0.500000    0.000000     1.00000    1.000000    
      4 Cl    s    0.000000    0.000000    0.000000    -2.48500    1.000000    
      5 O     s    0.500000    0.500000    0.500000    -2.18300    1.000000    
--------------------------------------------------------------------------------


  Constraints : 

--------------------------------------------------------------------------------
  Constraint no.      Unconstrained     Constrained    Coefficient    Offset
                         Variable         Variable
--------------------------------------------------------------------------------
           1              Strain 1        Strain 2       1.00000      0.0000
           2              Strain 1        Strain 3       1.00000      0.0000
--------------------------------------------------------------------------------


********************************************************************************
*  General input information                                                   *
********************************************************************************

  Species output for all configurations : 

--------------------------------------------------------------------------------
  Species    Type    Atomic    Atomic    Charge       Radii (Angs)     Library
                     Number     Mass       (e)     Cova   Ionic  VDW   Symbol
--------------------------------------------------------------------------------
    Na       Core       11      22.99   1.000000   0.970  0.000  2.300          
    O        Core        8      16.00   0.183000   0.730  0.000  1.360          
    O        Shell       8       0.00  -2.183000   0.730  0.000  1.360          
    Cl       Core       17      35.45   1.485000   0.990  0.000  1.650          
    Cl       Shell      17       0.00  -2.485000   0.990  0.000  1.650          
    Mg       Core       12      24.31   0.415000   1.100  0.000  0.000          
    Mg       Shell      12       0.00   1.585000   1.100  0.000  0.000          
    Ca       Core       20      40.08  -1.135000   0.990  0.000  0.000          
    Ca       Shell      20       0.00   3.135000   0.990  0.000  0.000          
    Sr       Core       38      87.62  -1.251000   1.120  0.000  0.000          
    Sr       Shell      38       0.00   3.251000   1.120  0.000  0.000          
    Ba       Core       56     137.33  -7.203000   1.340  0.000  0.000          
    Ba       Shell      56       0.00   9.203000   1.340  0.000  0.000          
--------------------------------------------------------------------------------


  Lattice summation method               =    Ewald          (3-D)
                                         =    Parry          (2-D)
                                         =    Saunders et al (1-D)
  Accuracy factor for lattice sums       =   12.000


  Analytic derivatives to be used

  Time limit = Infinity

  Maximum range for interatomic potentials =    100000.000000 Angstroms

  General interatomic potentials :

--------------------------------------------------------------------------------
Atom  Types   Potential      Parameter       Value         Units   Cutoffs(Ang)
  1     2                                                            Min /  Max 
--------------------------------------------------------------------------------
O    c O    s Spring (c-s)  Spring k 2       593.71600    eV*Ang^-2 0.000  0.800
                            Spring k 4       0.0000000    eV*Ang^-4 
--------------------------------------------------------------------------------
Cl   c Cl   s Spring (c-s)  Spring k 2       29.380000    eV*Ang^-2 0.000  0.800
                            Spring k 4       0.0000000    eV*Ang^-4 
--------------------------------------------------------------------------------
Mg   c Mg   s Spring (c-s)  Spring k 2       361.60000    eV*Ang^-2 0.000  0.800
                            Spring k 4       0.0000000    eV*Ang^-4 
--------------------------------------------------------------------------------
Ca   c Ca   s Spring (c-s)  Spring k 2       110.20000    eV*Ang^-2 0.000  0.800
                            Spring k 4       0.0000000    eV*Ang^-4 
--------------------------------------------------------------------------------
Sr   c Sr   s Spring (c-s)  Spring k 2       71.700000    eV*Ang^-2 0.000  0.800
                            Spring k 4       0.0000000    eV*Ang^-4 
--------------------------------------------------------------------------------
Ba   c Ba   s Spring (c-s)  Spring k 2       495.20000    eV*Ang^-2 0.000  0.800
                            Spring k 4       0.0000000    eV*Ang^-4 
--------------------------------------------------------------------------------
Na   c Na   c Buckingham    Buckingham A     1788.1900    eV        0.000 12.000
                            Buckingham rho  0.15900000    Ang       
                            Buckingham C     0.0000000    eV*Ang^6  
--------------------------------------------------------------------------------
Na   c O    s Buckingham    Buckingham A     588.38000    eV        0.000 12.000
                            Buckingham rho  0.33800000    Ang       
                            Buckingham C     0.0000000    eV*Ang^6  
--------------------------------------------------------------------------------
Na   c Cl   s Buckingham    Buckingham A     1170.4100    eV        0.000 12.000
                            Buckingham rho  0.31500000    Ang       
                            Buckingham C     0.0000000    eV*Ang^6  
--------------------------------------------------------------------------------
O    s O    s Buckingham    Buckingham A     22764.300    eV        0.000 12.000
                            Buckingham rho  0.14900000    Ang       
                            Buckingham C     13.190000    eV*Ang^6  
--------------------------------------------------------------------------------
O    s Cl   s Buckingham    Buckingham A     8286.9100    eV        0.000 12.000
                            Buckingham rho  0.25900000    Ang       
                            Buckingham C     62.200000    eV*Ang^6  
--------------------------------------------------------------------------------
Cl   s Cl   s Buckingham    Buckingham A     1227.2000    eV        0.000 12.000
                            Buckingham rho  0.32100000    Ang       
                            Buckingham C     14.530000    eV*Ang^6  
--------------------------------------------------------------------------------
O    s Mg   s Buckingham    Buckingham A     1428.5000    eV        0.000 12.000
                            Buckingham rho  0.29450000    Ang       
                            Buckingham C     0.0000000    eV*Ang^6  
--------------------------------------------------------------------------------
Mg   s Cl   s Buckingham    Buckingham A     4914.5400    eV        0.000 12.000
                            Buckingham rho  0.25700000    Ang       
                            Buckingham C     0.0000000    eV*Ang^6  
--------------------------------------------------------------------------------
O    s Ca   s Buckingham    Buckingham A     1090.4000    eV        0.000 12.000
                            Buckingham rho  0.34370000    Ang       
                            Buckingham C     0.0000000    eV*Ang^6  
--------------------------------------------------------------------------------
Cl   s Ca   s Buckingham    Buckingham A     2302.0000    eV        0.000 12.000
                            Buckingham rho  0.34020000    Ang       
                            Buckingham C     0.0000000    eV*Ang^6  
--------------------------------------------------------------------------------
O    s Sr   s Buckingham    Buckingham A     959.10000    eV        0.000 12.000
                            Buckingham rho  0.37210000    Ang       
                            Buckingham C     0.0000000    eV*Ang^6  
--------------------------------------------------------------------------------
Cl   s Sr   s Buckingham    Buckingham A     2191.0900    eV        0.000 12.000
                            Buckingham rho  0.34570000    Ang       
                            Buckingham C     0.0000000    eV*Ang^6  
--------------------------------------------------------------------------------
O    s Ba   s Buckingham    Buckingham A     905.70000    eV        0.000 12.000
                            Buckingham rho  0.39760000    Ang       
                            Buckingham C     0.0000000    eV*Ang^6  
--------------------------------------------------------------------------------
Cl   s Ba   s Buckingham    Buckingham A     2704.5500    eV        0.000 12.000
                            Buckingham rho  0.35280000    Ang       
                            Buckingham C     0.0000000    eV*Ang^6  
--------------------------------------------------------------------------------

********************************************************************************
*  Output for configuration   1                                                *
********************************************************************************


  Components of energy : 

--------------------------------------------------------------------------------
  Interatomic potentials     =           4.94315381 eV    
  Monopole - monopole (real) =         -10.03624526 eV    
  Monopole - monopole (recip)=         -29.53581274 eV    
  Monopole - monopole (total)=         -39.57205800 eV    
--------------------------------------------------------------------------------
  Total lattice energy       =         -34.62890419 eV    
--------------------------------------------------------------------------------
  Total lattice energy       =           -3341.1599 kJ/(mole unit cells)
--------------------------------------------------------------------------------


  Number of variables =        1

  Maximum number of calculations  =          1000
  Maximum Hessian update interval =            10
  Maximum step size               =   1.000000000
  Maximum parameter tolerance     =   0.000010000
  Maximum function  tolerance     =   0.000010000
  Maximum gradient  tolerance     =   0.001000000
  Maximum gradient  component     =   0.010000000

  Symmetry constrained optimisation

  Symmetry used for second derivatives

  Cell parameters to be optimised using strains

  Newton-Raphson optimiser to be used

  BFGS hessian update to be used

  Lower half triangular hessian to be used

  Start of bulk optimisation :

  Cycle:      0 Energy:       -34.628904  Gnorm:      4.328237  CPU:    0.005
  ** Hessian calculated **
  Cycle:      1 Energy:       -34.677667  Gnorm:      0.044008  CPU:    0.006
  Cycle:      2 Energy:       -34.677671  Gnorm:      0.003653  CPU:    0.007


  **** Optimisation achieved ****


  Final energy =     -34.67767136 eV
  Final Gnorm  =       0.00000010

  Components of energy : 

--------------------------------------------------------------------------------
  Interatomic potentials     =           5.77546103 eV    
  Monopole - monopole (real) =         -10.25970290 eV    
  Monopole - monopole (recip)=         -30.19342950 eV    
  Monopole - monopole (total)=         -40.45313239 eV    
--------------------------------------------------------------------------------
  Total lattice energy       =         -34.67767136 eV    
--------------------------------------------------------------------------------
  Total lattice energy       =           -3345.8652 kJ/(mole unit cells)
--------------------------------------------------------------------------------

  Final asymmetric unit coordinates :

--------------------------------------------------------------------------------
   No.  Atomic        x           y           z         Radius
        Label       (Frac)      (Frac)      (Frac)       (Angs) 
--------------------------------------------------------------------------------
     1  Cl    c     0.000000    0.000000    0.000000    0.000000
     2  O     c     0.500000    0.500000    0.500000    0.000000
     3  Na    c     0.500000    0.500000    0.000000    0.000000
     4  Cl    s     0.000000    0.000000    0.000000    0.000000
     5  O     s     0.500000    0.500000    0.500000    0.000000
--------------------------------------------------------------------------------

  Final Cartesian lattice vectors (Angstroms) :

        4.405902    0.000000    0.000000
        0.000000    4.405902    0.000000
        0.000000    0.000000    4.405902


  Final cell parameters and derivatives :

--------------------------------------------------------------------------------
       a            4.405902 Angstrom     dE/de1(xx)     0.000000 eV/strain
       b            4.405902 Angstrom     dE/de2(yy)     0.000000 eV/strain
       c            4.405902 Angstrom     dE/de3(zz)     0.000000 eV/strain
       alpha       90.000000 Degrees      dE/de4(yz)     0.000000 eV/strain
       beta        90.000000 Degrees      dE/de5(xz)     0.000000 eV/strain
       gamma       90.000000 Degrees      dE/de6(xy)     0.000000 eV/strain
--------------------------------------------------------------------------------

  Primitive cell volume =            85.527266 Angs**3

  Density of cell =      2.338030 g/cm**3

  Non-primitive cell volume =            85.527266 Angs**3


  Final internal derivatives :

--------------------------------------------------------------------------------
   No.  Atomic          a             b             c           Radius
        Label          (eV)          (eV)          (eV)        (eV/Angs)
--------------------------------------------------------------------------------
      1 Cl    c       0.000000      0.000000      0.000000      0.000000
      2 O     c       0.000000      0.000000      0.000000      0.000000
      3 Na    c       0.000000      0.000000      0.000000      0.000000
      4 Cl    s       0.000000      0.000000      0.000000      0.000000
      5 O     s       0.000000      0.000000      0.000000      0.000000
--------------------------------------------------------------------------------
  Maximum abs         0.000000      0.000000      0.000000      0.000000
--------------------------------------------------------------------------------

  Comparison of initial and final structures : 

--------------------------------------------------------------------------------
  Parameter   Initial value   Final value   Difference    Units      Percent
--------------------------------------------------------------------------------
    Volume        91.368216     85.527266    -5.840950    Angs**3     -6.39
    a              4.504000      4.405902    -0.098098    Angstroms   -2.18
    b              4.504000      4.405902    -0.098098    Angstroms   -2.18
    c              4.504000      4.405902    -0.098098    Angstroms   -2.18
    alpha         90.000000     90.000000     0.000000    Degrees      0.00
    beta          90.000000     90.000000     0.000000    Degrees      0.00
    gamma         90.000000     90.000000     0.000000    Degrees      0.00
      1 x          0.000000      0.000000     0.000000    Fractional   0.00
      1 y          0.000000      0.000000     0.000000    Fractional   0.00
      1 z          0.000000      0.000000     0.000000    Fractional   0.00
      2 x          0.500000      0.500000     0.000000    Fractional   0.00
      2 y          0.500000      0.500000     0.000000    Fractional   0.00
      2 z          0.500000      0.500000     0.000000    Fractional   0.00
      3 x          0.500000      0.500000     0.000000    Fractional   0.00
      3 y          0.500000      0.500000     0.000000    Fractional   0.00
      3 z          0.000000      0.000000     0.000000    Fractional   0.00
      4 x          0.000000      0.000000     0.000000    Fractional   0.00
      4 y          0.000000      0.000000     0.000000    Fractional   0.00
      4 z          0.000000      0.000000     0.000000    Fractional   0.00
      5 x          0.500000      0.500000     0.000000    Fractional   0.00
      5 y          0.500000      0.500000     0.000000    Fractional   0.00
      5 z          0.500000      0.500000     0.000000    Fractional   0.00
--------------------------------------------------------------------------------


  Born effective charge tensors : 

-------------------------------------------------------------------------------
  Atom             x           y             z
-------------------------------------------------------------------------------
    1 Cl    x      -0.9918     -0.0000     -0.0000
            y      -0.0000     -0.9918     -0.0000
            z      -0.0000     -0.0000     -0.9918
-------------------------------------------------------------------------------
    2 O     x      -2.2939      0.0000      0.0000
            y       0.0000     -2.2939      0.0000
            z       0.0000      0.0000     -2.2939
-------------------------------------------------------------------------------
    3 Na    x       1.2243      0.0000      0.0000
            y       0.0000      1.2243     -0.0000
            z       0.0000      0.0000      0.8372
-------------------------------------------------------------------------------




  Elastic Constant Matrix: (Units=GPa)

-------------------------------------------------------------------------------
  Indices      1         2         3         4         5         6    
-------------------------------------------------------------------------------
       1     82.7680   24.3534   24.3534   -0.0000    0.0000   -0.0000
       2     24.3534   82.7680   24.3534    0.0000   -0.0000   -0.0000
       3     24.3534   24.3534   82.7680    0.0000   -0.0000    0.0000
       4     -0.0000    0.0000    0.0000   24.3534   -0.0000    0.0000
       5      0.0000   -0.0000   -0.0000   -0.0000   24.3534    0.0000
       6     -0.0000   -0.0000    0.0000    0.0000    0.0000   24.3534
-------------------------------------------------------------------------------


  Elastic Compliance Matrix: (Units=1/GPa)

-------------------------------------------------------------------------------
  Indices      1         2         3         4         5         6    
-------------------------------------------------------------------------------
       1    0.013948 -0.003171 -0.003171  0.000000 -0.000000  0.000000
       2   -0.003171  0.013948 -0.003171 -0.000000  0.000000 -0.000000
       3   -0.003171 -0.003171  0.013948 -0.000000  0.000000 -0.000000
       4    0.000000 -0.000000 -0.000000  0.041062  0.000000 -0.000000
       5   -0.000000  0.000000  0.000000  0.000000  0.041062 -0.000000
       6    0.000000 -0.000000 -0.000000 -0.000000 -0.000000  0.041062
-------------------------------------------------------------------------------

  Mechanical properties :

-------------------------------------------------------------------------------
  Convention :                    Reuss         Voigt         Hill
-------------------------------------------------------------------------------
  Bulk  Modulus (GPa)     =      43.82493      43.82493      43.82493
  Shear Modulus (GPa)     =      26.08758      26.29496      26.19127
-------------------------------------------------------------------------------
  Velocity S-wave (km/s)  =       3.34035       3.35360       3.34698
  Velocity P-wave (km/s)  =       5.79842       5.80861       5.80351
-------------------------------------------------------------------------------
  Compressibility (1/GPa) =    0.02281806
-------------------------------------------------------------------------------
  Stress axis :                     x             y             z
-------------------------------------------------------------------------------
  Youngs Moduli (GPa)     =      71.69479      71.69479      71.69479
-------------------------------------------------------------------------------
  Poissons Ratio (x)      =                     0.22734       0.22734
  Poissons Ratio (y)      =       0.22734                     0.22734
  Poissons Ratio (z)      =       0.22734       0.22734
-------------------------------------------------------------------------------


  Piezoelectric Strain Matrix: (Units=C/m**2)

-------------------------------------------------------------------------------
  Indices      1         2         3         4         5         6    
-------------------------------------------------------------------------------
       x    -0.00000  -0.00000  -0.00000  -0.00000   0.00000  -0.00000
       y     0.00000  -0.00000   0.00000   0.00000  -0.00000   0.00000
       z    -0.00000  -0.00000   0.00000  -0.00000   0.00000  -0.00000
-------------------------------------------------------------------------------


  Piezoelectric Stress Matrix: (Units=10**-11 C/N)

-------------------------------------------------------------------------------
  Indices      1         2         3         4         5         6    
-------------------------------------------------------------------------------
       x     0.00000  -0.00000  -0.00000  -0.00000   0.00000  -0.00000
       y     0.00000  -0.00000   0.00000   0.00000  -0.00000   0.00000
       z    -0.00000  -0.00000   0.00000  -0.00000   0.00000  -0.00000
-------------------------------------------------------------------------------


  Static dielectric constant tensor : 

-------------------------------------------------------------------------------
              x         y         z
-------------------------------------------------------------------------------
       x    11.08357   0.00000   0.00000
       y     0.00000  11.08357   0.00000
       z     0.00000   0.00000  11.08357
--------------------------------------------------------------------------------

  High frequency dielectric constant tensor : 

-------------------------------------------------------------------------------
              x         y         z
-------------------------------------------------------------------------------
       x     1.50771   0.00000   0.00000
       y     0.00000   1.50771   0.00000
       z     0.00000   0.00000   1.50771
-------------------------------------------------------------------------------

  Static refractive indices : 

-------------------------------------------------------------------------------
    1 =    3.32920      2 =    3.32920      3 =    3.32920
-------------------------------------------------------------------------------

  High frequency refractive indices : 

-------------------------------------------------------------------------------
    1 =    1.22789      2 =    1.22789      3 =    1.22789
-------------------------------------------------------------------------------


  Time to end of optimisation =       0.0106 seconds

********************************************************************************
*  Defect calculation for configuration   1 :                                  *
********************************************************************************

  Total number of defects =      1

  Total charge on defect  =  -1.00

  Defect centre is at   0.5000   0.5000   0.0000  Frac

  Region 1 radius =  16.0000      Number of ions =   1370

  Number of symmetry inequivalent region 1 ions  =    139

  Region 2 radius =  24.0000      Number of ions =   3404

  Number of symmetry inequivalent region 2a ions =    274

  Region 2a mode = 4 : screened electrostatics due to region 1 
                       neglect correction to region 1 forces from 2a
                       region 2a displacements based on defects only

  Region 2a ions will only interact with defects in region 1

  Vacancies:

--------------------------------------------------------------------------------
    Specification type     Symbol/Number         x          y          z
--------------------------------------------------------------------------------
    Fractional                               0.500000   0.500000   0.000000
--------------------------------------------------------------------------------


  Symmetry reduced region 1 (Relative to defect centre) :

--------------------------------------------------------------------------------
   No.   Atomic       x            y             z       Radius  Multiplicity   
         Label      (Angs)       (Angs)        (Angs)    (Angs)     
--------------------------------------------------------------------------------
     1  O     c      0.0000       0.0000      -2.2030 *  0.0000     2          
     2  Cl    c      2.2030 *     2.2030       0.0000    0.0000     4          
     3  Na    c      2.2030 *     0.0000      -2.2030 *  0.0000     8          
     4  Na    c      0.0000       0.0000       4.4059 *  0.0000     2          
     5  Na    c      0.0000       4.4059 *     0.0000    0.0000     4          
     6  O     c      0.0000       4.4059 *    -2.2030 *  0.0000     8          
     7  Na    c      2.2030 *     4.4059 *    -2.2030 *  0.0000    16          
     8  Cl    c      2.2030 *     2.2030       4.4059 *  0.0000     8          
     9  Na    c      0.0000       4.4059 *     4.4059 *  0.0000     8          
    10  Na    c      4.4059 *     4.4059       0.0000    0.0000     4          
    11  O     c      0.0000       0.0000       6.6089 *  0.0000     2          
    12  O     c      4.4059 *     4.4059      -2.2030 *  0.0000     8          
    13  Cl    c      2.2030 *     6.6089 *     0.0000    0.0000     8          
    14  Na    c      2.2030 *     0.0000       6.6089 *  0.0000     8          
    15  Na    c      6.6089 *     0.0000      -2.2030 *  0.0000     8          
    16  Na    c      4.4059 *     4.4059       4.4059 *  0.0000     8          
    17  O     c      0.0000       4.4059 *     6.6089 *  0.0000     8          
    18  Cl    c      2.2030 *     6.6089 *     4.4059 *  0.0000    16          
    19  Na    c      2.2030 *     4.4059 *     6.6089 *  0.0000    16          
    20  Na    c      6.6089 *     4.4059 *    -2.2030 *  0.0000    16          
    21  Na    c      0.0000       0.0000       8.8118 *  0.0000     2          
    22  Na    c      0.0000       8.8118 *     0.0000    0.0000     4          
    23  O     c      4.4059 *     4.4059       6.6089 *  0.0000     8          
    24  O     c      0.0000       8.8118 *    -2.2030 *  0.0000     8          
    25  Cl    c      2.2030 *     2.2030       8.8118 *  0.0000     8          
    26  Cl    c      6.6089 *     6.6089       0.0000    0.0000     4          
    27  Na    c      6.6089 *     0.0000       6.6089 *  0.0000     8          
    28  Na    c      2.2030 *     8.8118 *    -2.2030 *  0.0000    16          
    29  Na    c      0.0000       4.4059 *     8.8118 *  0.0000     8          
    30  Na    c      0.0000       8.8118 *     4.4059 *  0.0000     8          
    31  Na    c      4.4059 *     8.8118 *     0.0000    0.0000     8          
    32  O     c      4.4059 *     8.8118 *    -2.2030 *  0.0000    16          
    33  Cl    c      6.6089 *     6.6089       4.4059 *  0.0000     8          
    34  Na    c      6.6089 *     4.4059 *     6.6089 *  0.0000    16          
    35  Na    c      4.4059 *     8.8118 *     4.4059 *  0.0000    16          
    36  Na    c      4.4059 *     4.4059       8.8118 *  0.0000     8          
    37  O     c      0.0000       0.0000      11.0148 *  0.0000     2          
    38  O     c      0.0000       8.8118 *     6.6089 *  0.0000     8          
    39  Cl    c      2.2030 *     6.6089 *     8.8118 *  0.0000    16          
    40  Cl    c      2.2030 *    11.0148 *     0.0000    0.0000     8          
    41  Na    c      2.2030 *     0.0000      11.0148 *  0.0000     8          
    42  Na    c      2.2030 *     8.8118 *     6.6089 *  0.0000    16          
    43  Na    c     11.0148 *     0.0000      -2.2030 *  0.0000     8          
    44  Na    c      6.6089 *     8.8118 *    -2.2030 *  0.0000    16          
    45  O     c      0.0000       4.4059 *    11.0148 *  0.0000     8          
    46  O     c      4.4059 *     8.8118 *     6.6089 *  0.0000    16          
    47  Cl    c      2.2030 *    11.0148 *     4.4059 *  0.0000    16          
    48  Na    c      2.2030 *     4.4059 *    11.0148 *  0.0000    16          
    49  Na    c     11.0148 *     4.4059 *    -2.2030 *  0.0000    16          
    50  Na    c      0.0000       8.8118 *     8.8118 *  0.0000     8          
    51  Na    c      8.8118 *     8.8118       0.0000    0.0000     4          
    52  O     c      4.4059 *     4.4059      11.0148 *  0.0000     8          
    53  O     c      8.8118 *     8.8118      -2.2030 *  0.0000     8          
    54  Cl    c      6.6089 *     6.6089       8.8118 *  0.0000     8          
    55  Cl    c      6.6089 *    11.0148 *     0.0000    0.0000     8          
    56  Na    c      6.6089 *     0.0000      11.0148 *  0.0000     8          
    57  Na    c     11.0148 *     0.0000       6.6089 *  0.0000     8          
    58  Na    c      6.6089 *     8.8118 *     6.6089 *  0.0000    16          
    59  Na    c      0.0000       0.0000      13.2177 *  0.0000     2          
    60  Na    c      0.0000      13.2177 *     0.0000    0.0000     4          
    61  Na    c      4.4059 *     8.8118 *     8.8118 *  0.0000    16          
    62  Na    c      8.8118 *     8.8118       4.4059 *  0.0000     8          
    63  O     c      0.0000      13.2177 *    -2.2030 *  0.0000     8          
    64  Cl    c      6.6089 *    11.0148 *     4.4059 *  0.0000    16          
    65  Na    c      2.2030 *    13.2177 *    -2.2030 *  0.0000    16          
    66  Cl    c      2.2030 *     2.2030      13.2177 *  0.0000     8          
    67  Na    c      6.6089 *     4.4059 *    11.0148 *  0.0000    16          
    68  Na    c     11.0148 *     4.4059 *     6.6089 *  0.0000    16          
    69  Na    c      0.0000       4.4059 *    13.2177 *  0.0000     8          
    70  Na    c      0.0000      13.2177 *     4.4059 *  0.0000     8          
    71  Na    c      4.4059 *    13.2177 *     0.0000    0.0000     8          
    72  O     c      4.4059 *    13.2177 *    -2.2030 *  0.0000    16          
    73  O     c      0.0000       8.8118 *    11.0148 *  0.0000     8          
    74  O     c      8.8118 *     8.8118       6.6089 *  0.0000     8          
    75  Cl    c      2.2030 *    11.0148 *     8.8118 *  0.0000    16          
    76  Na    c      2.2030 *     8.8118 *    11.0148 *  0.0000    16          
    77  Na    c     11.0148 *     8.8118 *    -2.2030 *  0.0000    16          
    78  Na    c      4.4059 *    13.2177 *     4.4059 *  0.0000    16          
    79  Na    c      4.4059 *     4.4059      13.2177 *  0.0000     8          
    80  O     c      4.4059 *     8.8118 *    11.0148 *  0.0000    16          
    81  O     c      0.0000      13.2177 *     6.6089 *  0.0000     8          
    82  Cl    c      2.2030 *     6.6089 *    13.2177 *  0.0000    16          
    83  Na    c      2.2030 *    13.2177 *     6.6089 *  0.0000    16          
    84  Na    c      6.6089 *    13.2177 *    -2.2030 *  0.0000    16          
    85  Na    c      8.8118 *     8.8118       8.8118 *  0.0000     8          
    86  O     c      0.0000       0.0000      15.4207 *  0.0000     2          
    87  O     c      4.4059 *    13.2177 *     6.6089 *  0.0000    16          
    88  Cl    c      2.2030 *    15.4207 *     0.0000    0.0000     8          
    89  Cl    c      6.6089 *    11.0148 *     8.8118 *  0.0000    16          
    90  Cl    c     11.0148 *    11.0148       0.0000    0.0000     4          
    91  Na    c      2.2030 *     0.0000      15.4207 *  0.0000     8          
    92  Na    c     11.0148 *     0.0000      11.0148 *  0.0000     8          
    93  Na    c     15.4207 *     0.0000      -2.2030 *  0.0000     8          
    94  Na    c      6.6089 *     8.8118 *    11.0148 *  0.0000    16          
    95  Na    c     11.0148 *     8.8118 *     6.6089 *  0.0000    16          
    96  Na    c      0.0000       8.8118 *    13.2177 *  0.0000     8          
    97  Na    c      0.0000      13.2177 *     8.8118 *  0.0000     8          
    98  Na    c      8.8118 *    13.2177 *     0.0000    0.0000     8          
    99  O     s      0.0000       0.0000      -2.2030 *  0.0000     2          
   100  Cl    s      2.2030 *     2.2030       0.0000    0.0000     4          
   101  O     s      0.0000       4.4059 *    -2.2030 *  0.0000     8          
   102  Cl    s      2.2030 *     2.2030       4.4059 *  0.0000     8          
   103  O     s      0.0000       0.0000       6.6089 *  0.0000     2          
   104  O     s      4.4059 *     4.4059      -2.2030 *  0.0000     8          
   105  Cl    s      2.2030 *     6.6089 *     0.0000    0.0000     8          
   106  O     s      0.0000       4.4059 *     6.6089 *  0.0000     8          
   107  Cl    s      2.2030 *     6.6089 *     4.4059 *  0.0000    16          
   108  O     s      4.4059 *     4.4059       6.6089 *  0.0000     8          
   109  O     s      0.0000       8.8118 *    -2.2030 *  0.0000     8          
   110  Cl    s      2.2030 *     2.2030       8.8118 *  0.0000     8          
   111  Cl    s      6.6089 *     6.6089       0.0000    0.0000     4          
   112  O     s      4.4059 *     8.8118 *    -2.2030 *  0.0000    16          
   113  Cl    s      6.6089 *     6.6089       4.4059 *  0.0000     8          
   114  O     s      0.0000       0.0000      11.0148 *  0.0000     2          
   115  O     s      0.0000       8.8118 *     6.6089 *  0.0000     8          
   116  Cl    s      2.2030 *     6.6089 *     8.8118 *  0.0000    16          
   117  Cl    s      2.2030 *    11.0148 *     0.0000    0.0000     8          
   118  O     s      0.0000       4.4059 *    11.0148 *  0.0000     8          
   119  O     s      4.4059 *     8.8118 *     6.6089 *  0.0000    16          
   120  Cl    s      2.2030 *    11.0148 *     4.4059 *  0.0000    16          
   121  O     s      4.4059 *     4.4059      11.0148 *  0.0000     8          
   122  O     s      8.8118 *     8.8118      -2.2030 *  0.0000     8          
   123  Cl    s      6.6089 *     6.6089       8.8118 *  0.0000     8          
   124  Cl    s      6.6089 *    11.0148 *     0.0000    0.0000     8          
   125  O     s      0.0000      13.2177 *    -2.2030 *  0.0000     8          
   126  Cl    s      6.6089 *    11.0148 *     4.4059 *  0.0000    16          
   127  Cl    s      2.2030 *     2.2030      13.2177 *  0.0000     8          
   128  O     s      4.4059 *    13.2177 *    -2.2030 *  0.0000    16          
   129  O     s      0.0000       8.8118 *    11.0148 *  0.0000     8          
   130  O     s      8.8118 *     8.8118       6.6089 *  0.0000     8          
   131  Cl    s      2.2030 *    11.0148 *     8.8118 *  0.0000    16          
   132  O     s      4.4059 *     8.8118 *    11.0148 *  0.0000    16          
   133  O     s      0.0000      13.2177 *     6.6089 *  0.0000     8          
   134  Cl    s      2.2030 *     6.6089 *    13.2177 *  0.0000    16          
   135  O     s      0.0000       0.0000      15.4207 *  0.0000     2          
   136  O     s      4.4059 *    13.2177 *     6.6089 *  0.0000    16          
   137  Cl    s      2.2030 *    15.4207 *     0.0000    0.0000     8          
   138  Cl    s      6.6089 *    11.0148 *     8.8118 *  0.0000    16          
   139  Cl    s     11.0148 *    11.0148       0.0000    0.0000     4          
--------------------------------------------------------------------------------


  Constraints on symmetry reduced coordinates :

--------------------------------------------------------------------------------
  Constraint no.      Unconstrained     Constrained    Coefficient    
                         Variable         Variable
--------------------------------------------------------------------------------
           1                 2 x             2 y         1.00000
           2                 8 x             8 y         1.00000
           3                10 x            10 y         1.00000
           4                12 x            12 y         1.00000
           5                16 x            16 y         1.00000
           6                23 x            23 y         1.00000
           7                25 x            25 y         1.00000
           8                26 x            26 y         1.00000
           9                33 x            33 y         1.00000
          10                36 x            36 y         1.00000
          11                51 x            51 y         1.00000
          12                52 x            52 y         1.00000
          13                53 x            53 y         1.00000
          14                54 x            54 y         1.00000
          15                62 x            62 y         1.00000
          16                66 x            66 y         1.00000
          17                74 x            74 y         1.00000
          18                79 x            79 y         1.00000
          19                85 x            85 y         1.00000
          20                90 x            90 y         1.00000
          21               100 x           100 y         1.00000
          22               102 x           102 y         1.00000
          23               104 x           104 y         1.00000
          24               108 x           108 y         1.00000
          25               110 x           110 y         1.00000
          26               111 x           111 y         1.00000
          27               113 x           113 y         1.00000
          28               121 x           121 y         1.00000
          29               122 x           122 y         1.00000
          30               123 x           123 y         1.00000
          31               127 x           127 y         1.00000
          32               130 x           130 y         1.00000
          33               139 x           139 y         1.00000
--------------------------------------------------------------------------------


  Components of defect energy : 

--------------------------------------------------------------------------------
  Region 1 - region 1                   =     -4.66251244 eV
  Region 1 - region 2a (unrelaxed)      =     13.23428676 eV
  Region 1 - 2a (relaxed - correction)  =     -0.27983698 eV
  Region 1 (Total)                      =      8.29193734 eV
  Region 2a                             =      0.13989900 eV
  Region 2b                             =     -0.27216525 eV
--------------------------------------------------------------------------------
  Total defect energy                   =      8.15967109 eV
--------------------------------------------------------------------------------

  Largest displacement in region 2 =   0.0090 Angstroms


  Number of variables =      302

  Maximum number of calculations  =        1000
  Maximum Hessian update interval =          10
  Maximum step size               =   1.0000000
  Maximum parameter tolerance     =   0.0000100
  Maximum function  tolerance     =   0.0000100
  Maximum gradient  tolerance     =   0.0010000

  Symmetry adapted optimisation

  Symmetry to be used for second derivatives

  Newton-Raphson optimiser to be used

  BFGS hessian update to be used

  Lower half triangular hessian to be used

  Start of defect optimisation :

  Cycle:      0 Defect Energy:   8.159671  Gnorm:     0.136465  CPU:    6.856
  ** Hessian calculated **
  Cycle:      1 Defect Energy:   6.336365  Gnorm:     0.093476  CPU:   13.662
  Cycle:      2 Defect Energy:   5.270926  Gnorm:     0.047907  CPU:   18.671
  Cycle:      3 Defect Energy:   4.833008  Gnorm:     0.010254  CPU:   24.689
  Cycle:      4 Defect Energy:   4.793839  Gnorm:     0.005788  CPU:   25.421
  Cycle:      5 Defect Energy:   4.787636  Gnorm:     0.003853  CPU:   26.131
  Cycle:      6 Defect Energy:   4.784657  Gnorm:     0.002676  CPU:   26.844
  Cycle:      7 Defect Energy:   4.783221  Gnorm:     0.001872  CPU:   27.708
  Cycle:      8 Defect Energy:   4.782541  Gnorm:     0.001307  CPU:   28.631
  Cycle:      9 Defect Energy:   4.782222  Gnorm:     0.000912  CPU:   29.403
  Cycle:     10 Defect Energy:   4.782078  Gnorm:     0.000639  CPU:   30.153
  ** Hessian calculated **
  Cycle:     11 Defect Energy:   4.782016  Gnorm:     0.000447  CPU:   32.040
  Cycle:     12 Defect Energy:   4.781992  Gnorm:     0.000313  CPU:   32.883
  Cycle:     13 Defect Energy:   4.781984  Gnorm:     0.000219  CPU:   33.509
  Cycle:     14 Defect Energy:   4.781984  Gnorm:     0.000153  CPU:   34.382
  Cycle:     15 Defect Energy:   4.781986  Gnorm:     0.000107  CPU:   35.112
  Cycle:     16 Defect Energy:   4.781988  Gnorm:     0.000075  CPU:   35.748


  **** Optimisation achieved ****


  Final defect energy  =        4.78199017
  Final defect Gnorm   =        0.00005260

  Components of defect energy : 

--------------------------------------------------------------------------------
  Region 1 - region 1                   =     -6.75105117 eV
  Region 1 - region 2a (unrelaxed)      =     11.92812793 eV
  Region 1 - 2a (relaxed - correction)  =     -0.24586360 eV
  Region 1 (Total)                      =      4.93121316 eV
  Region 2a                             =      0.12294226 eV
  Region 2b                             =     -0.27216525 eV
--------------------------------------------------------------------------------
  Total defect energy                   =      4.78199017 eV
--------------------------------------------------------------------------------

  Largest displacement in region 2 =   0.0090 Angstroms

  Final coordinates of region 1 :

--------------------------------------------------------------------------------
   No.  Atomic        x           y           z          Radius      Charge
        Label       (Angs)      (Angs)      (Angs)       (Angs)       (e) 
--------------------------------------------------------------------------------
     1  O     c     2.202951    2.202951   -2.353570    0.000000    0.183000
     2  O     c     2.202951    2.202951    2.353570    0.000000    0.183000
     3  Cl    c     4.510308    4.510308    0.000000    0.000000    1.485000
     4  Cl    c     4.510308   -0.104405    0.000000    0.000000    1.485000
     5  Cl    c    -0.104405    4.510308    0.000000    0.000000    1.485000
     6  Cl    c    -0.104405   -0.104405    0.000000    0.000000    1.485000
     7  Na    c     4.309146    2.202951   -1.933022    0.000000    1.000000
     8  Na    c     4.309146    2.202951    1.933022    0.000000    1.000000
     9  Na    c     0.096757    2.202951   -1.933022    0.000000    1.000000
    10  Na    c     0.096757    2.202951    1.933022    0.000000    1.000000
    11  Na    c     2.202951    4.309146   -1.933022    0.000000    1.000000
    12  Na    c     2.202951    4.309146    1.933022    0.000000    1.000000
    13  Na    c     2.202951    0.096757   -1.933022    0.000000    1.000000
    14  Na    c     2.202951    0.096757    1.933022    0.000000    1.000000
    15  Na    c     2.202951    2.202951    4.442776    0.000000    1.000000
    16  Na    c     2.202951    2.202951   -4.442776    0.000000    1.000000
    17  Na    c     2.202951    6.737068    0.000000    0.000000    1.000000
    18  Na    c     2.202951   -2.331166    0.000000    0.000000    1.000000
    19  Na    c     6.737068    2.202951    0.000000    0.000000    1.000000
    20  Na    c    -2.331166    2.202951    0.000000    0.000000    1.000000
    21  O     c     2.202951    6.576120   -2.188709    0.000000    0.183000
    22  O     c     2.202951    6.576120    2.188709    0.000000    0.183000
    23  O     c     2.202951   -2.170218   -2.188709    0.000000    0.183000
    24  O     c     2.202951   -2.170218    2.188709    0.000000    0.183000
    25  O     c     6.576120    2.202951   -2.188709    0.000000    0.183000
    26  O     c     6.576120    2.202951    2.188709    0.000000    0.183000
    27  O     c    -2.170218    2.202951   -2.188709    0.000000    0.183000
    28  O     c    -2.170218    2.202951    2.188709    0.000000    0.183000
    29  Na    c     4.401232    6.567780   -2.200961    0.000000    1.000000
    30  Na    c     4.401232    6.567780    2.200961    0.000000    1.000000
    31  Na    c     4.401232   -2.161878   -2.200961    0.000000    1.000000
    32  Na    c     4.401232   -2.161878    2.200961    0.000000    1.000000
    33  Na    c     0.004670    6.567780   -2.200961    0.000000    1.000000
    34  Na    c     0.004670    6.567780    2.200961    0.000000    1.000000
    35  Na    c     0.004670   -2.161878   -2.200961    0.000000    1.000000
    36  Na    c     0.004670   -2.161878    2.200961    0.000000    1.000000
    37  Na    c     6.567780    4.401232   -2.200961    0.000000    1.000000
    38  Na    c     6.567780    4.401232    2.200961    0.000000    1.000000
    39  Na    c     6.567780    0.004670   -2.200961    0.000000    1.000000
    40  Na    c     6.567780    0.004670    2.200961    0.000000    1.000000
    41  Na    c    -2.161878    4.401232   -2.200961    0.000000    1.000000
    42  Na    c    -2.161878    4.401232    2.200961    0.000000    1.000000
    43  Na    c    -2.161878    0.004670   -2.200961    0.000000    1.000000
    44  Na    c    -2.161878    0.004670    2.200961    0.000000    1.000000
    45  Cl    c     4.471718    4.471718    4.491560    0.000000    1.485000
    46  Cl    c     4.471718    4.471718   -4.491560    0.000000    1.485000
    47  Cl    c     4.471718   -0.065816    4.491560    0.000000    1.485000
    48  Cl    c     4.471718   -0.065816   -4.491560    0.000000    1.485000
    49  Cl    c    -0.065816    4.471718    4.491560    0.000000    1.485000
    50  Cl    c    -0.065816    4.471718   -4.491560    0.000000    1.485000
    51  Cl    c    -0.065816   -0.065816    4.491560    0.000000    1.485000
    52  Cl    c    -0.065816   -0.065816   -4.491560    0.000000    1.485000
    53  Na    c     2.202951    6.399690    4.382581    0.000000    1.000000
    54  Na    c     2.202951    6.399690   -4.382581    0.000000    1.000000
    55  Na    c     2.202951   -1.993788    4.382581    0.000000    1.000000
    56  Na    c     2.202951   -1.993788   -4.382581    0.000000    1.000000
    57  Na    c     6.399690    2.202951    4.382581    0.000000    1.000000
    58  Na    c     6.399690    2.202951   -4.382581    0.000000    1.000000
    59  Na    c    -1.993788    2.202951    4.382581    0.000000    1.000000
    60  Na    c    -1.993788    2.202951   -4.382581    0.000000    1.000000
    61  Na    c     6.594312    6.594312    0.000000    0.000000    1.000000
    62  Na    c     6.594312   -2.188409    0.000000    0.000000    1.000000
    63  Na    c    -2.188409    6.594312    0.000000    0.000000    1.000000
    64  Na    c    -2.188409   -2.188409    0.000000    0.000000    1.000000
    65  O     c     2.202951    2.202951    6.663158    0.000000    0.183000
    66  O     c     2.202951    2.202951   -6.663158    0.000000    0.183000
    67  O     c     6.612903    6.612903   -2.211066    0.000000    0.183000
    68  O     c     6.612903    6.612903    2.211066    0.000000    0.183000
    69  O     c     6.612903   -2.207001   -2.211066    0.000000    0.183000
    70  O     c     6.612903   -2.207001    2.211066    0.000000    0.183000
    71  O     c    -2.207001    6.612903   -2.211066    0.000000    0.183000
    72  O     c    -2.207001    6.612903    2.211066    0.000000    0.183000
    73  O     c    -2.207001   -2.207001   -2.211066    0.000000    0.183000
    74  O     c    -2.207001   -2.207001    2.211066    0.000000    0.183000
    75  Cl    c     4.409653    8.831768    0.000000    0.000000    1.485000
    76  Cl    c     4.409653   -4.425866    0.000000    0.000000    1.485000
    77  Cl    c     8.831768    4.409653    0.000000    0.000000    1.485000
    78  Cl    c     8.831768   -0.003751    0.000000    0.000000    1.485000
    79  Cl    c    -0.003751    8.831768    0.000000    0.000000    1.485000
    80  Cl    c    -0.003751   -4.425866    0.000000    0.000000    1.485000
    81  Cl    c    -4.425866    4.409653    0.000000    0.000000    1.485000
    82  Cl    c    -4.425866   -0.003751    0.000000    0.000000    1.485000
    83  Na    c     4.400071    2.202951    6.665364    0.000000    1.000000
    84  Na    c     4.400071    2.202951   -6.665364    0.000000    1.000000
    85  Na    c     0.005831    2.202951    6.665364    0.000000    1.000000
    86  Na    c     0.005831    2.202951   -6.665364    0.000000    1.000000
    87  Na    c     2.202951    4.400071    6.665364    0.000000    1.000000
    88  Na    c     2.202951    4.400071   -6.665364    0.000000    1.000000
    89  Na    c     2.202951    0.005831    6.665364    0.000000    1.000000
    90  Na    c     2.202951    0.005831   -6.665364    0.000000    1.000000
    91  Na    c     8.784805    2.202951   -2.332641    0.000000    1.000000
    92  Na    c     8.784805    2.202951    2.332641    0.000000    1.000000
    93  Na    c    -4.378903    2.202951   -2.332641    0.000000    1.000000
    94  Na    c    -4.378903    2.202951    2.332641    0.000000    1.000000
    95  Na    c     2.202951    8.784805   -2.332641    0.000000    1.000000
    96  Na    c     2.202951    8.784805    2.332641    0.000000    1.000000
    97  Na    c     2.202951   -4.378903   -2.332641    0.000000    1.000000
    98  Na    c     2.202951   -4.378903    2.332641    0.000000    1.000000
    99  Na    c     6.597954    6.597954    4.410430    0.000000    1.000000
   100  Na    c     6.597954    6.597954   -4.410430    0.000000    1.000000
   101  Na    c     6.597954   -2.192051    4.410430    0.000000    1.000000
   102  Na    c     6.597954   -2.192051   -4.410430    0.000000    1.000000
   103  Na    c    -2.192051    6.597954    4.410430    0.000000    1.000000
   104  Na    c    -2.192051    6.597954   -4.410430    0.000000    1.000000
   105  Na    c    -2.192051   -2.192051    4.410430    0.000000    1.000000
   106  Na    c    -2.192051   -2.192051   -4.410430    0.000000    1.000000
   107  O     c     2.202951    6.598580    6.601131    0.000000    0.183000
   108  O     c     2.202951    6.598580   -6.601131    0.000000    0.183000
   109  O     c     2.202951   -2.192677    6.601131    0.000000    0.183000
   110  O     c     2.202951   -2.192677   -6.601131    0.000000    0.183000
   111  O     c     6.598580    2.202951    6.601131    0.000000    0.183000
   112  O     c     6.598580    2.202951   -6.601131    0.000000    0.183000
   113  O     c    -2.192677    2.202951    6.601131    0.000000    0.183000
   114  O     c    -2.192677    2.202951   -6.601131    0.000000    0.183000
   115  Cl    c     4.414840    8.834014    4.408404    0.000000    1.485000
   116  Cl    c     4.414840    8.834014   -4.408404    0.000000    1.485000
   117  Cl    c     4.414840   -4.428112    4.408404    0.000000    1.485000
   118  Cl    c     4.414840   -4.428112   -4.408404    0.000000    1.485000
   119  Cl    c     8.834014    4.414840    4.408404    0.000000    1.485000
   120  Cl    c     8.834014    4.414840   -4.408404    0.000000    1.485000
   121  Cl    c     8.834014   -0.008938    4.408404    0.000000    1.485000
   122  Cl    c     8.834014   -0.008938   -4.408404    0.000000    1.485000
   123  Cl    c    -0.008938    8.834014    4.408404    0.000000    1.485000
   124  Cl    c    -0.008938    8.834014   -4.408404    0.000000    1.485000
   125  Cl    c    -0.008938   -4.428112    4.408404    0.000000    1.485000
   126  Cl    c    -0.008938   -4.428112   -4.408404    0.000000    1.485000
   127  Cl    c    -4.428112    4.414840    4.408404    0.000000    1.485000
   128  Cl    c    -4.428112    4.414840   -4.408404    0.000000    1.485000
   129  Cl    c    -4.428112   -0.008938    4.408404    0.000000    1.485000
   130  Cl    c    -4.428112   -0.008938   -4.408404    0.000000    1.485000
   131  Na    c     4.408469    6.598549    6.583385    0.000000    1.000000
   132  Na    c     4.408469    6.598549   -6.583385    0.000000    1.000000
   133  Na    c     4.408469   -2.192647    6.583385    0.000000    1.000000
   134  Na    c     4.408469   -2.192647   -6.583385    0.000000    1.000000
   135  Na    c    -0.002566    6.598549    6.583385    0.000000    1.000000
   136  Na    c    -0.002566    6.598549   -6.583385    0.000000    1.000000
   137  Na    c    -0.002566   -2.192647    6.583385    0.000000    1.000000
   138  Na    c    -0.002566   -2.192647   -6.583385    0.000000    1.000000
   139  Na    c     6.598549    4.408469    6.583385    0.000000    1.000000
   140  Na    c     6.598549    4.408469   -6.583385    0.000000    1.000000
   141  Na    c     6.598549   -0.002566    6.583385    0.000000    1.000000
   142  Na    c     6.598549   -0.002566   -6.583385    0.000000    1.000000
   143  Na    c    -2.192647    4.408469    6.583385    0.000000    1.000000
   144  Na    c    -2.192647    4.408469   -6.583385    0.000000    1.000000
   145  Na    c    -2.192647   -0.002566    6.583385    0.000000    1.000000
   146  Na    c    -2.192647   -0.002566   -6.583385    0.000000    1.000000
   147  Na    c     8.805738    6.597375   -2.205905    0.000000    1.000000
   148  Na    c     8.805738    6.597375    2.205905    0.000000    1.000000
   149  Na    c     8.805738   -2.191472   -2.205905    0.000000    1.000000
   150  Na    c     8.805738   -2.191472    2.205905    0.000000    1.000000
   151  Na    c    -4.399836    6.597375   -2.205905    0.000000    1.000000
   152  Na    c    -4.399836    6.597375    2.205905    0.000000    1.000000
   153  Na    c    -4.399836   -2.191472   -2.205905    0.000000    1.000000
   154  Na    c    -4.399836   -2.191472    2.205905    0.000000    1.000000
   155  Na    c     6.597375    8.805738   -2.205905    0.000000    1.000000
   156  Na    c     6.597375    8.805738    2.205905    0.000000    1.000000
   157  Na    c     6.597375   -4.399836   -2.205905    0.000000    1.000000
   158  Na    c     6.597375   -4.399836    2.205905    0.000000    1.000000
   159  Na    c    -2.191472    8.805738   -2.205905    0.000000    1.000000
   160  Na    c    -2.191472    8.805738    2.205905    0.000000    1.000000
   161  Na    c    -2.191472   -4.399836   -2.205905    0.000000    1.000000
   162  Na    c    -2.191472   -4.399836    2.205905    0.000000    1.000000
   163  Na    c     2.202951    2.202951    8.843687    0.000000    1.000000
   164  Na    c     2.202951    2.202951   -8.843687    0.000000    1.000000
   165  Na    c     2.202951   10.882479    0.000000    0.000000    1.000000
   166  Na    c     2.202951   -6.476577    0.000000    0.000000    1.000000
   167  Na    c    10.882479    2.202951    0.000000    0.000000    1.000000
   168  Na    c    -6.476577    2.202951    0.000000    0.000000    1.000000
   169  O     c     6.620270    6.620270    6.619092    0.000000    0.183000
   170  O     c     6.620270    6.620270   -6.619092    0.000000    0.183000
   171  O     c     6.620270   -2.214368    6.619092    0.000000    0.183000
   172  O     c     6.620270   -2.214368   -6.619092    0.000000    0.183000
   173  O     c    -2.214368    6.620270    6.619092    0.000000    0.183000
   174  O     c    -2.214368    6.620270   -6.619092    0.000000    0.183000
   175  O     c    -2.214368   -2.214368    6.619092    0.000000    0.183000
   176  O     c    -2.214368   -2.214368   -6.619092    0.000000    0.183000
   177  O     c     2.202951   11.001025   -2.205934    0.000000    0.183000
   178  O     c     2.202951   11.001025    2.205934    0.000000    0.183000
   179  O     c     2.202951   -6.595122   -2.205934    0.000000    0.183000
   180  O     c     2.202951   -6.595122    2.205934    0.000000    0.183000
   181  O     c    11.001025    2.202951   -2.205934    0.000000    0.183000
   182  O     c    11.001025    2.202951    2.205934    0.000000    0.183000
   183  O     c    -6.595122    2.202951   -2.205934    0.000000    0.183000
   184  O     c    -6.595122    2.202951    2.205934    0.000000    0.183000
   185  Cl    c     4.407441    4.407441    8.841899    0.000000    1.485000
   186  Cl    c     4.407441    4.407441   -8.841899    0.000000    1.485000
   187  Cl    c     4.407441   -0.001539    8.841899    0.000000    1.485000
   188  Cl    c     4.407441   -0.001539   -8.841899    0.000000    1.485000
   189  Cl    c    -0.001539    4.407441    8.841899    0.000000    1.485000
   190  Cl    c    -0.001539    4.407441   -8.841899    0.000000    1.485000
   191  Cl    c    -0.001539   -0.001539    8.841899    0.000000    1.485000
   192  Cl    c    -0.001539   -0.001539   -8.841899    0.000000    1.485000
   193  Cl    c     8.823808    8.823808    0.000000    0.000000    1.485000
   194  Cl    c     8.823808   -4.417906    0.000000    0.000000    1.485000
   195  Cl    c    -4.417906    8.823808    0.000000    0.000000    1.485000
   196  Cl    c    -4.417906   -4.417906    0.000000    0.000000    1.485000
   197  Na    c     8.795390    2.202951    6.492930    0.000000    1.000000
   198  Na    c     8.795390    2.202951   -6.492930    0.000000    1.000000
   199  Na    c    -4.389488    2.202951    6.492930    0.000000    1.000000
   200  Na    c    -4.389488    2.202951   -6.492930    0.000000    1.000000
   201  Na    c     2.202951    8.795390    6.492930    0.000000    1.000000
   202  Na    c     2.202951    8.795390   -6.492930    0.000000    1.000000
   203  Na    c     2.202951   -4.389488    6.492930    0.000000    1.000000
   204  Na    c     2.202951   -4.389488   -6.492930    0.000000    1.000000
   205  Na    c     4.403722   10.994509   -2.193364    0.000000    1.000000
   206  Na    c     4.403722   10.994509    2.193364    0.000000    1.000000
   207  Na    c     4.403722   -6.588607   -2.193364    0.000000    1.000000
   208  Na    c     4.403722   -6.588607    2.193364    0.000000    1.000000
   209  Na    c     0.002180   10.994509   -2.193364    0.000000    1.000000
   210  Na    c     0.002180   10.994509    2.193364    0.000000    1.000000
   211  Na    c     0.002180   -6.588607   -2.193364    0.000000    1.000000
   212  Na    c     0.002180   -6.588607    2.193364    0.000000    1.000000
   213  Na    c    10.994509    4.403722   -2.193364    0.000000    1.000000
   214  Na    c    10.994509    4.403722    2.193364    0.000000    1.000000
   215  Na    c    10.994509    0.002180   -2.193364    0.000000    1.000000
   216  Na    c    10.994509    0.002180    2.193364    0.000000    1.000000
   217  Na    c    -6.588607    4.403722   -2.193364    0.000000    1.000000
   218  Na    c    -6.588607    4.403722    2.193364    0.000000    1.000000
   219  Na    c    -6.588607    0.002180   -2.193364    0.000000    1.000000
   220  Na    c    -6.588607    0.002180    2.193364    0.000000    1.000000
   221  Na    c     2.202951    6.656614    8.802700    0.000000    1.000000
   222  Na    c     2.202951    6.656614   -8.802700    0.000000    1.000000
   223  Na    c     2.202951   -2.250711    8.802700    0.000000    1.000000
   224  Na    c     2.202951   -2.250711   -8.802700    0.000000    1.000000
   225  Na    c     6.656614    2.202951    8.802700    0.000000    1.000000
   226  Na    c     6.656614    2.202951   -8.802700    0.000000    1.000000
   227  Na    c    -2.250711    2.202951    8.802700    0.000000    1.000000
   228  Na    c    -2.250711    2.202951   -8.802700    0.000000    1.000000
   229  Na    c     2.202951   11.088128    4.402536    0.000000    1.000000
   230  Na    c     2.202951   11.088128   -4.402536    0.000000    1.000000
   231  Na    c     2.202951   -6.682225    4.402536    0.000000    1.000000
   232  Na    c     2.202951   -6.682225   -4.402536    0.000000    1.000000
   233  Na    c    11.088128    2.202951    4.402536    0.000000    1.000000
   234  Na    c    11.088128    2.202951   -4.402536    0.000000    1.000000
   235  Na    c    -6.682225    2.202951    4.402536    0.000000    1.000000
   236  Na    c    -6.682225    2.202951   -4.402536    0.000000    1.000000
   237  Na    c     6.611216   11.001351    0.000000    0.000000    1.000000
   238  Na    c     6.611216   -6.595449    0.000000    0.000000    1.000000
   239  Na    c    11.001351    6.611216    0.000000    0.000000    1.000000
   240  Na    c    11.001351   -2.205314    0.000000    0.000000    1.000000
   241  Na    c    -2.205314   11.001351    0.000000    0.000000    1.000000
   242  Na    c    -2.205314   -6.595449    0.000000    0.000000    1.000000
   243  Na    c    -6.595449    6.611216    0.000000    0.000000    1.000000
   244  Na    c    -6.595449   -2.205314    0.000000    0.000000    1.000000
   245  O     c     6.609200   11.014432   -2.202587    0.000000    0.183000
   246  O     c     6.609200   11.014432    2.202587    0.000000    0.183000
   247  O     c     6.609200   -6.608529   -2.202587    0.000000    0.183000
   248  O     c     6.609200   -6.608529    2.202587    0.000000    0.183000
   249  O     c    11.014432    6.609200   -2.202587    0.000000    0.183000
   250  O     c    11.014432    6.609200    2.202587    0.000000    0.183000
   251  O     c    11.014432   -2.203298   -2.202587    0.000000    0.183000
   252  O     c    11.014432   -2.203298    2.202587    0.000000    0.183000
   253  O     c    -2.203298   11.014432   -2.202587    0.000000    0.183000
   254  O     c    -2.203298   11.014432    2.202587    0.000000    0.183000
   255  O     c    -2.203298   -6.608529   -2.202587    0.000000    0.183000
   256  O     c    -2.203298   -6.608529    2.202587    0.000000    0.183000
   257  O     c    -6.608529    6.609200   -2.202587    0.000000    0.183000
   258  O     c    -6.608529    6.609200    2.202587    0.000000    0.183000
   259  O     c    -6.608529   -2.203298   -2.202587    0.000000    0.183000
   260  O     c    -6.608529   -2.203298    2.202587    0.000000    0.183000
   261  Cl    c     8.826158    8.826158    4.414098    0.000000    1.485000
   262  Cl    c     8.826158    8.826158   -4.414098    0.000000    1.485000
   263  Cl    c     8.826158   -4.420256    4.414098    0.000000    1.485000
   264  Cl    c     8.826158   -4.420256   -4.414098    0.000000    1.485000
   265  Cl    c    -4.420256    8.826158    4.414098    0.000000    1.485000
   266  Cl    c    -4.420256    8.826158   -4.414098    0.000000    1.485000
   267  Cl    c    -4.420256   -4.420256    4.414098    0.000000    1.485000
   268  Cl    c    -4.420256   -4.420256   -4.414098    0.000000    1.485000
   269  Na    c     8.813413    6.610254    6.608916    0.000000    1.000000
   270  Na    c     8.813413    6.610254   -6.608916    0.000000    1.000000
   271  Na    c     8.813413   -2.204352    6.608916    0.000000    1.000000
   272  Na    c     8.813413   -2.204352   -6.608916    0.000000    1.000000
   273  Na    c    -4.407511    6.610254    6.608916    0.000000    1.000000
   274  Na    c    -4.407511    6.610254   -6.608916    0.000000    1.000000
   275  Na    c    -4.407511   -2.204352    6.608916    0.000000    1.000000
   276  Na    c    -4.407511   -2.204352   -6.608916    0.000000    1.000000
   277  Na    c     6.610254    8.813413    6.608916    0.000000    1.000000
   278  Na    c     6.610254    8.813413   -6.608916    0.000000    1.000000
   279  Na    c     6.610254   -4.407511    6.608916    0.000000    1.000000
   280  Na    c     6.610254   -4.407511   -6.608916    0.000000    1.000000
   281  Na    c    -2.204352    8.813413    6.608916    0.000000    1.000000
   282  Na    c    -2.204352    8.813413   -6.608916    0.000000    1.000000
   283  Na    c    -2.204352   -4.407511    6.608916    0.000000    1.000000
   284  Na    c    -2.204352   -4.407511   -6.608916    0.000000    1.000000
   285  Na    c     6.598872   11.009646    4.405263    0.000000    1.000000
   286  Na    c     6.598872   11.009646   -4.405263    0.000000    1.000000
   287  Na    c     6.598872   -6.603744    4.405263    0.000000    1.000000
   288  Na    c     6.598872   -6.603744   -4.405263    0.000000    1.000000
   289  Na    c    11.009646    6.598872    4.405263    0.000000    1.000000
   290  Na    c    11.009646    6.598872   -4.405263    0.000000    1.000000
   291  Na    c    11.009646   -2.192970    4.405263    0.000000    1.000000
   292  Na    c    11.009646   -2.192970   -4.405263    0.000000    1.000000
   293  Na    c    -2.192970   11.009646    4.405263    0.000000    1.000000
   294  Na    c    -2.192970   11.009646   -4.405263    0.000000    1.000000
   295  Na    c    -2.192970   -6.603744    4.405263    0.000000    1.000000
   296  Na    c    -2.192970   -6.603744   -4.405263    0.000000    1.000000
   297  Na    c    -6.603744    6.598872    4.405263    0.000000    1.000000
   298  Na    c    -6.603744    6.598872   -4.405263    0.000000    1.000000
   299  Na    c    -6.603744   -2.192970    4.405263    0.000000    1.000000
   300  Na    c    -6.603744   -2.192970   -4.405263    0.000000    1.000000
   301  Na    c     6.605924    6.605924    8.811311    0.000000    1.000000
   302  Na    c     6.605924    6.605924   -8.811311    0.000000    1.000000
   303  Na    c     6.605924   -2.200022    8.811311    0.000000    1.000000
   304  Na    c     6.605924   -2.200022   -8.811311    0.000000    1.000000
   305  Na    c    -2.200022    6.605924    8.811311    0.000000    1.000000
   306  Na    c    -2.200022    6.605924   -8.811311    0.000000    1.000000
   307  Na    c    -2.200022   -2.200022    8.811311    0.000000    1.000000
   308  Na    c    -2.200022   -2.200022   -8.811311    0.000000    1.000000
   309  O     c     2.202951    2.202951   11.027660    0.000000    0.183000
   310  O     c     2.202951    2.202951  -11.027660    0.000000    0.183000
   311  O     c     2.202951   11.011443    6.602985    0.000000    0.183000
   312  O     c     2.202951   11.011443   -6.602985    0.000000    0.183000
   313  O     c     2.202951   -6.605540    6.602985    0.000000    0.183000
   314  O     c     2.202951   -6.605540   -6.602985    0.000000    0.183000
   315  O     c    11.011443    2.202951    6.602985    0.000000    0.183000
   316  O     c    11.011443    2.202951   -6.602985    0.000000    0.183000
   317  O     c    -6.605540    2.202951    6.602985    0.000000    0.183000
   318  O     c    -6.605540    2.202951   -6.602985    0.000000    0.183000
   319  Cl    c     4.411086    8.820413    8.824286    0.000000    1.485000
   320  Cl    c     4.411086    8.820413   -8.824286    0.000000    1.485000
   321  Cl    c     4.411086   -4.414510    8.824286    0.000000    1.485000
   322  Cl    c     4.411086   -4.414510   -8.824286    0.000000    1.485000
   323  Cl    c     8.820413    4.411086    8.824286    0.000000    1.485000
   324  Cl    c     8.820413    4.411086   -8.824286    0.000000    1.485000
   325  Cl    c     8.820413   -0.005184    8.824286    0.000000    1.485000
   326  Cl    c     8.820413   -0.005184   -8.824286    0.000000    1.485000
   327  Cl    c    -0.005184    8.820413    8.824286    0.000000    1.485000
   328  Cl    c    -0.005184    8.820413   -8.824286    0.000000    1.485000
   329  Cl    c    -0.005184   -4.414510    8.824286    0.000000    1.485000
   330  Cl    c    -0.005184   -4.414510   -8.824286    0.000000    1.485000
   331  Cl    c    -4.414510    4.411086    8.824286    0.000000    1.485000
   332  Cl    c    -4.414510    4.411086   -8.824286    0.000000    1.485000
   333  Cl    c    -4.414510   -0.005184    8.824286    0.000000    1.485000
   334  Cl    c    -4.414510   -0.005184   -8.824286    0.000000    1.485000
   335  Cl    c     4.408847   13.227178    0.000000    0.000000    1.485000
   336  Cl    c     4.408847   -8.821276    0.000000    0.000000    1.485000
   337  Cl    c    13.227178    4.408847    0.000000    0.000000    1.485000
   338  Cl    c    13.227178   -0.002944    0.000000    0.000000    1.485000
   339  Cl    c    -0.002944   13.227178    0.000000    0.000000    1.485000
   340  Cl    c    -0.002944   -8.821276    0.000000    0.000000    1.485000
   341  Cl    c    -8.821276    4.408847    0.000000    0.000000    1.485000
   342  Cl    c    -8.821276   -0.002944    0.000000    0.000000    1.485000
   343  Na    c     4.410781    2.202951   11.004212    0.000000    1.000000
   344  Na    c     4.410781    2.202951  -11.004212    0.000000    1.000000
   345  Na    c    -0.004879    2.202951   11.004212    0.000000    1.000000
   346  Na    c    -0.004879    2.202951  -11.004212    0.000000    1.000000
   347  Na    c     2.202951    4.410781   11.004212    0.000000    1.000000
   348  Na    c     2.202951    4.410781  -11.004212    0.000000    1.000000
   349  Na    c     2.202951   -0.004879   11.004212    0.000000    1.000000
   350  Na    c     2.202951   -0.004879  -11.004212    0.000000    1.000000
   351  Na    c     4.404325   10.999927    6.605934    0.000000    1.000000
   352  Na    c     4.404325   10.999927   -6.605934    0.000000    1.000000
   353  Na    c     4.404325   -6.594025    6.605934    0.000000    1.000000
   354  Na    c     4.404325   -6.594025   -6.605934    0.000000    1.000000
   355  Na    c     0.001577   10.999927    6.605934    0.000000    1.000000
   356  Na    c     0.001577   10.999927   -6.605934    0.000000    1.000000
   357  Na    c     0.001577   -6.594025    6.605934    0.000000    1.000000
   358  Na    c     0.001577   -6.594025   -6.605934    0.000000    1.000000
   359  Na    c    10.999927    4.404325    6.605934    0.000000    1.000000
   360  Na    c    10.999927    4.404325   -6.605934    0.000000    1.000000
   361  Na    c    10.999927    0.001577    6.605934    0.000000    1.000000
   362  Na    c    10.999927    0.001577   -6.605934    0.000000    1.000000
   363  Na    c    -6.594025    4.404325    6.605934    0.000000    1.000000
   364  Na    c    -6.594025    4.404325   -6.605934    0.000000    1.000000
   365  Na    c    -6.594025    0.001577    6.605934    0.000000    1.000000
   366  Na    c    -6.594025    0.001577   -6.605934    0.000000    1.000000
   367  Na    c    13.205762    2.202951   -2.126588    0.000000    1.000000
   368  Na    c    13.205762    2.202951    2.126588    0.000000    1.000000
   369  Na    c    -8.799859    2.202951   -2.126588    0.000000    1.000000
   370  Na    c    -8.799859    2.202951    2.126588    0.000000    1.000000
   371  Na    c     2.202951   13.205762   -2.126588    0.000000    1.000000
   372  Na    c     2.202951   13.205762    2.126588    0.000000    1.000000
   373  Na    c     2.202951   -8.799859   -2.126588    0.000000    1.000000
   374  Na    c     2.202951   -8.799859    2.126588    0.000000    1.000000
   375  Na    c     8.809482   11.005242   -2.205328    0.000000    1.000000
   376  Na    c     8.809482   11.005242    2.205328    0.000000    1.000000
   377  Na    c     8.809482   -6.599340   -2.205328    0.000000    1.000000
   378  Na    c     8.809482   -6.599340    2.205328    0.000000    1.000000
   379  Na    c    -4.403580   11.005242   -2.205328    0.000000    1.000000
   380  Na    c    -4.403580   11.005242    2.205328    0.000000    1.000000
   381  Na    c    -4.403580   -6.599340   -2.205328    0.000000    1.000000
   382  Na    c    -4.403580   -6.599340    2.205328    0.000000    1.000000
   383  Na    c    11.005242    8.809482   -2.205328    0.000000    1.000000
   384  Na    c    11.005242    8.809482    2.205328    0.000000    1.000000
   385  Na    c    11.005242   -4.403580   -2.205328    0.000000    1.000000
   386  Na    c    11.005242   -4.403580    2.205328    0.000000    1.000000
   387  Na    c    -6.599340    8.809482   -2.205328    0.000000    1.000000
   388  Na    c    -6.599340    8.809482    2.205328    0.000000    1.000000
   389  Na    c    -6.599340   -4.403580   -2.205328    0.000000    1.000000
   390  Na    c    -6.599340   -4.403580    2.205328    0.000000    1.000000
   391  O     c     2.202951    6.615049   11.016269    0.000000    0.183000
   392  O     c     2.202951    6.615049  -11.016269    0.000000    0.183000
   393  O     c     2.202951   -2.209147   11.016269    0.000000    0.183000
   394  O     c     2.202951   -2.209147  -11.016269    0.000000    0.183000
   395  O     c     6.615049    2.202951   11.016269    0.000000    0.183000
   396  O     c     6.615049    2.202951  -11.016269    0.000000    0.183000
   397  O     c    -2.209147    2.202951   11.016269    0.000000    0.183000
   398  O     c    -2.209147    2.202951  -11.016269    0.000000    0.183000
   399  O     c     6.609283   11.017805    6.611542    0.000000    0.183000
   400  O     c     6.609283   11.017805   -6.611542    0.000000    0.183000
   401  O     c     6.609283   -6.611902    6.611542    0.000000    0.183000
   402  O     c     6.609283   -6.611902   -6.611542    0.000000    0.183000
   403  O     c    11.017805    6.609283    6.611542    0.000000    0.183000
   404  O     c    11.017805    6.609283   -6.611542    0.000000    0.183000
   405  O     c    11.017805   -2.203381    6.611542    0.000000    0.183000
   406  O     c    11.017805   -2.203381   -6.611542    0.000000    0.183000
   407  O     c    -2.203381   11.017805    6.611542    0.000000    0.183000
   408  O     c    -2.203381   11.017805   -6.611542    0.000000    0.183000
   409  O     c    -2.203381   -6.611902    6.611542    0.000000    0.183000
   410  O     c    -2.203381   -6.611902   -6.611542    0.000000    0.183000
   411  O     c    -6.611902    6.609283    6.611542    0.000000    0.183000
   412  O     c    -6.611902    6.609283   -6.611542    0.000000    0.183000
   413  O     c    -6.611902   -2.203381    6.611542    0.000000    0.183000
   414  O     c    -6.611902   -2.203381   -6.611542    0.000000    0.183000
   415  Cl    c     4.407801   13.226994    4.409995    0.000000    1.485000
   416  Cl    c     4.407801   13.226994   -4.409995    0.000000    1.485000
   417  Cl    c     4.407801   -8.821092    4.409995    0.000000    1.485000
   418  Cl    c     4.407801   -8.821092   -4.409995    0.000000    1.485000
   419  Cl    c    13.226994    4.407801    4.409995    0.000000    1.485000
   420  Cl    c    13.226994    4.407801   -4.409995    0.000000    1.485000
   421  Cl    c    13.226994   -0.001898    4.409995    0.000000    1.485000
   422  Cl    c    13.226994   -0.001898   -4.409995    0.000000    1.485000
   423  Cl    c    -0.001898   13.226994    4.409995    0.000000    1.485000
   424  Cl    c    -0.001898   13.226994   -4.409995    0.000000    1.485000
   425  Cl    c    -0.001898   -8.821092    4.409995    0.000000    1.485000
   426  Cl    c    -0.001898   -8.821092   -4.409995    0.000000    1.485000
   427  Cl    c    -8.821092    4.407801    4.409995    0.000000    1.485000
   428  Cl    c    -8.821092    4.407801   -4.409995    0.000000    1.485000
   429  Cl    c    -8.821092   -0.001898    4.409995    0.000000    1.485000
   430  Cl    c    -8.821092   -0.001898   -4.409995    0.000000    1.485000
   431  Na    c     4.405051    6.604187   11.003257    0.000000    1.000000
   432  Na    c     4.405051    6.604187  -11.003257    0.000000    1.000000
   433  Na    c     4.405051   -2.198285   11.003257    0.000000    1.000000
   434  Na    c     4.405051   -2.198285  -11.003257    0.000000    1.000000
   435  Na    c     0.000851    6.604187   11.003257    0.000000    1.000000
   436  Na    c     0.000851    6.604187  -11.003257    0.000000    1.000000
   437  Na    c     0.000851   -2.198285   11.003257    0.000000    1.000000
   438  Na    c     0.000851   -2.198285  -11.003257    0.000000    1.000000
   439  Na    c     6.604187    4.405051   11.003257    0.000000    1.000000
   440  Na    c     6.604187    4.405051  -11.003257    0.000000    1.000000
   441  Na    c     6.604187    0.000851   11.003257    0.000000    1.000000
   442  Na    c     6.604187    0.000851  -11.003257    0.000000    1.000000
   443  Na    c    -2.198285    4.405051   11.003257    0.000000    1.000000
   444  Na    c    -2.198285    4.405051  -11.003257    0.000000    1.000000
   445  Na    c    -2.198285    0.000851   11.003257    0.000000    1.000000
   446  Na    c    -2.198285    0.000851  -11.003257    0.000000    1.000000
   447  Na    c    13.213947    6.603131   -2.198827    0.000000    1.000000
   448  Na    c    13.213947    6.603131    2.198827    0.000000    1.000000
   449  Na    c    13.213947   -2.197229   -2.198827    0.000000    1.000000
   450  Na    c    13.213947   -2.197229    2.198827    0.000000    1.000000
[...]
     59 y          2.202951      2.202951     0.000000    Cartesian    0.00
     59 z         13.217707     13.217686    -0.000021    Cartesian   -0.00
     60 x          2.202951      2.202951     0.000000    Cartesian    0.00
     60 y         15.420658     15.455277     0.034619    Cartesian    0.22
     60 z          0.000000      0.000000     0.000000    Cartesian    0.00
     61 x          6.608853      6.606017    -0.002836    Cartesian   -0.04
     61 y         11.014756     11.012678    -0.002077    Cartesian   -0.02
     61 z          8.811805      8.812015     0.000210    Cartesian    0.00
     62 x         11.014756     11.010099    -0.004657    Cartesian   -0.04
     62 y         11.014756     11.010099    -0.004657    Cartesian   -0.04
     62 z          4.405902      4.405493    -0.000409    Cartesian   -0.01
     63 x          2.202951      2.202951     0.000000    Cartesian    0.00
     63 y         15.420658     15.416734    -0.003924    Cartesian   -0.03
     63 z         -2.202951     -2.198309     0.004642    Cartesian   -0.21
     64 x          8.811805      8.815290     0.003485    Cartesian    0.04
     64 y         13.217707     13.225588     0.007881    Cartesian    0.06
     64 z          4.405902      4.409222     0.003320    Cartesian    0.08
     65 x          4.405902      4.404890    -0.001012    Cartesian   -0.02
     65 y         15.420658     15.411251    -0.009407    Cartesian   -0.06
     65 z         -2.202951     -2.210103    -0.007152    Cartesian    0.32
     66 x          4.405902      4.408107     0.002204    Cartesian    0.05
     66 y          4.405902      4.408107     0.002204    Cartesian    0.05
     66 z         13.217707     13.229288     0.011582    Cartesian    0.09
     67 x          8.811805      8.811088    -0.000716    Cartesian   -0.01
     67 y          6.608853      6.605304    -0.003550    Cartesian   -0.05
     67 z         11.014756     11.012700    -0.002055    Cartesian   -0.02
     68 x         13.217707     13.217922     0.000216    Cartesian    0.00
     68 y          6.608853      6.604428    -0.004425    Cartesian   -0.07
     68 z          6.608853      6.608349    -0.000505    Cartesian   -0.01
     69 x          2.202951      2.202951     0.000000    Cartesian    0.00
     69 y          6.608853      6.602774    -0.006079    Cartesian   -0.09
     69 z         13.217707     13.217359    -0.000348    Cartesian   -0.00
     70 x          2.202951      2.202951     0.000000    Cartesian    0.00
     70 y         15.420658     15.377746    -0.042912    Cartesian   -0.28
     70 z          4.405902      4.404910    -0.000992    Cartesian   -0.02
     71 x          6.608853      6.601241    -0.007612    Cartesian   -0.12
     71 y         15.420658     15.417605    -0.003053    Cartesian   -0.02
     71 z          0.000000      0.000000     0.000000    Cartesian    0.00
     72 x          6.608853      6.608150    -0.000703    Cartesian   -0.01
     72 y         15.420658     15.420802     0.000144    Cartesian    0.00
     72 z         -2.202951     -2.203309    -0.000357    Cartesian    0.02
     73 x          2.202951      2.202951     0.000000    Cartesian    0.00
     73 y         11.014756     11.010167    -0.004588    Cartesian   -0.04
     73 z         11.014756     11.013114    -0.001642    Cartesian   -0.01
     74 x         11.014756     11.015065     0.000309    Cartesian    0.00
     74 y         11.014756     11.015065     0.000309    Cartesian    0.00
     74 z          6.608853      6.609170     0.000317    Cartesian    0.00
     75 x          4.405902      4.406738     0.000836    Cartesian    0.02
     75 y         13.217707     13.225774     0.008068    Cartesian    0.06
     75 z          8.811805      8.815385     0.003580    Cartesian    0.04
     76 x          4.405902      4.405469    -0.000434    Cartesian   -0.01
     76 y         11.014756     11.013633    -0.001123    Cartesian   -0.01
     76 z         11.014756     11.007697    -0.007058    Cartesian   -0.06
     77 x         13.217707     13.215207    -0.002500    Cartesian   -0.02
     77 y         11.014756     11.010942    -0.003814    Cartesian   -0.03
     77 z         -2.202951     -2.204683    -0.001732    Cartesian    0.08
     78 x          6.608853      6.611508     0.002655    Cartesian    0.04
     78 y         15.420658     15.414860    -0.005798    Cartesian   -0.04
     78 z          4.405902      4.405420    -0.000482    Cartesian   -0.01
     79 x          6.608853      6.604524    -0.004330    Cartesian   -0.07
     79 y          6.608853      6.604524    -0.004330    Cartesian   -0.07
     79 z         13.217707     13.215891    -0.001816    Cartesian   -0.01
     80 x          6.608853      6.609349     0.000496    Cartesian    0.01
     80 y         11.014756     11.017063     0.002307    Cartesian    0.02
     80 z         11.014756     11.016347     0.001591    Cartesian    0.01
     81 x          2.202951      2.202951     0.000000    Cartesian    0.00
     81 y         15.420658     15.418876    -0.001782    Cartesian   -0.01
     81 z          6.608853      6.613188     0.004334    Cartesian    0.07
     82 x          4.405902      4.406068     0.000166    Cartesian    0.00
     82 y          8.811805      8.817148     0.005343    Cartesian    0.06
     82 z         13.217707     13.229256     0.011549    Cartesian    0.09
     83 x          4.405902      4.405527    -0.000375    Cartesian   -0.01
     83 y         15.420658     15.416770    -0.003888    Cartesian   -0.03
     83 z          6.608853      6.601377    -0.007477    Cartesian   -0.11
     84 x          8.811805      8.809921    -0.001884    Cartesian   -0.02
     84 y         15.420658     15.412412    -0.008246    Cartesian   -0.05
     84 z         -2.202951     -2.199837     0.003114    Cartesian   -0.14
     85 x         11.014756     11.010900    -0.003856    Cartesian   -0.04
     85 y         11.014756     11.010900    -0.003856    Cartesian   -0.04
     85 z          8.811805      8.810116    -0.001689    Cartesian   -0.02
     86 x          2.202951      2.202951     0.000000    Cartesian    0.00
     86 y          2.202951      2.202951     0.000000    Cartesian    0.00
     86 z         15.420658     15.423613     0.002955    Cartesian    0.02
     87 x          6.608853      6.610399     0.001545    Cartesian    0.02
     87 y         15.420658     15.424541     0.003883    Cartesian    0.03
     87 z          6.608853      6.610052     0.001199    Cartesian    0.02
     88 x          4.405902      4.407219     0.001317    Cartesian    0.03
     88 y         17.623609     17.636711     0.013102    Cartesian    0.07
     88 z          0.000000      0.000000     0.000000    Cartesian    0.00
     89 x          8.811805      8.816610     0.004806    Cartesian    0.05
     89 y         13.217707     13.228459     0.010752    Cartesian    0.08
     89 z          8.811805      8.818300     0.006496    Cartesian    0.07
     90 x         13.217707     13.226727     0.009020    Cartesian    0.07
     90 y         13.217707     13.226727     0.009020    Cartesian    0.07
     90 z          0.000000      0.000000     0.000000    Cartesian    0.00
     91 x          4.405902      4.405120    -0.000783    Cartesian   -0.02
     91 y          2.202951      2.202951     0.000000    Cartesian    0.00
     91 z         15.420658     15.412541    -0.008117    Cartesian   -0.05
     92 x         13.217707     13.211712    -0.005995    Cartesian   -0.05
     92 y          2.202951      2.202951     0.000000    Cartesian    0.00
     92 z         11.014756     10.988633    -0.026123    Cartesian   -0.24
     93 x         17.623609     17.619160    -0.004449    Cartesian   -0.03
     93 y          2.202951      2.202951     0.000000    Cartesian    0.00
     93 z         -2.202951     -2.219630    -0.016679    Cartesian    0.76
     94 x          8.811805      8.810793    -0.001011    Cartesian   -0.01
     94 y         11.014756     11.008719    -0.006037    Cartesian   -0.05
     94 z         11.014756     11.007464    -0.007292    Cartesian   -0.07
     95 x         13.217707     13.215552    -0.002155    Cartesian   -0.02
     95 y         11.014756     11.009080    -0.005676    Cartesian   -0.05
     95 z          6.608853      6.605778    -0.003075    Cartesian   -0.05
     96 x          2.202951      2.202951     0.000000    Cartesian    0.00
     96 y         11.014756     11.019670     0.004914    Cartesian    0.04
     96 z         13.217707     13.214722    -0.002984    Cartesian   -0.02
     97 x          2.202951      2.202951     0.000000    Cartesian    0.00
     97 y         15.420658     15.423596     0.002938    Cartesian    0.02
     97 z          8.811805      8.811938     0.000134    Cartesian    0.00
     98 x         11.014756     11.009050    -0.005706    Cartesian   -0.05
     98 y         15.420658     15.409567    -0.011091    Cartesian   -0.07
     98 z          0.000000      0.000000     0.000000    Cartesian    0.00
     99 x          2.202951      2.202951     0.000000    Cartesian    0.00
     99 y          2.202951      2.202951     0.000000    Cartesian    0.00
     99 z         -2.202951     -2.353759    -0.150808    Cartesian    6.85
    100 x          4.405902      4.517983     0.112081    Cartesian    2.54
    100 y          4.405902      4.517983     0.112081    Cartesian    2.54
    100 z          0.000000      0.000000     0.000000    Cartesian    0.00
    101 x          2.202951      2.202951     0.000000    Cartesian    0.00
    101 y          6.608853      6.576186    -0.032668    Cartesian   -0.49
    101 z         -2.202951     -2.188696     0.014255    Cartesian   -0.65
    102 x          4.405902      4.483515     0.077613    Cartesian    1.76
    102 y          4.405902      4.483515     0.077613    Cartesian    1.76
    102 z          4.405902      4.504293     0.098391    Cartesian    2.23
    103 x          2.202951      2.202951     0.000000    Cartesian    0.00
    103 y          2.202951      2.202951     0.000000    Cartesian    0.00
    103 z          6.608853      6.663206     0.054353    Cartesian    0.82
    104 x          6.608853      6.612909     0.004055    Cartesian    0.06
    104 y          6.608853      6.612909     0.004055    Cartesian    0.06
    104 z         -2.202951     -2.211074    -0.008123    Cartesian    0.37
    105 x          4.405902      4.408987     0.003085    Cartesian    0.07
    105 y          8.811805      8.836187     0.024383    Cartesian    0.28
    105 z          0.000000      0.000000     0.000000    Cartesian    0.00
    106 x          2.202951      2.202951     0.000000    Cartesian    0.00
    106 y          6.608853      6.598557    -0.010296    Cartesian   -0.16
    106 z          6.608853      6.601146    -0.007707    Cartesian   -0.12
    107 x          4.405902      4.415265     0.009363    Cartesian    0.21
    107 y          8.811805      8.838529     0.026724    Cartesian    0.30
    107 z          4.405902      4.409103     0.003200    Cartesian    0.07
    108 x          6.608853      6.620280     0.011427    Cartesian    0.17
    108 y          6.608853      6.620280     0.011427    Cartesian    0.17
    108 z          6.608853      6.619096     0.010242    Cartesian    0.15
    109 x          2.202951      2.202951     0.000000    Cartesian    0.00
    109 y         11.014756     11.001033    -0.013722    Cartesian   -0.12
    109 z         -2.202951     -2.205950    -0.002999    Cartesian    0.14
    110 x          4.405902      4.406632     0.000730    Cartesian    0.02
    110 y          4.405902      4.406632     0.000730    Cartesian    0.02
    110 z          8.811805      8.844751     0.032946    Cartesian    0.37
    111 x          8.811805      8.826392     0.014587    Cartesian    0.17
    111 y          8.811805      8.826392     0.014587    Cartesian    0.17
    111 z          0.000000      0.000000     0.000000    Cartesian    0.00
    112 x          6.608853      6.609202     0.000348    Cartesian    0.01
    112 y         11.014756     11.014434    -0.000322    Cartesian   -0.00
    112 z         -2.202951     -2.202586     0.000365    Cartesian   -0.02
    113 x          8.811805      8.828607     0.016802    Cartesian    0.19
    113 y          8.811805      8.828607     0.016802    Cartesian    0.19
    113 z          4.405902      4.415284     0.009382    Cartesian    0.21
    114 x          2.202951      2.202951     0.000000    Cartesian    0.00
    114 y          2.202951      2.202951     0.000000    Cartesian    0.00
    114 z         11.014756     11.027636     0.012880    Cartesian    0.12
    115 x          2.202951      2.202951     0.000000    Cartesian    0.00
    115 y         11.014756     11.011460    -0.003296    Cartesian   -0.03
    115 z          6.608853      6.602976    -0.005877    Cartesian   -0.09
    116 x          4.405902      4.411742     0.005840    Cartesian    0.13
    116 y          8.811805      8.822499     0.010695    Cartesian    0.12
    116 z          8.811805      8.827374     0.015569    Cartesian    0.18
    117 x          4.405902      4.408995     0.003093    Cartesian    0.07
    117 y         13.217707     13.229985     0.012278    Cartesian    0.09
    117 z          0.000000      0.000000     0.000000    Cartesian    0.00
    118 x          2.202951      2.202951     0.000000    Cartesian    0.00
    118 y          6.608853      6.615060     0.006206    Cartesian    0.09
    118 z         11.014756     11.016281     0.001525    Cartesian    0.01
    119 x          6.608853      6.609284     0.000431    Cartesian    0.01
    119 y         11.014756     11.017803     0.003047    Cartesian    0.03
    119 z          6.608853      6.611545     0.002692    Cartesian    0.04
    120 x          4.405902      4.407987     0.002085    Cartesian    0.05
    120 y         13.217707     13.228501     0.010794    Cartesian    0.08
    120 z          4.405902      4.411030     0.005128    Cartesian    0.12
    121 x          6.608853      6.608804    -0.000049    Cartesian   -0.00
    121 y          6.608853      6.608804    -0.000049    Cartesian   -0.00
    121 z         11.014756     11.016472     0.001716    Cartesian    0.02
    122 x         11.014756     11.014969     0.000213    Cartesian    0.00
    122 y         11.014756     11.014969     0.000213    Cartesian    0.00
    122 z         -2.202951     -2.203397    -0.000446    Cartesian    0.02
    123 x          8.811805      8.824466     0.012661    Cartesian    0.14
    123 y          8.811805      8.824466     0.012661    Cartesian    0.14
    123 z          8.811805      8.823815     0.012010    Cartesian    0.14
    124 x          8.811805      8.818165     0.006361    Cartesian    0.07
    124 y         13.217707     13.227861     0.010155    Cartesian    0.08
    124 z          0.000000      0.000000     0.000000    Cartesian    0.00
    125 x          2.202951      2.202951     0.000000    Cartesian    0.00
    125 y         15.420658     15.416744    -0.003914    Cartesian   -0.03
    125 z         -2.202951     -2.198295     0.004656    Cartesian   -0.21
    126 x          8.811805      8.816165     0.004361    Cartesian    0.05
    126 y         13.217707     13.226883     0.009176    Cartesian    0.07
    126 z          4.405902      4.409769     0.003867    Cartesian    0.09
    127 x          4.405902      4.408375     0.002473    Cartesian    0.06
    127 y          4.405902      4.408375     0.002473    Cartesian    0.06
    127 z         13.217707     13.231240     0.013533    Cartesian    0.10
    128 x          6.608853      6.608151    -0.000703    Cartesian   -0.01
    128 y         15.420658     15.420802     0.000144    Cartesian    0.00
    128 z         -2.202951     -2.203310    -0.000359    Cartesian    0.02
    129 x          2.202951      2.202951     0.000000    Cartesian    0.00
    129 y         11.014756     11.010156    -0.004599    Cartesian   -0.04
    129 z         11.014756     11.013122    -0.001634    Cartesian   -0.01
    130 x         11.014756     11.015066     0.000311    Cartesian    0.00
    130 y         11.014756     11.015066     0.000311    Cartesian    0.00
    130 z          6.608853      6.609170     0.000316    Cartesian    0.00
    131 x          4.405902      4.406716     0.000814    Cartesian    0.02
    131 y         13.217707     13.227565     0.009858    Cartesian    0.07
    131 z          8.811805      8.815808     0.004003    Cartesian    0.05
    132 x          6.608853      6.609350     0.000497    Cartesian    0.01
    132 y         11.014756     11.017066     0.002310    Cartesian    0.02
    132 z         11.014756     11.016346     0.001590    Cartesian    0.01
    133 x          2.202951      2.202951     0.000000    Cartesian    0.00
    133 y         15.420658     15.418871    -0.001787    Cartesian   -0.01
    133 z          6.608853      6.613202     0.004348    Cartesian    0.07
    134 x          4.405902      4.405851    -0.000051    Cartesian   -0.00
    134 y          8.811805      8.817875     0.006071    Cartesian    0.07
    134 z         13.217707     13.230424     0.012717    Cartesian    0.10
    135 x          2.202951      2.202951     0.000000    Cartesian    0.00
    135 y          2.202951      2.202951     0.000000    Cartesian    0.00
    135 z         15.420658     15.423612     0.002954    Cartesian    0.02
    136 x          6.608853      6.610401     0.001548    Cartesian    0.02
    136 y         15.420658     15.424545     0.003887    Cartesian    0.03
    136 z          6.608853      6.610054     0.001200    Cartesian    0.02
    137 x          4.405902      4.407370     0.001468    Cartesian    0.03
    137 y         17.623609     17.638003     0.014394    Cartesian    0.08
    137 z          0.000000      0.000000     0.000000    Cartesian    0.00
    138 x          8.811805      8.817288     0.005483    Cartesian    0.06
    138 y         13.217707     13.229804     0.012097    Cartesian    0.09
    138 z          8.811805      8.819184     0.007380    Cartesian    0.08
    139 x         13.217707     13.228059     0.010353    Cartesian    0.08
    139 y         13.217707     13.228059     0.010353    Cartesian    0.08
    139 z          0.000000      0.000000     0.000000    Cartesian    0.00
--------------------------------------------------------------------------------


  Time to end of optimisation  =       36.3897 seconds


  Peak dynamic memory used =     318.69 MB 


  Timing analysis for GULP :

--------------------------------------------------------------------------------
  Task / Subroutine                                          Time (Seconds)
--------------------------------------------------------------------------------
  Calculation of reciprocal space energy and derivatives          0.0002
  Calculation of reciprocal space energy using symmetry           0.0004
  Calculation of real space energy and derivatives                0.0013
  Calculation of real space energy using symmetry                 0.0040
  Calculation for region 1 energy and derivatives (2-b)          18.7022
  Calculation for region 2a energy                               16.7010
  Calculation for region 2b energy                                0.0003
  Calculation and manipulation of Hessian matrix                  0.6795
  Calculation of matrix inversion                                 0.0276
  Symmetry generation of equivalent positions                     0.0017
--------------------------------------------------------------------------------
  Total CPU time                                                 36.3898
--------------------------------------------------------------------------------


  Dump file written as Na3OCl.grs


  Job Finished at 14:49.00  2nd January    2021                               

