********************************************************************************
*                       GENERAL UTILITY LATTICE PROGRAM                        *
*                                 Julian Gale                                  *
*                       Curtin Institute for Computation                       *
*                    School of Molecular and Life Sciences                     *
*                    Curtin University, Western Australia                      *
********************************************************************************
* Version = 5.2.0 * Last modified =  10th September 2020                       *
********************************************************************************
*  optimise     - perform optimisation run                                     *
*  conp         - constant pressure calculation                                *
*  property     - calculate properties for final geometry                      *
*  defect       - perform defect calculation after bulk run                    *
*  compare      - compare initial and final structures                         *
********************************************************************************

  Job Started  at 18:34.47  1st September  2021                               

  Number of CPUs =     1


  Total number of configurations input =      1

********************************************************************************
*  Input for Configuration =   1                                               *
********************************************************************************

  Formula = ClONa3                                                      

  Number of irreducible atoms/shells =       5


  Total number atoms/shells =       7

  Dimensionality = 3               :  Bulk   


  Symmetry :

  Crystal family                   :  Cubic       
  Crystal class  (Groth - 1921)    :  Cubic Hexakisoctahedral              

  Space group (centrosymmetric)    :  P M 3 M         

  Patterson group                  :  P m -3 m 

  Cartesian lattice vectors (Angstroms) :

        4.504000    0.000000    0.000000
        0.000000    4.504000    0.000000
        0.000000    0.000000    4.504000

  Cell parameters (Angstroms/Degrees):

  a =       4.5040    alpha =  90.0000
  b =       4.5040    beta  =  90.0000
  c =       4.5040    gamma =  90.0000

  Initial cell volume =          91.368216 Angs**3

  Temperature of configuration =   0.00     K 

  Pressure of configuration =         0.000 GPa 

  Fractional coordinates of asymmetric unit :

--------------------------------------------------------------------------------
   No.  Atomic       x           y          z         Charge      Occupancy
        Label      (Frac)      (Frac)     (Frac)        (e)         (Frac)  
--------------------------------------------------------------------------------
      1 Cl    c    0.000000    0.000000    0.000000     1.48500    1.000000    
      2 O     c    0.500000    0.500000    0.500000     0.18300    1.000000    
      3 Na    c    0.500000    0.500000    0.000000     1.00000    1.000000    
      4 Cl    s    0.000000    0.000000    0.000000    -2.48500    1.000000    
      5 O     s    0.500000    0.500000    0.500000    -2.18300    1.000000    
--------------------------------------------------------------------------------


  Constraints : 

--------------------------------------------------------------------------------
  Constraint no.      Unconstrained     Constrained    Coefficient    Offset
                         Variable         Variable
--------------------------------------------------------------------------------
           1              Strain 1        Strain 2       1.00000      0.0000
           2              Strain 1        Strain 3       1.00000      0.0000
--------------------------------------------------------------------------------


********************************************************************************
*  General input information                                                   *
********************************************************************************

  Species output for all configurations : 

--------------------------------------------------------------------------------
  Species    Type    Atomic    Atomic    Charge       Radii (Angs)     Library
                     Number     Mass       (e)     Cova   Ionic  VDW   Symbol
--------------------------------------------------------------------------------
    Na       Core       11      22.99   1.000000   0.970  0.000  2.300          
    O        Core        8      16.00   0.183000   0.730  0.000  1.360          
    O        Shell       8       0.00  -2.183000   0.730  0.000  1.360          
    Cl       Core       17      35.45   1.485000   0.990  0.000  1.650          
    Cl       Shell      17       0.00  -2.485000   0.990  0.000  1.650          
    Mg       Core       12      24.31   0.415000   1.100  0.000  0.000          
    Mg       Shell      12       0.00   1.585000   1.100  0.000  0.000          
    Ca       Core       20      40.08  -1.135000   0.990  0.000  0.000          
    Ca       Shell      20       0.00   3.135000   0.990  0.000  0.000          
    Sr       Core       38      87.62  -1.251000   1.120  0.000  0.000          
    Sr       Shell      38       0.00   3.251000   1.120  0.000  0.000          
    Ba       Core       56     137.33  -7.203000   1.340  0.000  0.000          
    Ba       Shell      56       0.00   9.203000   1.340  0.000  0.000          
    Al       Core       13      26.98   3.000000   1.350  0.000  0.000          
    Ga       Core       31      69.72   3.000000   1.220  0.000  0.000          
--------------------------------------------------------------------------------


  Lattice summation method               =    Ewald          (3-D)
                                         =    Parry          (2-D)
                                         =    Saunders et al (1-D)
  Accuracy factor for lattice sums       =   12.000


  Analytic derivatives to be used

  Time limit = Infinity

  Maximum range for interatomic potentials =    100000.000000 Angstroms

  General interatomic potentials :

--------------------------------------------------------------------------------
Atom  Types   Potential      Parameter       Value         Units   Cutoffs(Ang)
  1     2                                                            Min /  Max 
--------------------------------------------------------------------------------
O    c O    s Spring (c-s)  Spring k 2       593.71600    eV*Ang^-2 0.000  0.800
                            Spring k 4       0.0000000    eV*Ang^-4 
--------------------------------------------------------------------------------
Cl   c Cl   s Spring (c-s)  Spring k 2       29.380000    eV*Ang^-2 0.000  0.800
                            Spring k 4       0.0000000    eV*Ang^-4 
--------------------------------------------------------------------------------
Mg   c Mg   s Spring (c-s)  Spring k 2       361.60000    eV*Ang^-2 0.000  0.800
                            Spring k 4       0.0000000    eV*Ang^-4 
--------------------------------------------------------------------------------
Ca   c Ca   s Spring (c-s)  Spring k 2       110.20000    eV*Ang^-2 0.000  0.800
                            Spring k 4       0.0000000    eV*Ang^-4 
--------------------------------------------------------------------------------
Sr   c Sr   s Spring (c-s)  Spring k 2       71.700000    eV*Ang^-2 0.000  0.800
                            Spring k 4       0.0000000    eV*Ang^-4 
--------------------------------------------------------------------------------
Ba   c Ba   s Spring (c-s)  Spring k 2       495.20000    eV*Ang^-2 0.000  0.800
                            Spring k 4       0.0000000    eV*Ang^-4 
--------------------------------------------------------------------------------
Na   c Na   c Buckingham    Buckingham A     1788.1900    eV        0.000 12.000
                            Buckingham rho  0.15900000    Ang       
                            Buckingham C     0.0000000    eV*Ang^6  
--------------------------------------------------------------------------------
Na   c O    s Buckingham    Buckingham A     588.38000    eV        0.000 12.000
                            Buckingham rho  0.33800000    Ang       
                            Buckingham C     0.0000000    eV*Ang^6  
--------------------------------------------------------------------------------
Na   c Cl   s Buckingham    Buckingham A     1170.4100    eV        0.000 12.000
                            Buckingham rho  0.31500000    Ang       
                            Buckingham C     0.0000000    eV*Ang^6  
--------------------------------------------------------------------------------
O    s O    s Buckingham    Buckingham A     22764.300    eV        0.000 12.000
                            Buckingham rho  0.14900000    Ang       
                            Buckingham C     13.190000    eV*Ang^6  
--------------------------------------------------------------------------------
O    s Cl   s Buckingham    Buckingham A     8286.9100    eV        0.000 12.000
                            Buckingham rho  0.25900000    Ang       
                            Buckingham C     62.200000    eV*Ang^6  
--------------------------------------------------------------------------------
Cl   s Cl   s Buckingham    Buckingham A     1227.2000    eV        0.000 12.000
                            Buckingham rho  0.32100000    Ang       
                            Buckingham C     14.530000    eV*Ang^6  
--------------------------------------------------------------------------------
O    s Mg   s Buckingham    Buckingham A     1428.5000    eV        0.000 12.000
                            Buckingham rho  0.29450000    Ang       
                            Buckingham C     0.0000000    eV*Ang^6  
--------------------------------------------------------------------------------
Mg   s Cl   s Buckingham    Buckingham A     4914.5400    eV        0.000 12.000
                            Buckingham rho  0.25700000    Ang       
                            Buckingham C     0.0000000    eV*Ang^6  
--------------------------------------------------------------------------------
O    s Ca   s Buckingham    Buckingham A     1090.4000    eV        0.000 12.000
                            Buckingham rho  0.34370000    Ang       
                            Buckingham C     0.0000000    eV*Ang^6  
--------------------------------------------------------------------------------
Cl   s Ca   s Buckingham    Buckingham A     2302.0000    eV        0.000 12.000
                            Buckingham rho  0.34020000    Ang       
                            Buckingham C     0.0000000    eV*Ang^6  
--------------------------------------------------------------------------------
O    s Sr   s Buckingham    Buckingham A     959.10000    eV        0.000 12.000
                            Buckingham rho  0.37210000    Ang       
                            Buckingham C     0.0000000    eV*Ang^6  
--------------------------------------------------------------------------------
Cl   s Sr   s Buckingham    Buckingham A     2191.0900    eV        0.000 12.000
                            Buckingham rho  0.34570000    Ang       
                            Buckingham C     0.0000000    eV*Ang^6  
--------------------------------------------------------------------------------
O    s Ba   s Buckingham    Buckingham A     905.70000    eV        0.000 12.000
                            Buckingham rho  0.39760000    Ang       
                            Buckingham C     0.0000000    eV*Ang^6  
--------------------------------------------------------------------------------
Cl   s Ba   s Buckingham    Buckingham A     2704.5500    eV        0.000 12.000
                            Buckingham rho  0.35280000    Ang       
                            Buckingham C     0.0000000    eV*Ang^6  
--------------------------------------------------------------------------------
Al   c O    s Buckingham    Buckingham A     1725.0000    eV        0.000 12.000
                            Buckingham rho  0.28970000    Ang       
                            Buckingham C     0.0000000    eV*Ang^6  
--------------------------------------------------------------------------------
Al   c Cl   s Buckingham    Buckingham A     1736.1200    eV        0.000 12.000
                            Buckingham rho  0.29170000    Ang       
                            Buckingham C     0.0000000    eV*Ang^6  
--------------------------------------------------------------------------------
Ga   c O    s Buckingham    Buckingham A     2901.1200    eV        0.000 12.000
                            Buckingham rho  0.27420000    Ang       
                            Buckingham C     0.0000000    eV*Ang^6  
--------------------------------------------------------------------------------
Ga   c Cl   s Buckingham    Buckingham A     924.20000    eV        0.000 12.000
                            Buckingham rho  0.34280000    Ang       
                            Buckingham C     0.0000000    eV*Ang^6  
--------------------------------------------------------------------------------

********************************************************************************
*  Output for configuration   1                                                *
********************************************************************************


  Components of energy : 

--------------------------------------------------------------------------------
  Interatomic potentials     =           4.94315381 eV    
  Monopole - monopole (real) =         -10.03624526 eV    
  Monopole - monopole (recip)=         -29.53581274 eV    
  Monopole - monopole (total)=         -39.57205800 eV    
--------------------------------------------------------------------------------
  Total lattice energy       =         -34.62890419 eV    
--------------------------------------------------------------------------------
  Total lattice energy       =           -3341.1599 kJ/(mole unit cells)
--------------------------------------------------------------------------------


  Number of variables =        1

  Maximum number of calculations  =          1000
  Maximum Hessian update interval =            10
  Maximum step size               =   1.000000000
  Maximum parameter tolerance     =   0.000010000
  Maximum function  tolerance     =   0.000010000
  Maximum gradient  tolerance     =   0.001000000
  Maximum gradient  component     =   0.010000000

  Symmetry constrained optimisation

  Symmetry used for second derivatives

  Cell parameters to be optimised using strains

  Newton-Raphson optimiser to be used

  BFGS hessian update to be used

  Lower half triangular hessian to be used

  Start of bulk optimisation :

  Cycle:      0 Energy:       -34.628904  Gnorm:      4.328237  CPU:    0.007
  ** Hessian calculated **
  Cycle:      1 Energy:       -34.677667  Gnorm:      0.044008  CPU:    0.008
  Cycle:      2 Energy:       -34.677671  Gnorm:      0.003653  CPU:    0.009


  **** Optimisation achieved ****


  Final energy =     -34.67767136 eV
  Final Gnorm  =       0.00000010

  Components of energy : 

--------------------------------------------------------------------------------
  Interatomic potentials     =           5.77546103 eV    
  Monopole - monopole (real) =         -10.25970290 eV    
  Monopole - monopole (recip)=         -30.19342950 eV    
  Monopole - monopole (total)=         -40.45313239 eV    
--------------------------------------------------------------------------------
  Total lattice energy       =         -34.67767136 eV    
--------------------------------------------------------------------------------
  Total lattice energy       =           -3345.8652 kJ/(mole unit cells)
--------------------------------------------------------------------------------

  Final asymmetric unit coordinates :

--------------------------------------------------------------------------------
   No.  Atomic        x           y           z         Radius
        Label       (Frac)      (Frac)      (Frac)       (Angs) 
--------------------------------------------------------------------------------
     1  Cl    c     0.000000    0.000000    0.000000    0.000000
     2  O     c     0.500000    0.500000    0.500000    0.000000
     3  Na    c     0.500000    0.500000    0.000000    0.000000
     4  Cl    s     0.000000    0.000000    0.000000    0.000000
     5  O     s     0.500000    0.500000    0.500000    0.000000
--------------------------------------------------------------------------------

  Final Cartesian lattice vectors (Angstroms) :

        4.405902    0.000000    0.000000
        0.000000    4.405902    0.000000
        0.000000    0.000000    4.405902


  Final cell parameters and derivatives :

--------------------------------------------------------------------------------
       a            4.405902 Angstrom     dE/de1(xx)     0.000000 eV/strain
       b            4.405902 Angstrom     dE/de2(yy)     0.000000 eV/strain
       c            4.405902 Angstrom     dE/de3(zz)     0.000000 eV/strain
       alpha       90.000000 Degrees      dE/de4(yz)     0.000000 eV/strain
       beta        90.000000 Degrees      dE/de5(xz)     0.000000 eV/strain
       gamma       90.000000 Degrees      dE/de6(xy)     0.000000 eV/strain
--------------------------------------------------------------------------------

  Primitive cell volume =            85.527266 Angs**3

  Density of cell =      2.338030 g/cm**3

  Non-primitive cell volume =            85.527266 Angs**3


  Final internal derivatives :

--------------------------------------------------------------------------------
   No.  Atomic          a             b             c           Radius
        Label          (eV)          (eV)          (eV)        (eV/Angs)
--------------------------------------------------------------------------------
      1 Cl    c       0.000000      0.000000      0.000000      0.000000
      2 O     c       0.000000      0.000000      0.000000      0.000000
      3 Na    c       0.000000      0.000000      0.000000      0.000000
      4 Cl    s       0.000000      0.000000      0.000000      0.000000
      5 O     s       0.000000      0.000000      0.000000      0.000000
--------------------------------------------------------------------------------
  Maximum abs         0.000000      0.000000      0.000000      0.000000
--------------------------------------------------------------------------------

  Comparison of initial and final structures : 

--------------------------------------------------------------------------------
  Parameter   Initial value   Final value   Difference    Units      Percent
--------------------------------------------------------------------------------
    Volume        91.368216     85.527266    -5.840950    Angs**3     -6.39
    a              4.504000      4.405902    -0.098098    Angstroms   -2.18
    b              4.504000      4.405902    -0.098098    Angstroms   -2.18
    c              4.504000      4.405902    -0.098098    Angstroms   -2.18
    alpha         90.000000     90.000000     0.000000    Degrees      0.00
    beta          90.000000     90.000000     0.000000    Degrees      0.00
    gamma         90.000000     90.000000     0.000000    Degrees      0.00
      1 x          0.000000      0.000000     0.000000    Fractional   0.00
      1 y          0.000000      0.000000     0.000000    Fractional   0.00
      1 z          0.000000      0.000000     0.000000    Fractional   0.00
      2 x          0.500000      0.500000     0.000000    Fractional   0.00
      2 y          0.500000      0.500000     0.000000    Fractional   0.00
      2 z          0.500000      0.500000     0.000000    Fractional   0.00
      3 x          0.500000      0.500000     0.000000    Fractional   0.00
      3 y          0.500000      0.500000     0.000000    Fractional   0.00
      3 z          0.000000      0.000000     0.000000    Fractional   0.00
      4 x          0.000000      0.000000     0.000000    Fractional   0.00
      4 y          0.000000      0.000000     0.000000    Fractional   0.00
      4 z          0.000000      0.000000     0.000000    Fractional   0.00
      5 x          0.500000      0.500000     0.000000    Fractional   0.00
      5 y          0.500000      0.500000     0.000000    Fractional   0.00
      5 z          0.500000      0.500000     0.000000    Fractional   0.00
--------------------------------------------------------------------------------


  Born effective charge tensors : 

-------------------------------------------------------------------------------
  Atom             x           y             z
-------------------------------------------------------------------------------
    1 Cl    x      -0.9918     -0.0000     -0.0000
            y      -0.0000     -0.9918     -0.0000
            z      -0.0000     -0.0000     -0.9918
-------------------------------------------------------------------------------
    2 O     x      -2.2939      0.0000      0.0000
            y       0.0000     -2.2939      0.0000
            z       0.0000      0.0000     -2.2939
-------------------------------------------------------------------------------
    3 Na    x       1.2243      0.0000      0.0000
            y       0.0000      1.2243     -0.0000
            z       0.0000      0.0000      0.8372
-------------------------------------------------------------------------------




  Elastic Constant Matrix: (Units=GPa)

-------------------------------------------------------------------------------
  Indices      1         2         3         4         5         6    
-------------------------------------------------------------------------------
       1     82.7680   24.3534   24.3534   -0.0000    0.0000   -0.0000
       2     24.3534   82.7680   24.3534    0.0000   -0.0000   -0.0000
       3     24.3534   24.3534   82.7680    0.0000   -0.0000    0.0000
       4     -0.0000    0.0000    0.0000   24.3534   -0.0000    0.0000
       5      0.0000   -0.0000   -0.0000   -0.0000   24.3534    0.0000
       6     -0.0000   -0.0000    0.0000    0.0000    0.0000   24.3534
-------------------------------------------------------------------------------


  Elastic Compliance Matrix: (Units=1/GPa)

-------------------------------------------------------------------------------
  Indices      1         2         3         4         5         6    
-------------------------------------------------------------------------------
       1    0.013948 -0.003171 -0.003171  0.000000 -0.000000  0.000000
       2   -0.003171  0.013948 -0.003171 -0.000000  0.000000 -0.000000
       3   -0.003171 -0.003171  0.013948 -0.000000  0.000000 -0.000000
       4    0.000000 -0.000000 -0.000000  0.041062  0.000000 -0.000000
       5   -0.000000  0.000000  0.000000  0.000000  0.041062 -0.000000
       6    0.000000 -0.000000 -0.000000 -0.000000 -0.000000  0.041062
-------------------------------------------------------------------------------

  Mechanical properties :

-------------------------------------------------------------------------------
  Convention :                    Reuss         Voigt         Hill
-------------------------------------------------------------------------------
  Bulk  Modulus (GPa)     =      43.82493      43.82493      43.82493
  Shear Modulus (GPa)     =      26.08758      26.29496      26.19127
-------------------------------------------------------------------------------
  Velocity S-wave (km/s)  =       3.34035       3.35360       3.34698
  Velocity P-wave (km/s)  =       5.79842       5.80861       5.80351
-------------------------------------------------------------------------------
  Compressibility (1/GPa) =    0.02281806
-------------------------------------------------------------------------------
  Stress axis :                     x             y             z
-------------------------------------------------------------------------------
  Youngs Moduli (GPa)     =      71.69479      71.69479      71.69479
-------------------------------------------------------------------------------
  Poissons Ratio (x)      =                     0.22734       0.22734
  Poissons Ratio (y)      =       0.22734                     0.22734
  Poissons Ratio (z)      =       0.22734       0.22734
-------------------------------------------------------------------------------


  Piezoelectric Strain Matrix: (Units=C/m**2)

-------------------------------------------------------------------------------
  Indices      1         2         3         4         5         6    
-------------------------------------------------------------------------------
       x    -0.00000  -0.00000  -0.00000  -0.00000   0.00000  -0.00000
       y     0.00000  -0.00000   0.00000   0.00000  -0.00000   0.00000
       z    -0.00000  -0.00000   0.00000  -0.00000   0.00000  -0.00000
-------------------------------------------------------------------------------


  Piezoelectric Stress Matrix: (Units=10**-11 C/N)

-------------------------------------------------------------------------------
  Indices      1         2         3         4         5         6    
-------------------------------------------------------------------------------
       x     0.00000  -0.00000  -0.00000  -0.00000   0.00000  -0.00000
       y     0.00000  -0.00000   0.00000   0.00000  -0.00000   0.00000
       z    -0.00000  -0.00000   0.00000  -0.00000   0.00000  -0.00000
-------------------------------------------------------------------------------


  Static dielectric constant tensor : 

-------------------------------------------------------------------------------
              x         y         z
-------------------------------------------------------------------------------
       x    11.08357   0.00000   0.00000
       y     0.00000  11.08357   0.00000
       z     0.00000   0.00000  11.08357
--------------------------------------------------------------------------------

  High frequency dielectric constant tensor : 

-------------------------------------------------------------------------------
              x         y         z
-------------------------------------------------------------------------------
       x     1.50771   0.00000   0.00000
       y     0.00000   1.50771   0.00000
       z     0.00000   0.00000   1.50771
-------------------------------------------------------------------------------

  Static refractive indices : 

-------------------------------------------------------------------------------
    1 =    3.32920      2 =    3.32920      3 =    3.32920
-------------------------------------------------------------------------------

  High frequency refractive indices : 

-------------------------------------------------------------------------------
    1 =    1.22789      2 =    1.22789      3 =    1.22789
-------------------------------------------------------------------------------


  Time to end of optimisation =       0.0119 seconds

********************************************************************************
*  Defect calculation for configuration   1 :                                  *
********************************************************************************

  Total number of defects =      2

  Total charge on defect  =   0.00

  Defect centre is at   0.2500   0.2500   0.0000  Frac

  Region 1 radius =  16.0000      Number of ions =   1420

  Number of symmetry inequivalent region 1 ions  =    424

  Region 2 radius =  24.0000      Number of ions =   3329

  Number of symmetry inequivalent region 2a ions =    919

  Region 2a mode = 4 : screened electrostatics due to region 1 
                       neglect correction to region 1 forces from 2a
                       region 2a displacements based on defects only

  Region 2a ions will only interact with defects in region 1

  Vacancies:

--------------------------------------------------------------------------------
    Specification type     Symbol/Number         x          y          z
--------------------------------------------------------------------------------
    Fractional                               0.500000   0.500000   0.000000
    Fractional                               0.000000   0.000000   0.000000
--------------------------------------------------------------------------------


  Symmetry reduced region 1 (Relative to defect centre) :

--------------------------------------------------------------------------------
   No.   Atomic       x            y             z       Radius  Multiplicity   
         Label      (Angs)       (Angs)        (Angs)    (Angs)     
--------------------------------------------------------------------------------
     1  O     c      1.1015 *     1.1015      -2.2030 *  0.0000     2          
     2  Na    c     -1.1015 *     1.1015 *    -2.2030 *  0.0000     4          
     3  Cl    c     -1.1015 *     3.3044 *     0.0000    0.0000     2          
     4  Na    c      1.1015 *    -3.3044 *     0.0000    0.0000     2          
     5  O     c      1.1015 *    -3.3044 *    -2.2030 *  0.0000     4          
     6  Na    c     -1.1015 *    -3.3044 *    -2.2030 *  0.0000     4          
     7  Na    c      3.3044 *     1.1015 *    -2.2030 *  0.0000     4          
     8  Cl    c     -1.1015 *    -1.1015       4.4059 *  0.0000     2          
     9  Cl    c      3.3044 *     3.3044       0.0000    0.0000     1          
    10  Na    c      1.1015 *     1.1015       4.4059 *  0.0000     2          
    11  Na    c     -3.3044 *    -3.3044       0.0000    0.0000     1          
    12  O     c     -3.3044 *    -3.3044      -2.2030 *  0.0000     2          
    13  Na    c      3.3044 *    -3.3044 *    -2.2030 *  0.0000     4          
    14  Cl    c     -1.1015 *     3.3044 *     4.4059 *  0.0000     4          
    15  Cl    c     -1.1015 *    -5.5074 *     0.0000    0.0000     2          
    16  Na    c      1.1015 *    -3.3044 *     4.4059 *  0.0000     4          
    17  Na    c      1.1015 *     5.5074 *     0.0000    0.0000     2          
    18  O     c      1.1015 *     5.5074 *    -2.2030 *  0.0000     4          
    19  Na    c     -1.1015 *     5.5074 *    -2.2030 *  0.0000     4          
    20  Na    c     -5.5074 *     1.1015 *    -2.2030 *  0.0000     4          
    21  Cl    c      3.3044 *     3.3044       4.4059 *  0.0000     2          
    22  Cl    c      3.3044 *    -5.5074 *     0.0000    0.0000     2          
    23  Na    c      5.5074 *    -3.3044 *     0.0000    0.0000     2          
    24  Na    c     -3.3044 *    -3.3044       4.4059 *  0.0000     2          
    25  O     c      5.5074 *    -3.3044 *    -2.2030 *  0.0000     4          
    26  Na    c      3.3044 *     5.5074 *    -2.2030 *  0.0000     4          
    27  Na    c     -5.5074 *    -3.3044 *    -2.2030 *  0.0000     4          
    28  O     c      1.1015 *     1.1015       6.6089 *  0.0000     2          
    29  Na    c     -1.1015 *     1.1015 *     6.6089 *  0.0000     4          
    30  Cl    c     -1.1015 *    -5.5074 *     4.4059 *  0.0000     4          
    31  Na    c      1.1015 *     5.5074 *     4.4059 *  0.0000     4          
    32  O     c      1.1015 *    -3.3044 *     6.6089 *  0.0000     4          
    33  Na    c     -1.1015 *    -3.3044 *     6.6089 *  0.0000     4          
    34  Na    c      3.3044 *     1.1015 *     6.6089 *  0.0000     4          
    35  Cl    c     -1.1015 *     7.7103 *     0.0000    0.0000     2          
    36  Cl    c      3.3044 *    -5.5074 *     4.4059 *  0.0000     4          
    37  Cl    c     -5.5074 *    -5.5074       0.0000    0.0000     1          
    38  Na    c      1.1015 *    -7.7103 *     0.0000    0.0000     2          
    39  Na    c      5.5074 *    -3.3044 *     4.4059 *  0.0000     4          
    40  Na    c      5.5074 *     5.5074       0.0000    0.0000     1          
    41  O     c      1.1015 *    -7.7103 *    -2.2030 *  0.0000     4          
    42  O     c      5.5074 *     5.5074      -2.2030 *  0.0000     2          
    43  O     c     -3.3044 *    -3.3044       6.6089 *  0.0000     2          
    44  Na    c     -1.1015 *    -7.7103 *    -2.2030 *  0.0000     4          
    45  Na    c      3.3044 *    -3.3044 *     6.6089 *  0.0000     4          
    46  Na    c      7.7103 *     1.1015 *    -2.2030 *  0.0000     4          
    47  Na    c     -5.5074 *     5.5074 *    -2.2030 *  0.0000     4          
    48  Cl    c      3.3044 *     7.7103 *     0.0000    0.0000     2          
    49  Na    c     -3.3044 *    -7.7103 *     0.0000    0.0000     2          
    50  O     c      1.1015 *     5.5074 *     6.6089 *  0.0000     4          
    51  Na    c     -1.1015 *     5.5074 *     6.6089 *  0.0000     4          
    52  Na    c     -5.5074 *     1.1015 *     6.6089 *  0.0000     4          
    53  O     c     -3.3044 *    -7.7103 *    -2.2030 *  0.0000     4          
    54  Na    c      3.3044 *    -7.7103 *    -2.2030 *  0.0000     4          
    55  Na    c      7.7103 *    -3.3044 *    -2.2030 *  0.0000     4          
    56  Cl    c     -1.1015 *     7.7103 *     4.4059 *  0.0000     4          
    57  Cl    c     -1.1015 *    -1.1015       8.8118 *  0.0000     2          
    58  Cl    c     -5.5074 *    -5.5074       4.4059 *  0.0000     2          
    59  Na    c      1.1015 *     1.1015       8.8118 *  0.0000     2          
    60  Na    c      1.1015 *    -7.7103 *     4.4059 *  0.0000     4          
    61  Na    c      5.5074 *     5.5074       4.4059 *  0.0000     2          
    62  O     c      5.5074 *    -3.3044 *     6.6089 *  0.0000     4          
    63  Na    c      3.3044 *     5.5074 *     6.6089 *  0.0000     4          
    64  Na    c     -5.5074 *    -3.3044 *     6.6089 *  0.0000     4          
    65  Cl    c     -1.1015 *     3.3044 *     8.8118 *  0.0000     4          
    66  Cl    c      3.3044 *     7.7103 *     4.4059 *  0.0000     4          
    67  Cl    c      7.7103 *    -5.5074 *     0.0000    0.0000     2          
    68  Na    c      1.1015 *    -3.3044 *     8.8118 *  0.0000     4          
    69  Na    c      5.5074 *    -7.7103 *     0.0000    0.0000     2          
    70  Na    c     -3.3044 *    -7.7103 *     4.4059 *  0.0000     4          
    71  O     c      5.5074 *    -7.7103 *    -2.2030 *  0.0000     4          
    72  Na    c      7.7103 *     5.5074 *    -2.2030 *  0.0000     4          
    73  Na    c     -5.5074 *    -7.7103 *    -2.2030 *  0.0000     4          
    74  Cl    c     -1.1015 *    -9.9133 *     0.0000    0.0000     2          
    75  Cl    c      3.3044 *     3.3044       8.8118 *  0.0000     2          
    76  Na    c      1.1015 *     9.9133 *     0.0000    0.0000     2          
    77  Na    c     -3.3044 *    -3.3044       8.8118 *  0.0000     2          
    78  O     c      1.1015 *    -7.7103 *     6.6089 *  0.0000     4          
    79  O     c      5.5074 *     5.5074       6.6089 *  0.0000     2          
    80  Na    c     -1.1015 *    -7.7103 *     6.6089 *  0.0000     4          
    81  Na    c      7.7103 *     1.1015 *     6.6089 *  0.0000     4          
    82  Na    c     -5.5074 *     5.5074 *     6.6089 *  0.0000     4          
    83  O     c      1.1015 *     9.9133 *    -2.2030 *  0.0000     4          
    84  Na    c     -1.1015 *     9.9133 *    -2.2030 *  0.0000     4          
    85  Na    c     -9.9133 *     1.1015 *    -2.2030 *  0.0000     4          
    86  Cl    c      7.7103 *    -5.5074 *     4.4059 *  0.0000     4          
    87  Na    c      5.5074 *    -7.7103 *     4.4059 *  0.0000     4          
    88  Cl    c     -1.1015 *    -5.5074 *     8.8118 *  0.0000     4          
    89  Cl    c      3.3044 *    -9.9133 *     0.0000    0.0000     2          
    90  Na    c      1.1015 *     5.5074 *     8.8118 *  0.0000     4          
    91  Na    c      9.9133 *    -3.3044 *     0.0000    0.0000     2          
    92  O     c      9.9133 *    -3.3044 *    -2.2030 *  0.0000     4          
    93  O     c     -3.3044 *    -7.7103 *     6.6089 *  0.0000     4          
    94  Na    c      3.3044 *     9.9133 *    -2.2030 *  0.0000     4          
    95  Na    c      3.3044 *    -7.7103 *     6.6089 *  0.0000     4          
    96  Na    c      7.7103 *    -3.3044 *     6.6089 *  0.0000     4          
    97  Na    c     -9.9133 *    -3.3044 *    -2.2030 *  0.0000     4          
    98  Cl    c     -1.1015 *    -9.9133 *     4.4059 *  0.0000     4          
    99  Cl    c      3.3044 *    -5.5074 *     8.8118 *  0.0000     4          
   100  Cl    c      7.7103 *     7.7103       0.0000    0.0000     1          
   101  Na    c      1.1015 *     9.9133 *     4.4059 *  0.0000     4          
   102  Na    c      5.5074 *    -3.3044 *     8.8118 *  0.0000     4          
   103  Na    c     -7.7103 *    -7.7103       0.0000    0.0000     1          
   104  O     c      1.1015 *     1.1015      11.0148 *  0.0000     2          
   105  Na    c     -1.1015 *     1.1015 *    11.0148 *  0.0000     4          
   106  O     c     -7.7103 *    -7.7103      -2.2030 *  0.0000     2          
   107  Na    c      7.7103 *    -7.7103 *    -2.2030 *  0.0000     4          
   108  Cl    c      3.3044 *    -9.9133 *     4.4059 *  0.0000     4          
   109  Cl    c     -5.5074 *    -9.9133 *     0.0000    0.0000     2          
   110  Na    c      5.5074 *     9.9133 *     0.0000    0.0000     2          
   111  Na    c      9.9133 *    -3.3044 *     4.4059 *  0.0000     4          
   112  O     c      1.1015 *    -3.3044 *    11.0148 *  0.0000     4          
   113  O     c      5.5074 *     9.9133 *    -2.2030 *  0.0000     4          
   114  O     c      5.5074 *    -7.7103 *     6.6089 *  0.0000     4          
   115  Na    c     -1.1015 *    -3.3044 *    11.0148 *  0.0000     4          
   116  Na    c      3.3044 *     1.1015 *    11.0148 *  0.0000     4          
   117  Na    c      7.7103 *     5.5074 *     6.6089 *  0.0000     4          
   118  Na    c     -5.5074 *     9.9133 *    -2.2030 *  0.0000     4          
   119  Na    c     -5.5074 *    -7.7103 *     6.6089 *  0.0000     4          
   120  Na    c     -9.9133 *     5.5074 *    -2.2030 *  0.0000     4          
   121  Cl    c     -1.1015 *     7.7103 *     8.8118 *  0.0000     4          
   122  Cl    c      7.7103 *     7.7103       4.4059 *  0.0000     2          
   123  Cl    c     -5.5074 *    -5.5074       8.8118 *  0.0000     2          
   124  Na    c      1.1015 *    -7.7103 *     8.8118 *  0.0000     4          
   125  Na    c      5.5074 *     5.5074       8.8118 *  0.0000     2          
   126  Na    c     -7.7103 *    -7.7103       4.4059 *  0.0000     2          
   127  O     c     -3.3044 *    -3.3044      11.0148 *  0.0000     2          
   128  Na    c      3.3044 *    -3.3044 *    11.0148 *  0.0000     4          
   129  O     c      1.1015 *     9.9133 *     6.6089 *  0.0000     4          
   130  Na    c     -1.1015 *     9.9133 *     6.6089 *  0.0000     4          
   131  Na    c     -9.9133 *     1.1015 *     6.6089 *  0.0000     4          
   132  Cl    c     -1.1015 *    12.1162 *     0.0000    0.0000     2          
   133  Cl    c      3.3044 *     7.7103 *     8.8118 *  0.0000     4          
   134  Cl    c     -5.5074 *    -9.9133 *     4.4059 *  0.0000     4          
   135  Na    c      1.1015 *   -12.1162 *     0.0000    0.0000     2          
   136  Na    c      5.5074 *     9.9133 *     4.4059 *  0.0000     4          
   137  Na    c     -3.3044 *    -7.7103 *     8.8118 *  0.0000     4          
   138  O     c      1.1015 *     5.5074 *    11.0148 *  0.0000     4          
   139  O     c      1.1015 *   -12.1162 *    -2.2030 *  0.0000     4          
   140  O     c      9.9133 *    -3.3044 *     6.6089 *  0.0000     4          
   141  Na    c     -1.1015 *     5.5074 *    11.0148 *  0.0000     4          
   142  Na    c     -1.1015 *   -12.1162 *    -2.2030 *  0.0000     4          
   143  Na    c      3.3044 *     9.9133 *     6.6089 *  0.0000     4          
   144  Na    c     12.1162 *     1.1015 *    -2.2030 *  0.0000     4          
   145  Na    c     -5.5074 *     1.1015 *    11.0148 *  0.0000     4          
   146  Na    c     -9.9133 *    -3.3044 *     6.6089 *  0.0000     4          
   147  Cl    c      3.3044 *    12.1162 *     0.0000    0.0000     2          
   148  Na    c     -3.3044 *   -12.1162 *     0.0000    0.0000     2          
   149  Cl    c      7.7103 *    -9.9133 *     0.0000    0.0000     2          
   150  Na    c      9.9133 *    -7.7103 *     0.0000    0.0000     2          
   151  O     c      5.5074 *    -3.3044 *    11.0148 *  0.0000     4          
   152  O     c     -3.3044 *   -12.1162 *    -2.2030 *  0.0000     4          
   153  Na    c      3.3044 *     5.5074 *    11.0148 *  0.0000     4          
   154  Na    c      3.3044 *   -12.1162 *    -2.2030 *  0.0000     4          
   155  Na    c     12.1162 *    -3.3044 *    -2.2030 *  0.0000     4          
   156  Na    c     -5.5074 *    -3.3044 *    11.0148 *  0.0000     4          
   157  O     c      9.9133 *    -7.7103 *    -2.2030 *  0.0000     4          
   158  O     c     -7.7103 *    -7.7103       6.6089 *  0.0000     2          
   159  Na    c      7.7103 *     9.9133 *    -2.2030 *  0.0000     4          
   160  Na    c      7.7103 *    -7.7103 *     6.6089 *  0.0000     4          
   161  Na    c     -9.9133 *    -7.7103 *    -2.2030 *  0.0000     4          
   162  Cl    c     -1.1015 *    12.1162 *     4.4059 *  0.0000     4          
   163  Cl    c      7.7103 *    -5.5074 *     8.8118 *  0.0000     4          
   164  Na    c      1.1015 *   -12.1162 *     4.4059 *  0.0000     4          
   165  Na    c      5.5074 *    -7.7103 *     8.8118 *  0.0000     4          
   166  O     c      5.5074 *     9.9133 *     6.6089 *  0.0000     4          
   167  Na    c     -5.5074 *     9.9133 *     6.6089 *  0.0000     4          
   168  Na    c     -9.9133 *     5.5074 *     6.6089 *  0.0000     4          
   169  Cl    c      3.3044 *    12.1162 *     4.4059 *  0.0000     4          
   170  Na    c     -3.3044 *   -12.1162 *     4.4059 *  0.0000     4          
   171  Cl    c     -1.1015 *    -1.1015      13.2177 *  0.0000     2          
   172  Cl    c     -1.1015 *    -9.9133 *     8.8118 *  0.0000     4          
   173  Cl    c      7.7103 *    -9.9133 *     4.4059 *  0.0000     4          
   174  Cl    c     12.1162 *    -5.5074 *     0.0000    0.0000     2          
   175  Na    c      1.1015 *     1.1015      13.2177 *  0.0000     2          
   176  Na    c      1.1015 *     9.9133 *     8.8118 *  0.0000     4          
   177  Na    c      5.5074 *   -12.1162 *     0.0000    0.0000     2          
   178  Na    c      9.9133 *    -7.7103 *     4.4059 *  0.0000     4          
   179  O     c      1.1015 *    -7.7103 *    11.0148 *  0.0000     4          
   180  O     c      5.5074 *     5.5074      11.0148 *  0.0000     2          
   181  O     c      5.5074 *   -12.1162 *    -2.2030 *  0.0000     4          
   182  Na    c     -1.1015 *    -7.7103 *    11.0148 *  0.0000     4          
   183  Na    c      7.7103 *     1.1015 *    11.0148 *  0.0000     4          
   184  Na    c     12.1162 *     5.5074 *    -2.2030 *  0.0000     4          
   185  Na    c     -5.5074 *     5.5074 *    11.0148 *  0.0000     4          
   186  Na    c     -5.5074 *   -12.1162 *    -2.2030 *  0.0000     4          
   187  Cl    c     -1.1015 *     3.3044 *    13.2177 *  0.0000     4          
   188  Na    c      1.1015 *    -3.3044 *    13.2177 *  0.0000     4          
   189  Cl    c      3.3044 *    -9.9133 *     8.8118 *  0.0000     4          
   190  Na    c      9.9133 *    -3.3044 *     8.8118 *  0.0000     4          
   191  O     c     -3.3044 *    -7.7103 *    11.0148 *  0.0000     4          
   192  Na    c      3.3044 *    -7.7103 *    11.0148 *  0.0000     4          
   193  Na    c      7.7103 *    -3.3044 *    11.0148 *  0.0000     4          
   194  O     c      1.1015 *   -12.1162 *     6.6089 *  0.0000     4          
   195  Na    c     -1.1015 *   -12.1162 *     6.6089 *  0.0000     4          
   196  Na    c     12.1162 *     1.1015 *     6.6089 *  0.0000     4          
   197  Cl    c      3.3044 *     3.3044      13.2177 *  0.0000     2          
   198  Cl    c      7.7103 *     7.7103       8.8118 *  0.0000     2          
   199  Cl    c     12.1162 *    -5.5074 *     4.4059 *  0.0000     4          
   200  Cl    c     -9.9133 *    -9.9133       0.0000    0.0000     1          
   201  Na    c      5.5074 *   -12.1162 *     4.4059 *  0.0000     4          
   202  Na    c      9.9133 *     9.9133       0.0000    0.0000     1          
   203  Na    c     -3.3044 *    -3.3044      13.2177 *  0.0000     2          
   204  Na    c     -7.7103 *    -7.7103       8.8118 *  0.0000     2          
   205  O     c      9.9133 *     9.9133      -2.2030 *  0.0000     2          
   206  O     c     -3.3044 *   -12.1162 *     6.6089 *  0.0000     4          
   207  Na    c      3.3044 *   -12.1162 *     6.6089 *  0.0000     4          
   208  Na    c     12.1162 *    -3.3044 *     6.6089 *  0.0000     4          
   209  Na    c     -9.9133 *     9.9133 *    -2.2030 *  0.0000     4          
   210  O     c      9.9133 *    -7.7103 *     6.6089 *  0.0000     4          
   211  Na    c      7.7103 *     9.9133 *     6.6089 *  0.0000     4          
   212  Na    c     -9.9133 *    -7.7103 *     6.6089 *  0.0000     4          
   213  Cl    c     -1.1015 *    -5.5074 *    13.2177 *  0.0000     4          
   214  Cl    c     -1.1015 *   -14.3192 *     0.0000    0.0000     2          
   215  Cl    c      7.7103 *    12.1162 *     0.0000    0.0000     2          
   216  Na    c      1.1015 *     5.5074 *    13.2177 *  0.0000     4          
   217  Na    c      1.1015 *    14.3192 *     0.0000    0.0000     2          
   218  Na    c     -7.7103 *   -12.1162 *     0.0000    0.0000     2          
   219  Cl    c     -5.5074 *    -9.9133 *     8.8118 *  0.0000     4          
   220  Na    c      5.5074 *     9.9133 *     8.8118 *  0.0000     4          
   221  O     c      1.1015 *    14.3192 *    -2.2030 *  0.0000     4          
   222  O     c     -7.7103 *   -12.1162 *    -2.2030 *  0.0000     4          
   223  Na    c     -1.1015 *    14.3192 *    -2.2030 *  0.0000     4          
   224  Na    c      7.7103 *   -12.1162 *    -2.2030 *  0.0000     4          
   225  Na    c     12.1162 *    -7.7103 *    -2.2030 *  0.0000     4          
   226  Na    c    -14.3192 *     1.1015 *    -2.2030 *  0.0000     4          
   227  O     c      5.5074 *    -7.7103 *    11.0148 *  0.0000     4          
   228  Na    c      7.7103 *     5.5074 *    11.0148 *  0.0000     4          
   229  Na    c     -5.5074 *    -7.7103 *    11.0148 *  0.0000     4          
   230  Cl    c      3.3044 *   -14.3192 *     0.0000    0.0000     2          
   231  Na    c     14.3192 *    -3.3044 *     0.0000    0.0000     2          
   232  Cl    c      3.3044 *    -5.5074 *    13.2177 *  0.0000     4          
   233  Cl    c     -9.9133 *    -9.9133       4.4059 *  0.0000     2          
   234  Na    c      5.5074 *    -3.3044 *    13.2177 *  0.0000     4          
   235  Na    c      9.9133 *     9.9133       4.4059 *  0.0000     2          
   236  O     c     14.3192 *    -3.3044 *    -2.2030 *  0.0000     4          
   237  Na    c      3.3044 *    14.3192 *    -2.2030 *  0.0000     4          
   238  Na    c    -14.3192 *    -3.3044 *    -2.2030 *  0.0000     4          
   239  O     c      1.1015 *     9.9133 *    11.0148 *  0.0000     4          
   240  Na    c     -1.1015 *     9.9133 *    11.0148 *  0.0000     4          
   241  Na    c     -9.9133 *     1.1015 *    11.0148 *  0.0000     4          
   242  O     c      5.5074 *   -12.1162 *     6.6089 *  0.0000     4          
   243  Na    c     12.1162 *     5.5074 *     6.6089 *  0.0000     4          
   244  Na    c     -5.5074 *   -12.1162 *     6.6089 *  0.0000     4          
   245  Cl    c     -1.1015 *   -14.3192 *     4.4059 *  0.0000     4          
   246  Cl    c      7.7103 *    12.1162 *     4.4059 *  0.0000     4          
   247  Na    c      1.1015 *    14.3192 *     4.4059 *  0.0000     4          
   248  Na    c     -7.7103 *   -12.1162 *     4.4059 *  0.0000     4          
   249  Cl    c     -1.1015 *    12.1162 *     8.8118 *  0.0000     4          
   250  Na    c      1.1015 *   -12.1162 *     8.8118 *  0.0000     4          
   251  O     c      9.9133 *    -3.3044 *    11.0148 *  0.0000     4          
   252  Na    c      3.3044 *     9.9133 *    11.0148 *  0.0000     4          
   253  Na    c     -9.9133 *    -3.3044 *    11.0148 *  0.0000     4          
   254  Cl    c      3.3044 *   -14.3192 *     4.4059 *  0.0000     4          
   255  Na    c     14.3192 *    -3.3044 *     4.4059 *  0.0000     4          
   256  Cl    c     -1.1015 *     7.7103 *    13.2177 *  0.0000     4          
   257  Cl    c      3.3044 *    12.1162 *     8.8118 *  0.0000     4          
   258  Cl    c     -5.5074 *    -5.5074      13.2177 *  0.0000     2          
   259  Cl    c     -5.5074 *   -14.3192 *     0.0000    0.0000     2          
   260  Na    c      1.1015 *    -7.7103 *    13.2177 *  0.0000     4          
   261  Na    c      5.5074 *     5.5074      13.2177 *  0.0000     2          
   262  Na    c      5.5074 *    14.3192 *     0.0000    0.0000     2          
   263  Na    c     -3.3044 *   -12.1162 *     8.8118 *  0.0000     4          
   264  Cl    c      7.7103 *    -9.9133 *     8.8118 *  0.0000     4          
   265  Na    c      9.9133 *    -7.7103 *     8.8118 *  0.0000     4          
   266  O     c      5.5074 *    14.3192 *    -2.2030 *  0.0000     4          
   267  Na    c     -5.5074 *    14.3192 *    -2.2030 *  0.0000     4          
   268  Na    c    -14.3192 *     5.5074 *    -2.2030 *  0.0000     4          
   269  O     c      1.1015 *     1.1015      15.4207 *  0.0000     2          
   270  O     c      9.9133 *     9.9133       6.6089 *  0.0000     2          
   271  O     c     -7.7103 *    -7.7103      11.0148 *  0.0000     2          
   272  Na    c     -1.1015 *     1.1015 *    15.4207 *  0.0000     4          
   273  Na    c      7.7103 *    -7.7103 *    11.0148 *  0.0000     4          
   274  Na    c     -9.9133 *     9.9133 *     6.6089 *  0.0000     4          
   275  Cl    c      3.3044 *     7.7103 *    13.2177 *  0.0000     4          
   276  Cl    c     12.1162 *    -9.9133 *     0.0000    0.0000     2          
   277  Na    c      9.9133 *   -12.1162 *     0.0000    0.0000     2          
   278  Na    c     -3.3044 *    -7.7103 *    13.2177 *  0.0000     4          
   279  O     c      1.1015 *    14.3192 *     6.6089 *  0.0000     4          
   280  O     c      1.1015 *    -3.3044 *    15.4207 *  0.0000     4          
   281  O     c      5.5074 *     9.9133 *    11.0148 *  0.0000     4          
   282  O     c      9.9133 *   -12.1162 *    -2.2030 *  0.0000     4          
   283  O     c     -7.7103 *   -12.1162 *     6.6089 *  0.0000     4          
   284  Na    c     -1.1015 *    14.3192 *     6.6089 *  0.0000     4          
   285  Na    c     -1.1015 *    -3.3044 *    15.4207 *  0.0000     4          
   286  Na    c      3.3044 *     1.1015 *    15.4207 *  0.0000     4          
   287  Na    c      7.7103 *   -12.1162 *     6.6089 *  0.0000     4          
   288  Na    c     12.1162 *     9.9133 *    -2.2030 *  0.0000     4          
   289  Na    c     12.1162 *    -7.7103 *     6.6089 *  0.0000     4          
   290  Na    c     -5.5074 *     9.9133 *    11.0148 *  0.0000     4          
   291  Na    c     -9.9133 *     5.5074 *    11.0148 *  0.0000     4          
   292  Na    c     -9.9133 *   -12.1162 *    -2.2030 *  0.0000     4          
   293  Na    c    -14.3192 *     1.1015 *     6.6089 *  0.0000     4          
   294  Cl    c     -5.5074 *   -14.3192 *     4.4059 *  0.0000     4          
   295  Na    c      5.5074 *    14.3192 *     4.4059 *  0.0000     4          
   296  Cl    c     12.1162 *    -5.5074 *     8.8118 *  0.0000     4          
   297  Na    c      5.5074 *   -12.1162 *     8.8118 *  0.0000     4          
   298  O     s      1.1015 *     1.1015      -2.2030 *  0.0000     2          
   299  Cl    s     -1.1015 *     3.3044 *     0.0000    0.0000     2          
   300  O     s      1.1015 *    -3.3044 *    -2.2030 *  0.0000     4          
   301  Cl    s     -1.1015 *    -1.1015       4.4059 *  0.0000     2          
   302  Cl    s      3.3044 *     3.3044       0.0000    0.0000     1          
   303  O     s     -3.3044 *    -3.3044      -2.2030 *  0.0000     2          
   304  Cl    s     -1.1015 *     3.3044 *     4.4059 *  0.0000     4          
   305  Cl    s     -1.1015 *    -5.5074 *     0.0000    0.0000     2          
   306  O     s      1.1015 *     5.5074 *    -2.2030 *  0.0000     4          
   307  Cl    s      3.3044 *     3.3044       4.4059 *  0.0000     2          
   308  Cl    s      3.3044 *    -5.5074 *     0.0000    0.0000     2          
   309  O     s      5.5074 *    -3.3044 *    -2.2030 *  0.0000     4          
   310  O     s      1.1015 *     1.1015       6.6089 *  0.0000     2          
   311  Cl    s     -1.1015 *    -5.5074 *     4.4059 *  0.0000     4          
   312  O     s      1.1015 *    -3.3044 *     6.6089 *  0.0000     4          
   313  Cl    s     -1.1015 *     7.7103 *     0.0000    0.0000     2          
   314  Cl    s      3.3044 *    -5.5074 *     4.4059 *  0.0000     4          
   315  Cl    s     -5.5074 *    -5.5074       0.0000    0.0000     1          
   316  O     s      1.1015 *    -7.7103 *    -2.2030 *  0.0000     4          
   317  O     s      5.5074 *     5.5074      -2.2030 *  0.0000     2          
   318  O     s     -3.3044 *    -3.3044       6.6089 *  0.0000     2          
   319  Cl    s      3.3044 *     7.7103 *     0.0000    0.0000     2          
   320  O     s      1.1015 *     5.5074 *     6.6089 *  0.0000     4          
   321  O     s     -3.3044 *    -7.7103 *    -2.2030 *  0.0000     4          
   322  Cl    s     -1.1015 *     7.7103 *     4.4059 *  0.0000     4          
   323  Cl    s     -1.1015 *    -1.1015       8.8118 *  0.0000     2          
   324  Cl    s     -5.5074 *    -5.5074       4.4059 *  0.0000     2          
   325  O     s      5.5074 *    -3.3044 *     6.6089 *  0.0000     4          
   326  Cl    s     -1.1015 *     3.3044 *     8.8118 *  0.0000     4          
   327  Cl    s      3.3044 *     7.7103 *     4.4059 *  0.0000     4          
   328  Cl    s      7.7103 *    -5.5074 *     0.0000    0.0000     2          
   329  O     s      5.5074 *    -7.7103 *    -2.2030 *  0.0000     4          
   330  Cl    s     -1.1015 *    -9.9133 *     0.0000    0.0000     2          
   331  Cl    s      3.3044 *     3.3044       8.8118 *  0.0000     2          
   332  O     s      1.1015 *    -7.7103 *     6.6089 *  0.0000     4          
   333  O     s      5.5074 *     5.5074       6.6089 *  0.0000     2          
   334  O     s      1.1015 *     9.9133 *    -2.2030 *  0.0000     4          
   335  Cl    s      7.7103 *    -5.5074 *     4.4059 *  0.0000     4          
   336  Cl    s     -1.1015 *    -5.5074 *     8.8118 *  0.0000     4          
   337  Cl    s      3.3044 *    -9.9133 *     0.0000    0.0000     2          
   338  O     s      9.9133 *    -3.3044 *    -2.2030 *  0.0000     4          
   339  O     s     -3.3044 *    -7.7103 *     6.6089 *  0.0000     4          
   340  Cl    s     -1.1015 *    -9.9133 *     4.4059 *  0.0000     4          
   341  Cl    s      3.3044 *    -5.5074 *     8.8118 *  0.0000     4          
   342  Cl    s      7.7103 *     7.7103       0.0000    0.0000     1          
   343  O     s      1.1015 *     1.1015      11.0148 *  0.0000     2          
   344  O     s     -7.7103 *    -7.7103      -2.2030 *  0.0000     2          
   345  Cl    s      3.3044 *    -9.9133 *     4.4059 *  0.0000     4          
   346  Cl    s     -5.5074 *    -9.9133 *     0.0000    0.0000     2          
   347  O     s      1.1015 *    -3.3044 *    11.0148 *  0.0000     4          
   348  O     s      5.5074 *     9.9133 *    -2.2030 *  0.0000     4          
   349  O     s      5.5074 *    -7.7103 *     6.6089 *  0.0000     4          
   350  Cl    s     -1.1015 *     7.7103 *     8.8118 *  0.0000     4          
   351  Cl    s      7.7103 *     7.7103       4.4059 *  0.0000     2          
   352  Cl    s     -5.5074 *    -5.5074       8.8118 *  0.0000     2          
   353  O     s     -3.3044 *    -3.3044      11.0148 *  0.0000     2          
   354  O     s      1.1015 *     9.9133 *     6.6089 *  0.0000     4          
   355  Cl    s     -1.1015 *    12.1162 *     0.0000    0.0000     2          
   356  Cl    s      3.3044 *     7.7103 *     8.8118 *  0.0000     4          
   357  Cl    s     -5.5074 *    -9.9133 *     4.4059 *  0.0000     4          
   358  O     s      1.1015 *     5.5074 *    11.0148 *  0.0000     4          
   359  O     s      1.1015 *   -12.1162 *    -2.2030 *  0.0000     4          
   360  O     s      9.9133 *    -3.3044 *     6.6089 *  0.0000     4          
   361  Cl    s      3.3044 *    12.1162 *     0.0000    0.0000     2          
   362  Cl    s      7.7103 *    -9.9133 *     0.0000    0.0000     2          
   363  O     s      5.5074 *    -3.3044 *    11.0148 *  0.0000     4          
   364  O     s     -3.3044 *   -12.1162 *    -2.2030 *  0.0000     4          
   365  O     s      9.9133 *    -7.7103 *    -2.2030 *  0.0000     4          
   366  O     s     -7.7103 *    -7.7103       6.6089 *  0.0000     2          
   367  Cl    s     -1.1015 *    12.1162 *     4.4059 *  0.0000     4          
   368  Cl    s      7.7103 *    -5.5074 *     8.8118 *  0.0000     4          
   369  O     s      5.5074 *     9.9133 *     6.6089 *  0.0000     4          
   370  Cl    s      3.3044 *    12.1162 *     4.4059 *  0.0000     4          
   371  Cl    s     -1.1015 *    -1.1015      13.2177 *  0.0000     2          
   372  Cl    s     -1.1015 *    -9.9133 *     8.8118 *  0.0000     4          
   373  Cl    s      7.7103 *    -9.9133 *     4.4059 *  0.0000     4          
   374  Cl    s     12.1162 *    -5.5074 *     0.0000    0.0000     2          
   375  O     s      1.1015 *    -7.7103 *    11.0148 *  0.0000     4          
   376  O     s      5.5074 *     5.5074      11.0148 *  0.0000     2          
   377  O     s      5.5074 *   -12.1162 *    -2.2030 *  0.0000     4          
   378  Cl    s     -1.1015 *     3.3044 *    13.2177 *  0.0000     4          
   379  Cl    s      3.3044 *    -9.9133 *     8.8118 *  0.0000     4          
   380  O     s     -3.3044 *    -7.7103 *    11.0148 *  0.0000     4          
   381  O     s      1.1015 *   -12.1162 *     6.6089 *  0.0000     4          
   382  Cl    s      3.3044 *     3.3044      13.2177 *  0.0000     2          
   383  Cl    s      7.7103 *     7.7103       8.8118 *  0.0000     2          
   384  Cl    s     12.1162 *    -5.5074 *     4.4059 *  0.0000     4          
   385  Cl    s     -9.9133 *    -9.9133       0.0000    0.0000     1          
   386  O     s      9.9133 *     9.9133      -2.2030 *  0.0000     2          
   387  O     s     -3.3044 *   -12.1162 *     6.6089 *  0.0000     4          
   388  O     s      9.9133 *    -7.7103 *     6.6089 *  0.0000     4          
   389  Cl    s     -1.1015 *    -5.5074 *    13.2177 *  0.0000     4          
   390  Cl    s     -1.1015 *   -14.3192 *     0.0000    0.0000     2          
   391  Cl    s      7.7103 *    12.1162 *     0.0000    0.0000     2          
   392  Cl    s     -5.5074 *    -9.9133 *     8.8118 *  0.0000     4          
   393  O     s      1.1015 *    14.3192 *    -2.2030 *  0.0000     4          
   394  O     s     -7.7103 *   -12.1162 *    -2.2030 *  0.0000     4          
   395  O     s      5.5074 *    -7.7103 *    11.0148 *  0.0000     4          
   396  Cl    s      3.3044 *   -14.3192 *     0.0000    0.0000     2          
   397  Cl    s      3.3044 *    -5.5074 *    13.2177 *  0.0000     4          
   398  Cl    s     -9.9133 *    -9.9133       4.4059 *  0.0000     2          
   399  O     s     14.3192 *    -3.3044 *    -2.2030 *  0.0000     4          
   400  O     s      1.1015 *     9.9133 *    11.0148 *  0.0000     4          
   401  O     s      5.5074 *   -12.1162 *     6.6089 *  0.0000     4          
   402  Cl    s     -1.1015 *   -14.3192 *     4.4059 *  0.0000     4          
   403  Cl    s      7.7103 *    12.1162 *     4.4059 *  0.0000     4          
   404  Cl    s     -1.1015 *    12.1162 *     8.8118 *  0.0000     4          
   405  O     s      9.9133 *    -3.3044 *    11.0148 *  0.0000     4          
   406  Cl    s      3.3044 *   -14.3192 *     4.4059 *  0.0000     4          
   407  Cl    s     -1.1015 *     7.7103 *    13.2177 *  0.0000     4          
   408  Cl    s      3.3044 *    12.1162 *     8.8118 *  0.0000     4          
   409  Cl    s     -5.5074 *    -5.5074      13.2177 *  0.0000     2          
   410  Cl    s     -5.5074 *   -14.3192 *     0.0000    0.0000     2          
   411  Cl    s      7.7103 *    -9.9133 *     8.8118 *  0.0000     4          
   412  O     s      5.5074 *    14.3192 *    -2.2030 *  0.0000     4          
   413  O     s      1.1015 *     1.1015      15.4207 *  0.0000     2          
   414  O     s      9.9133 *     9.9133       6.6089 *  0.0000     2          
   415  O     s     -7.7103 *    -7.7103      11.0148 *  0.0000     2          
   416  Cl    s      3.3044 *     7.7103 *    13.2177 *  0.0000     4          
   417  Cl    s     12.1162 *    -9.9133 *     0.0000    0.0000     2          
   418  O     s      1.1015 *    14.3192 *     6.6089 *  0.0000     4          
   419  O     s      1.1015 *    -3.3044 *    15.4207 *  0.0000     4          
   420  O     s      5.5074 *     9.9133 *    11.0148 *  0.0000     4          
   421  O     s      9.9133 *   -12.1162 *    -2.2030 *  0.0000     4          
   422  O     s     -7.7103 *   -12.1162 *     6.6089 *  0.0000     4          
   423  Cl    s     -5.5074 *   -14.3192 *     4.4059 *  0.0000     4          
   424  Cl    s     12.1162 *    -5.5074 *     8.8118 *  0.0000     4          
--------------------------------------------------------------------------------


  Constraints on symmetry reduced coordinates :

--------------------------------------------------------------------------------
  Constraint no.      Unconstrained     Constrained    Coefficient    
                         Variable         Variable
--------------------------------------------------------------------------------
           1                 1 x             1 y         1.00000
           2                 8 x             8 y         1.00000
           3                 9 x             9 y         1.00000
           4                10 x            10 y         1.00000
           5                11 x            11 y         1.00000
           6                12 x            12 y         1.00000
           7                21 x            21 y         1.00000
           8                24 x            24 y         1.00000
           9                28 x            28 y         1.00000
          10                37 x            37 y         1.00000
          11                40 x            40 y         1.00000
          12                42 x            42 y         1.00000
          13                43 x            43 y         1.00000
          14                57 x            57 y         1.00000
          15                58 x            58 y         1.00000
          16                59 x            59 y         1.00000
          17                61 x            61 y         1.00000
          18                75 x            75 y         1.00000
          19                77 x            77 y         1.00000
          20                79 x            79 y         1.00000
          21               100 x           100 y         1.00000
          22               103 x           103 y         1.00000
          23               104 x           104 y         1.00000
          24               106 x           106 y         1.00000
          25               122 x           122 y         1.00000
          26               123 x           123 y         1.00000
          27               125 x           125 y         1.00000
          28               126 x           126 y         1.00000
          29               127 x           127 y         1.00000
          30               158 x           158 y         1.00000
          31               171 x           171 y         1.00000
          32               175 x           175 y         1.00000
          33               180 x           180 y         1.00000
          34               197 x           197 y         1.00000
          35               198 x           198 y         1.00000
          36               200 x           200 y         1.00000
          37               202 x           202 y         1.00000
          38               203 x           203 y         1.00000
          39               204 x           204 y         1.00000
          40               205 x           205 y         1.00000
          41               233 x           233 y         1.00000
          42               235 x           235 y         1.00000
          43               258 x           258 y         1.00000
          44               261 x           261 y         1.00000
          45               269 x           269 y         1.00000
          46               270 x           270 y         1.00000
          47               271 x           271 y         1.00000
          48               298 x           298 y         1.00000
          49               301 x           301 y         1.00000
          50               302 x           302 y         1.00000
          51               303 x           303 y         1.00000
          52               307 x           307 y         1.00000
          53               310 x           310 y         1.00000
          54               315 x           315 y         1.00000
          55               317 x           317 y         1.00000
          56               318 x           318 y         1.00000
          57               323 x           323 y         1.00000
          58               324 x           324 y         1.00000
          59               331 x           331 y         1.00000
          60               333 x           333 y         1.00000
          61               342 x           342 y         1.00000
          62               343 x           343 y         1.00000
          63               344 x           344 y         1.00000
          64               351 x           351 y         1.00000
          65               352 x           352 y         1.00000
          66               353 x           353 y         1.00000
          67               366 x           366 y         1.00000
          68               371 x           371 y         1.00000
          69               376 x           376 y         1.00000
          70               382 x           382 y         1.00000
          71               383 x           383 y         1.00000
          72               385 x           385 y         1.00000
          73               386 x           386 y         1.00000
          74               398 x           398 y         1.00000
          75               409 x           409 y         1.00000
          76               413 x           413 y         1.00000
          77               414 x           414 y         1.00000
          78               415 x           415 y         1.00000
--------------------------------------------------------------------------------


  Components of defect energy : 

--------------------------------------------------------------------------------
  Region 1 - region 1                   =     13.16768950 eV
  Region 1 - region 2a (unrelaxed)      =     -0.91229597 eV
  Region 1 - 2a (relaxed - correction)  =     -0.15705449 eV
  Region 1 (Total)                      =     12.09833903 eV
  Region 2a                             =      0.07852511 eV
  Region 2b                             =      0.00000000 eV
--------------------------------------------------------------------------------
  Total defect energy                   =     12.17686414 eV
--------------------------------------------------------------------------------

  Largest displacement in region 2 =   0.0330 Angstroms


  Number of variables =     1128

  Maximum number of calculations  =        1000
  Maximum Hessian update interval =          10
  Maximum step size               =   1.0000000
  Maximum parameter tolerance     =   0.0000100
  Maximum function  tolerance     =   0.0000100
  Maximum gradient  tolerance     =   0.0010000

  Symmetry adapted optimisation

  Symmetry to be used for second derivatives

  Newton-Raphson optimiser to be used

  BFGS hessian update to be used

  Lower half triangular hessian to be used

  Start of defect optimisation :

  Cycle:      0 Defect Energy:  12.176864  Gnorm:     0.015425  CPU:    4.078
  ** Hessian calculated **
  Cycle:      1 Defect Energy:  11.515795  Gnorm:     0.013425  CPU:   15.367
  Cycle:      2 Defect Energy:  10.794638  Gnorm:     0.010286  CPU:   22.164
  ** Hessian calculated **
  Cycle:      3 Defect Energy:   9.804203  Gnorm:     0.003436  CPU:   33.874
  Cycle:      4 Defect Energy:   9.693222  Gnorm:     0.001902  CPU:   35.054
  ** Hessian calculated **
  Cycle:      5 Defect Energy:   9.664531  Gnorm:     0.001329  CPU:   43.269
  Cycle:      6 Defect Energy:   9.651099  Gnorm:     0.000925  CPU:   44.551
  Cycle:      7 Defect Energy:   9.644899  Gnorm:     0.000635  CPU:   45.890
  Cycle:      8 Defect Energy:   9.642093  Gnorm:     0.000442  CPU:   47.269
  Cycle:      9 Defect Energy:   9.640860  Gnorm:     0.000305  CPU:   48.603
  Cycle:     10 Defect Energy:   9.640338  Gnorm:     0.000213  CPU:   49.890
  Cycle:     11 Defect Energy:   9.640157  Gnorm:     0.000146  CPU:   51.144
  Cycle:     12 Defect Energy:   9.640098  Gnorm:     0.000103  CPU:   52.392
  Cycle:     13 Defect Energy:   9.640116  Gnorm:     0.000067  CPU:   53.620
  Cycle:     14 Defect Energy:   9.640137  Gnorm:     0.000047  CPU:   54.888
  ** Hessian calculated **
  Cycle:     15 Defect Energy:   9.640162  Gnorm:     0.000033  CPU:   62.282
  Cycle:     16 Defect Energy:   9.640184  Gnorm:     0.000023  CPU:   63.658
  Cycle:     17 Defect Energy:   9.640201  Gnorm:     0.000016  CPU:   64.984
  Cycle:     18 Defect Energy:   9.640214  Gnorm:     0.000011  CPU:   66.220


  **** Optimisation achieved ****


  Final defect energy  =        9.64022369
  Final defect Gnorm   =        0.00000795

  Components of defect energy : 

--------------------------------------------------------------------------------
  Region 1 - region 1                   =      9.96617114 eV
  Region 1 - region 2a (unrelaxed)      =     -0.30359799 eV
  Region 1 - 2a (relaxed - correction)  =     -0.04474199 eV
  Region 1 (Total)                      =      9.61783116 eV
  Region 2a                             =      0.02239253 eV
  Region 2b                             =      0.00000000 eV
--------------------------------------------------------------------------------
  Total defect energy                   =      9.64022369 eV
--------------------------------------------------------------------------------

  Largest displacement in region 2 =   0.0330 Angstroms

  Final coordinates of region 1 :

--------------------------------------------------------------------------------
   No.  Atomic        x           y           z          Radius      Charge
        Label       (Angs)      (Angs)      (Angs)       (Angs)       (e) 
--------------------------------------------------------------------------------
     1  O     c     2.216161    2.216161   -2.392935    0.000000    0.183000
     2  O     c     2.216161    2.216161    2.392935    0.000000    0.183000
     3  Na    c     0.088410    2.318896   -2.287260    0.000000    1.000000
     4  Na    c     0.088410    2.318896    2.287260    0.000000    1.000000
     5  Na    c     2.318896    0.088410   -2.287260    0.000000    1.000000
     6  Na    c     2.318896    0.088410    2.287260    0.000000    1.000000
     7  Cl    c    -0.123570    4.475588    0.000000    0.000000    1.485000
     8  Cl    c     4.475588   -0.123570    0.000000    0.000000    1.485000
     9  Na    c     2.357964   -2.227222    0.000000    0.000000    1.000000
    10  Na    c    -2.227222    2.357964    0.000000    0.000000    1.000000
    11  O     c     2.183457   -2.147258   -2.178975    0.000000    0.183000
    12  O     c     2.183457   -2.147258    2.178975    0.000000    0.183000
    13  O     c    -2.147258    2.183457   -2.178975    0.000000    0.183000
    14  O     c    -2.147258    2.183457    2.178975    0.000000    0.183000
    15  Na    c     0.008707   -2.289966   -2.329008    0.000000    1.000000
    16  Na    c     0.008707   -2.289966    2.329008    0.000000    1.000000
    17  Na    c    -2.289966    0.008707   -2.329008    0.000000    1.000000
    18  Na    c    -2.289966    0.008707    2.329008    0.000000    1.000000
    19  Na    c     4.315605    2.214105   -1.858744    0.000000    1.000000
    20  Na    c     4.315605    2.214105    1.858744    0.000000    1.000000
    21  Na    c     2.214105    4.315605   -1.858744    0.000000    1.000000
    22  Na    c     2.214105    4.315605    1.858744    0.000000    1.000000
    23  Cl    c    -0.072542   -0.072542    4.419418    0.000000    1.485000
    24  Cl    c    -0.072542   -0.072542   -4.419418    0.000000    1.485000
    25  Cl    c     4.491135    4.491135    0.000000    0.000000    1.485000
    26  Na    c     2.395412    2.395412    4.478569    0.000000    1.000000
    27  Na    c     2.395412    2.395412   -4.478569    0.000000    1.000000
    28  Na    c    -2.316643   -2.316643    0.000000    0.000000    1.000000
    29  O     c    -2.179001   -2.179001   -2.180310    0.000000    0.183000
    30  O     c    -2.179001   -2.179001    2.180310    0.000000    0.183000
    31  Na    c     4.417381   -2.189492   -2.234920    0.000000    1.000000
    32  Na    c     4.417381   -2.189492    2.234920    0.000000    1.000000
    33  Na    c    -2.189492    4.417381   -2.234920    0.000000    1.000000
    34  Na    c    -2.189492    4.417381    2.234920    0.000000    1.000000
    35  Cl    c    -0.089010    4.427445    4.452926    0.000000    1.485000
    36  Cl    c    -0.089010    4.427445   -4.452926    0.000000    1.485000
    37  Cl    c     4.427445   -0.089010    4.452926    0.000000    1.485000
    38  Cl    c     4.427445   -0.089010   -4.452926    0.000000    1.485000
    39  Cl    c    -0.003962   -4.357980    0.000000    0.000000    1.485000
    40  Cl    c    -4.357980   -0.003962    0.000000    0.000000    1.485000
    41  Na    c     2.227255   -2.191073    4.405891    0.000000    1.000000
    42  Na    c     2.227255   -2.191073   -4.405891    0.000000    1.000000
    43  Na    c    -2.191073    2.227255    4.405891    0.000000    1.000000
    44  Na    c    -2.191073    2.227255   -4.405891    0.000000    1.000000
    45  Na    c     2.228513    6.806803    0.000000    0.000000    1.000000
    46  Na    c     6.806803    2.228513    0.000000    0.000000    1.000000
    47  O     c     2.199998    6.568030   -2.184787    0.000000    0.183000
    48  O     c     2.199998    6.568030    2.184787    0.000000    0.183000
    49  O     c     6.568030    2.199998   -2.184787    0.000000    0.183000
    50  O     c     6.568030    2.199998    2.184787    0.000000    0.183000
    51  Na    c     0.003819    6.575324   -2.180630    0.000000    1.000000
    52  Na    c     0.003819    6.575324    2.180630    0.000000    1.000000
    53  Na    c     6.575324    0.003819   -2.180630    0.000000    1.000000
    54  Na    c     6.575324    0.003819    2.180630    0.000000    1.000000
    55  Na    c    -4.390381    2.219386   -2.177615    0.000000    1.000000
    56  Na    c    -4.390381    2.219386    2.177615    0.000000    1.000000
    57  Na    c     2.219386   -4.390381   -2.177615    0.000000    1.000000
    58  Na    c     2.219386   -4.390381    2.177615    0.000000    1.000000
    59  Cl    c     4.469519    4.469519    4.491562    0.000000    1.485000
    60  Cl    c     4.469519    4.469519   -4.491562    0.000000    1.485000
    61  Cl    c     4.366524   -4.394073    0.000000    0.000000    1.485000
    62  Cl    c    -4.394073    4.366524    0.000000    0.000000    1.485000
    63  Na    c     6.597372   -2.195886    0.000000    0.000000    1.000000
    64  Na    c    -2.195886    6.597372    0.000000    0.000000    1.000000
    65  Na    c    -2.200975   -2.200975    4.420697    0.000000    1.000000
    66  Na    c    -2.200975   -2.200975   -4.420697    0.000000    1.000000
    67  O     c     6.614242   -2.210120   -2.210579    0.000000    0.183000
    68  O     c     6.614242   -2.210120    2.210579    0.000000    0.183000
    69  O     c    -2.210120    6.614242   -2.210579    0.000000    0.183000
    70  O     c    -2.210120    6.614242    2.210579    0.000000    0.183000
    71  Na    c     4.400642    6.577238   -2.228210    0.000000    1.000000
    72  Na    c     4.400642    6.577238    2.228210    0.000000    1.000000
    73  Na    c     6.577238    4.400642   -2.228210    0.000000    1.000000
    74  Na    c     6.577238    4.400642    2.228210    0.000000    1.000000
    75  Na    c    -4.408201   -2.205694   -2.225313    0.000000    1.000000
    76  Na    c    -4.408201   -2.205694    2.225313    0.000000    1.000000
    77  Na    c    -2.205694   -4.408201   -2.225313    0.000000    1.000000
    78  Na    c    -2.205694   -4.408201    2.225313    0.000000    1.000000
    79  O     c     2.213840    2.213840    6.664435    0.000000    0.183000
    80  O     c     2.213840    2.213840   -6.664435    0.000000    0.183000
    81  Na    c     0.014724    2.214033    6.533098    0.000000    1.000000
    82  Na    c     0.014724    2.214033   -6.533098    0.000000    1.000000
    83  Na    c     2.214033    0.014724    6.533098    0.000000    1.000000
    84  Na    c     2.214033    0.014724   -6.533098    0.000000    1.000000
    85  Cl    c    -0.006038   -4.388509    4.373764    0.000000    1.485000
    86  Cl    c    -0.006038   -4.388509   -4.373764    0.000000    1.485000
    87  Cl    c    -4.388509   -0.006038    4.373764    0.000000    1.485000
    88  Cl    c    -4.388509   -0.006038   -4.373764    0.000000    1.485000
    89  Na    c     2.189035    6.356944    4.385626    0.000000    1.000000
    90  Na    c     2.189035    6.356944   -4.385626    0.000000    1.000000
    91  Na    c     6.356944    2.189035    4.385626    0.000000    1.000000
    92  Na    c     6.356944    2.189035   -4.385626    0.000000    1.000000
    93  O     c     2.201785   -2.191691    6.607246    0.000000    0.183000
    94  O     c     2.201785   -2.191691   -6.607246    0.000000    0.183000
    95  O     c    -2.191691    2.201785    6.607246    0.000000    0.183000
[...]
    344 x         -6.608853     -6.606736     0.002118    Cartesian   -0.03
    344 y         -6.608853     -6.606736     0.002118    Cartesian   -0.03
    344 z         -2.202951     -2.202405     0.000546    Cartesian   -0.02
    345 x          4.405902      4.398144    -0.007758    Cartesian   -0.18
    345 y         -8.811805     -8.807014     0.004791    Cartesian   -0.05
    345 z          4.405902      4.402314    -0.003588    Cartesian   -0.08
    346 x         -4.405902     -4.405994    -0.000091    Cartesian    0.00
    346 y         -8.811805     -8.803267     0.008538    Cartesian   -0.10
    346 z          0.000000      0.000000     0.000000    Cartesian    0.00
    347 x          2.202951      2.203013     0.000062    Cartesian    0.00
    347 y         -2.202951     -2.202400     0.000552    Cartesian   -0.03
    347 z         11.014756     11.019253     0.004497    Cartesian    0.04
    348 x          6.608853      6.607972    -0.000882    Cartesian   -0.01
    348 y         11.014756     11.012454    -0.002301    Cartesian   -0.02
    348 z         -2.202951     -2.202140     0.000812    Cartesian   -0.04
    349 x          6.608853      6.606125    -0.002728    Cartesian   -0.04
    349 y         -6.608853     -6.607600     0.001253    Cartesian   -0.02
    349 z          6.608853      6.606377    -0.002477    Cartesian   -0.04
    350 x          0.000000     -0.007868    -0.007868    Cartesian    0.00
    350 y          8.811805      8.811433    -0.000372    Cartesian   -0.00
    350 z          8.811805      8.818946     0.007141    Cartesian    0.08
    351 x          8.811805      8.818683     0.006878    Cartesian    0.08
    351 y          8.811805      8.818683     0.006878    Cartesian    0.08
    351 z          4.405902      4.410620     0.004717    Cartesian    0.11
    352 x         -4.405902     -4.412248    -0.006345    Cartesian    0.14
    352 y         -4.405902     -4.412248    -0.006345    Cartesian    0.14
    352 z          8.811805      8.806395    -0.005410    Cartesian   -0.06
    353 x         -2.202951     -2.203536    -0.000584    Cartesian    0.03
    353 y         -2.202951     -2.203536    -0.000584    Cartesian    0.03
    353 z         11.014756     11.017006     0.002250    Cartesian    0.02
    354 x          2.202951      2.201989    -0.000962    Cartesian   -0.04
    354 y         11.014756     11.010561    -0.004195    Cartesian   -0.04
    354 z          6.608853      6.600183    -0.008670    Cartesian   -0.13
    355 x          0.000000     -0.004673    -0.004673    Cartesian    0.00
    355 y         13.217707     13.217202    -0.000505    Cartesian   -0.00
    355 z          0.000000      0.000000     0.000000    Cartesian    0.00
    356 x          4.405902      4.402899    -0.003003    Cartesian   -0.07
    356 y          8.811805      8.814386     0.002581    Cartesian    0.03
    356 z          8.811805      8.819527     0.007723    Cartesian    0.09
    357 x         -4.405902     -4.405799     0.000104    Cartesian   -0.00
    357 y         -8.811805     -8.804312     0.007493    Cartesian   -0.09
    357 z          4.405902      4.402000    -0.003902    Cartesian   -0.09
    358 x          2.202951      2.203561     0.000610    Cartesian    0.03
    358 y          6.608853      6.617008     0.008154    Cartesian    0.12
    358 z         11.014756     11.011698    -0.003058    Cartesian   -0.03
    359 x          2.202951      2.202446    -0.000505    Cartesian   -0.02
    359 y        -11.014756    -11.010442     0.004314    Cartesian   -0.04
    359 z         -2.202951     -2.203206    -0.000255    Cartesian    0.01
    360 x         11.014756     11.015809     0.001053    Cartesian    0.01
    360 y         -2.202951     -2.203493    -0.000541    Cartesian    0.02
    360 z          6.608853      6.609879     0.001026    Cartesian    0.02
    361 x          4.405902      4.401738    -0.004165    Cartesian   -0.09
    361 y         13.217707     13.218282     0.000575    Cartesian    0.00
    361 z          0.000000      0.000000     0.000000    Cartesian    0.00
    362 x          8.811805      8.803049    -0.008755    Cartesian   -0.10
    362 y         -8.811805     -8.814264    -0.002459    Cartesian    0.03
    362 z          0.000000      0.000000     0.000000    Cartesian    0.00
    363 x          6.608853      6.608988     0.000134    Cartesian    0.00
    363 y         -2.202951     -2.203938    -0.000987    Cartesian    0.04
    363 z         11.014756     11.016407     0.001651    Cartesian    0.01
    364 x         -2.202951     -2.202200     0.000751    Cartesian   -0.03
    364 y        -11.014756    -11.013326     0.001430    Cartesian   -0.01
    364 z         -2.202951     -2.202298     0.000653    Cartesian   -0.03
    365 x         11.014756     11.015039     0.000283    Cartesian    0.00
    365 y         -6.608853     -6.609548    -0.000695    Cartesian    0.01
    365 z         -2.202951     -2.202936     0.000015    Cartesian   -0.00
    366 x         -6.608853     -6.606849     0.002004    Cartesian   -0.03
    366 y         -6.608853     -6.606849     0.002004    Cartesian   -0.03
    366 z          6.608853      6.605121    -0.003732    Cartesian   -0.06
    367 x          0.000000     -0.004262    -0.004262    Cartesian    0.00
    367 y         13.217707     13.217365    -0.000342    Cartesian   -0.00
    367 z          4.405902      4.405549    -0.000353    Cartesian   -0.01
    368 x          8.811805      8.810945    -0.000860    Cartesian   -0.01
    368 y         -4.405902     -4.415238    -0.009336    Cartesian    0.21
    368 z          8.811805      8.814317     0.002513    Cartesian    0.03
    369 x          6.608853      6.608698    -0.000155    Cartesian   -0.00
    369 y         11.014756     11.015026     0.000271    Cartesian    0.00
    369 z          6.608853      6.610278     0.001425    Cartesian    0.02
    370 x          4.405902      4.401086    -0.004817    Cartesian   -0.11
    370 y         13.217707     13.218141     0.000434    Cartesian    0.00
    370 z          4.405902      4.405805    -0.000098    Cartesian   -0.00
    371 x          0.000000     -0.005139    -0.005139    Cartesian    0.00
    371 y          0.000000     -0.005139    -0.005139    Cartesian    0.00
    371 z         13.217707     13.220166     0.002459    Cartesian    0.02
    372 x          0.000000     -0.004193    -0.004193    Cartesian    0.00
    372 y         -8.811805     -8.810963     0.000841    Cartesian   -0.01
    372 z          8.811805      8.806256    -0.005548    Cartesian   -0.06
    373 x          8.811805      8.804358    -0.007446    Cartesian   -0.08
    373 y         -8.811805     -8.814200    -0.002396    Cartesian    0.03
    373 z          4.405902      4.404571    -0.001332    Cartesian   -0.03
    374 x         13.217707     13.216217    -0.001490    Cartesian   -0.01
    374 y         -4.405902     -4.410800    -0.004897    Cartesian    0.11
    374 z          0.000000      0.000000     0.000000    Cartesian    0.00
    375 x          2.202951      2.203247     0.000296    Cartesian    0.01
    375 y         -6.608853     -6.609312    -0.000459    Cartesian    0.01
    375 z         11.014756     11.011530    -0.003226    Cartesian   -0.03
    376 x          6.608853      6.608887     0.000034    Cartesian    0.00
    376 y          6.608853      6.608887     0.000034    Cartesian    0.00
    376 z         11.014756     11.016680     0.001925    Cartesian    0.02
    377 x          6.608853      6.607529    -0.001324    Cartesian   -0.02
    377 y        -11.014756    -11.014146     0.000609    Cartesian   -0.01
    377 z         -2.202951     -2.202415     0.000536    Cartesian   -0.02
    378 x          0.000000     -0.003896    -0.003896    Cartesian    0.00
    378 y          4.405902      4.404712    -0.001190    Cartesian   -0.03
    378 z         13.217707     13.223761     0.006054    Cartesian    0.05
    379 x          4.405902      4.400407    -0.005495    Cartesian   -0.12
    379 y         -8.811805     -8.812032    -0.000228    Cartesian    0.00
    379 z          8.811805      8.807045    -0.004760    Cartesian   -0.05
    380 x         -2.202951     -2.203729    -0.000778    Cartesian    0.04
    380 y         -6.608853     -6.609549    -0.000696    Cartesian    0.01
    380 z         11.014756     11.015599     0.000843    Cartesian    0.01
    381 x          2.202951      2.202698    -0.000253    Cartesian   -0.01
    381 y        -11.014756    -11.013235     0.001521    Cartesian   -0.01
    381 z          6.608853      6.606690    -0.002164    Cartesian   -0.03
    382 x          4.405902      4.405454    -0.000448    Cartesian   -0.01
    382 y          4.405902      4.405454    -0.000448    Cartesian   -0.01
    382 z         13.217707     13.225598     0.007891    Cartesian    0.06
    383 x          8.811805      8.816001     0.004197    Cartesian    0.05
    383 y          8.811805      8.816001     0.004197    Cartesian    0.05
    383 z          8.811805      8.818086     0.006282    Cartesian    0.07
    384 x         13.217707     13.216677    -0.001030    Cartesian   -0.01
    384 y         -4.405902     -4.410690    -0.004787    Cartesian    0.11
    384 z          4.405902      4.406237     0.000335    Cartesian    0.01
    385 x         -8.811805     -8.808701     0.003103    Cartesian   -0.04
    385 y         -8.811805     -8.808701     0.003103    Cartesian   -0.04
    385 z          0.000000      0.000000     0.000000    Cartesian    0.00
    386 x         11.014756     11.014242    -0.000514    Cartesian   -0.00
    386 y         11.014756     11.014242    -0.000514    Cartesian   -0.00
    386 z         -2.202951     -2.203056    -0.000104    Cartesian    0.00
    387 x         -2.202951     -2.202816     0.000135    Cartesian   -0.01
    387 y        -11.014756    -11.014478     0.000277    Cartesian   -0.00
    387 z          6.608853      6.608616    -0.000238    Cartesian   -0.00
    388 x         11.014756     11.015221     0.000465    Cartesian    0.00
    388 y         -6.608853     -6.610231    -0.001378    Cartesian    0.02
    388 z          6.608853      6.608947     0.000094    Cartesian    0.00
    389 x          0.000000     -0.000979    -0.000979    Cartesian    0.00
    389 y         -4.405902     -4.409540    -0.003637    Cartesian    0.08
    389 z         13.217707     13.217536    -0.000171    Cartesian   -0.00
    390 x          0.000000     -0.002113    -0.002113    Cartesian    0.00
    390 y        -13.217707    -13.215913     0.001794    Cartesian   -0.01
    390 z          0.000000      0.000000     0.000000    Cartesian    0.00
    391 x          8.811805      8.810691    -0.001114    Cartesian   -0.01
    391 y         13.217707     13.218951     0.001244    Cartesian    0.01
    391 z          0.000000      0.000000     0.000000    Cartesian    0.00
    392 x         -4.405902     -4.406847    -0.000944    Cartesian    0.02
    392 y         -8.811805     -8.811282     0.000522    Cartesian   -0.01
    392 z          8.811805      8.806473    -0.005332    Cartesian   -0.06
    393 x          2.202951      2.203096     0.000145    Cartesian    0.01
    393 y         15.420658     15.416181    -0.004477    Cartesian   -0.03
    393 z         -2.202951     -2.195947     0.007004    Cartesian   -0.32
    394 x         -6.608853     -6.608395     0.000459    Cartesian   -0.01
    394 y        -11.014756    -11.014156     0.000600    Cartesian   -0.01
    394 z         -2.202951     -2.202170     0.000781    Cartesian   -0.04
    395 x          6.608853      6.607943    -0.000910    Cartesian   -0.01
    395 y         -6.608853     -6.608618     0.000236    Cartesian   -0.00
    395 z         11.014756     11.015023     0.000267    Cartesian    0.00
    396 x          4.405902      4.401408    -0.004494    Cartesian   -0.10
    396 y        -13.217707    -13.217017     0.000690    Cartesian   -0.01
    396 z          0.000000      0.000000     0.000000    Cartesian    0.00
    397 x          4.405902      4.401151    -0.004752    Cartesian   -0.11
    397 y         -4.405902     -4.409421    -0.003519    Cartesian    0.08
    397 z         13.217707     13.218994     0.001287    Cartesian    0.01
    398 x         -8.811805     -8.809534     0.002271    Cartesian   -0.03
    398 y         -8.811805     -8.809534     0.002271    Cartesian   -0.03
    398 z          4.405902      4.403550    -0.002352    Cartesian   -0.05
    399 x         15.420658     15.419910    -0.000748    Cartesian   -0.00
    399 y         -2.202951     -2.202575     0.000376    Cartesian   -0.02
    399 z         -2.202951     -2.203930    -0.000979    Cartesian    0.04
    400 x          2.202951      2.202050    -0.000901    Cartesian   -0.04
    400 y         11.014756     11.011092    -0.003664    Cartesian   -0.03
    400 z         11.014756     11.017004     0.002248    Cartesian    0.02
    401 x          6.608853      6.608007    -0.000846    Cartesian   -0.01
    401 y        -11.014756    -11.014250     0.000506    Cartesian   -0.00
    401 z          6.608853      6.608671    -0.000183    Cartesian   -0.00
    402 x          0.000000     -0.002848    -0.002848    Cartesian    0.00
    402 y        -13.217707    -13.214990     0.002717    Cartesian   -0.02
    402 z          4.405902      4.404064    -0.001838    Cartesian   -0.04
    403 x          8.811805      8.810814    -0.000991    Cartesian   -0.01
    403 y         13.217707     13.219780     0.002073    Cartesian    0.02
    403 z          4.405902      4.407311     0.001409    Cartesian    0.03
    404 x          0.000000     -0.005016    -0.005016    Cartesian    0.00
    404 y         13.217707     13.216928    -0.000779    Cartesian   -0.01
    404 z          8.811805      8.812514     0.000710    Cartesian    0.01
    405 x         11.014756     11.015882     0.001126    Cartesian    0.01
    405 y         -2.202951     -2.203816    -0.000865    Cartesian    0.04
    405 z         11.014756     11.014710    -0.000045    Cartesian   -0.00
    406 x          4.405902      4.402744    -0.003158    Cartesian   -0.07
    406 y        -13.217707    -13.216436     0.001271    Cartesian   -0.01
    406 z          4.405902      4.404795    -0.001107    Cartesian   -0.03
    407 x          0.000000     -0.000725    -0.000725    Cartesian    0.00
    407 y          8.811805      8.811215    -0.000590    Cartesian   -0.01
    407 z         13.217707     13.218998     0.001291    Cartesian    0.01
    408 x          4.405902      4.404651    -0.001252    Cartesian   -0.03
    408 y         13.217707     13.218797     0.001090    Cartesian    0.01
    408 z          8.811805      8.811686    -0.000119    Cartesian   -0.00
    409 x         -4.405902     -4.408931    -0.003029    Cartesian    0.07
    409 y         -4.405902     -4.408931    -0.003029    Cartesian    0.07
    409 z         13.217707     13.215063    -0.002644    Cartesian   -0.02
    410 x         -4.405902     -4.407521    -0.001619    Cartesian    0.04
    410 y        -13.217707    -13.214824     0.002883    Cartesian   -0.02
    410 z          0.000000      0.000000     0.000000    Cartesian    0.00
    411 x          8.811805      8.806580    -0.005224    Cartesian   -0.06
    411 y         -8.811805     -8.815166    -0.003361    Cartesian    0.04
    411 z          8.811805      8.810214    -0.001590    Cartesian   -0.02
    412 x          6.608853      6.608456    -0.000397    Cartesian   -0.01
    412 y         15.420658     15.419737    -0.000921    Cartesian   -0.01
    412 z         -2.202951     -2.204463    -0.001512    Cartesian    0.07
    413 x          2.202951      2.208023     0.005071    Cartesian    0.23
    413 y          2.202951      2.208023     0.005071    Cartesian    0.23
    413 z         15.420658     15.422652     0.001994    Cartesian    0.01
    414 x         11.014756     11.015874     0.001118    Cartesian    0.01
    414 y         11.014756     11.015874     0.001118    Cartesian    0.01
    414 z          6.608853      6.608638    -0.000216    Cartesian   -0.00
    415 x         -6.608853     -6.608664     0.000190    Cartesian   -0.00
    415 y         -6.608853     -6.608664     0.000190    Cartesian   -0.00
    415 z         11.014756     11.015006     0.000250    Cartesian    0.00
    416 x          4.405902      4.400713    -0.005189    Cartesian   -0.12
    416 y          8.811805      8.812630     0.000826    Cartesian    0.01
    416 z         13.217707     13.219766     0.002059    Cartesian    0.02
    417 x         13.217707     13.214730    -0.002977    Cartesian   -0.02
    417 y         -8.811805     -8.816637    -0.004832    Cartesian    0.05
    417 z          0.000000      0.000000     0.000000    Cartesian    0.00
    418 x          2.202951      2.202842    -0.000110    Cartesian   -0.00
    418 y         15.420658     15.416399    -0.004259    Cartesian   -0.03
    418 z          6.608853      6.612402     0.003549    Cartesian    0.05
    419 x          2.202951      2.202069    -0.000882    Cartesian   -0.04
    419 y         -2.202951     -2.205944    -0.002993    Cartesian    0.14
    419 z         15.420658     15.419635    -0.001023    Cartesian   -0.01
    420 x          6.608853      6.608685    -0.000169    Cartesian   -0.00
    420 y         11.014756     11.016566     0.001810    Cartesian    0.02
    420 z         11.014756     11.014294    -0.000462    Cartesian   -0.00
    421 x         11.014756     11.014288    -0.000468    Cartesian   -0.00
    421 y        -11.014756    -11.014873    -0.000117    Cartesian    0.00
    421 z         -2.202951     -2.202585     0.000366    Cartesian   -0.02
    422 x         -6.608853     -6.608667     0.000187    Cartesian   -0.00
    422 y        -11.014756    -11.013682     0.001073    Cartesian   -0.01
    422 z          6.608853      6.608557    -0.000296    Cartesian   -0.00
    423 x         -4.405902     -4.406342    -0.000440    Cartesian    0.01
    423 y        -13.217707    -13.215320     0.002387    Cartesian   -0.02
    423 z          4.405902      4.405074    -0.000828    Cartesian   -0.02
    424 x         13.217707     13.216137    -0.001570    Cartesian   -0.01
    424 y         -4.405902     -4.409443    -0.003540    Cartesian    0.08
    424 z          8.811805      8.812772     0.000967    Cartesian    0.01
--------------------------------------------------------------------------------


  Time to end of optimisation  =       67.4453 seconds


  Peak dynamic memory used =     454.06 MB 


  Timing analysis for GULP :

--------------------------------------------------------------------------------
  Task / Subroutine                                          Time (Seconds)
--------------------------------------------------------------------------------
  Calculation of reciprocal space energy and derivatives          0.0002
  Calculation of reciprocal space energy using symmetry           0.0004
  Calculation of real space energy and derivatives                0.0012
  Calculation of real space energy using symmetry                 0.0038
  Calculation for region 1 energy and derivatives (2-b)          20.8262
  Calculation for region 2a energy                               26.4199
  Calculation and manipulation of Hessian matrix                 18.3533
  Calculation of matrix inversion                                 1.5978
  Symmetry generation of equivalent positions                     0.0016
--------------------------------------------------------------------------------
  Total CPU time                                                 67.4453
--------------------------------------------------------------------------------


  Dump file written as Na3OCl.grs


  Job Finished at 18:35.55  1st September  2021                               

