********************************************************************************
*                       GENERAL UTILITY LATTICE PROGRAM                        *
*                                 Julian Gale                                  *
*                       Curtin Institute for Computation                       *
*                    School of Molecular and Life Sciences                     *
*                    Curtin University, Western Australia                      *
********************************************************************************
* Version = 5.2.0 * Last modified =  10th September 2020                       *
********************************************************************************
*  optimise     - perform optimisation run                                     *
*  conp         - constant pressure calculation                                *
*  property     - calculate properties for final geometry                      *
*  defect       - perform defect calculation after bulk run                    *
*  compare      - compare initial and final structures                         *
********************************************************************************

  Job Started  at 14:48.23  2nd January    2021                               

  Number of CPUs =     1


  Total number of configurations input =      1

********************************************************************************
*  Input for Configuration =   1                                               *
********************************************************************************

  Formula = ClONa3                                                      

  Number of irreducible atoms/shells =       5


  Total number atoms/shells =       7

  Dimensionality = 3               :  Bulk   


  Symmetry :

  Crystal family                   :  Cubic       
  Crystal class  (Groth - 1921)    :  Cubic Hexakisoctahedral              

  Space group (centrosymmetric)    :  P M 3 M         

  Patterson group                  :  P m -3 m 

  Cartesian lattice vectors (Angstroms) :

        4.504000    0.000000    0.000000
        0.000000    4.504000    0.000000
        0.000000    0.000000    4.504000

  Cell parameters (Angstroms/Degrees):

  a =       4.5040    alpha =  90.0000
  b =       4.5040    beta  =  90.0000
  c =       4.5040    gamma =  90.0000

  Initial cell volume =          91.368216 Angs**3

  Temperature of configuration =   0.00     K 

  Pressure of configuration =         0.000 GPa 

  Fractional coordinates of asymmetric unit :

--------------------------------------------------------------------------------
   No.  Atomic       x           y          z         Charge      Occupancy
        Label      (Frac)      (Frac)     (Frac)        (e)         (Frac)  
--------------------------------------------------------------------------------
      1 Cl    c    0.000000    0.000000    0.000000     1.48500    1.000000    
      2 O     c    0.500000    0.500000    0.500000     0.18300    1.000000    
      3 Na    c    0.500000    0.500000    0.000000     1.00000    1.000000    
      4 Cl    s    0.000000    0.000000    0.000000    -2.48500    1.000000    
      5 O     s    0.500000    0.500000    0.500000    -2.18300    1.000000    
--------------------------------------------------------------------------------


  Constraints : 

--------------------------------------------------------------------------------
  Constraint no.      Unconstrained     Constrained    Coefficient    Offset
                         Variable         Variable
--------------------------------------------------------------------------------
           1              Strain 1        Strain 2       1.00000      0.0000
           2              Strain 1        Strain 3       1.00000      0.0000
--------------------------------------------------------------------------------


********************************************************************************
*  General input information                                                   *
********************************************************************************

  Species output for all configurations : 

--------------------------------------------------------------------------------
  Species    Type    Atomic    Atomic    Charge       Radii (Angs)     Library
                     Number     Mass       (e)     Cova   Ionic  VDW   Symbol
--------------------------------------------------------------------------------
    Na       Core       11      22.99   1.000000   0.970  0.000  2.300          
    O        Core        8      16.00   0.183000   0.730  0.000  1.360          
    O        Shell       8       0.00  -2.183000   0.730  0.000  1.360          
    Cl       Core       17      35.45   1.485000   0.990  0.000  1.650          
    Cl       Shell      17       0.00  -2.485000   0.990  0.000  1.650          
    Mg       Core       12      24.31   0.415000   1.100  0.000  0.000          
    Mg       Shell      12       0.00   1.585000   1.100  0.000  0.000          
    Ca       Core       20      40.08  -1.135000   0.990  0.000  0.000          
    Ca       Shell      20       0.00   3.135000   0.990  0.000  0.000          
    Sr       Core       38      87.62  -1.251000   1.120  0.000  0.000          
    Sr       Shell      38       0.00   3.251000   1.120  0.000  0.000          
    Ba       Core       56     137.33  -7.203000   1.340  0.000  0.000          
    Ba       Shell      56       0.00   9.203000   1.340  0.000  0.000          
--------------------------------------------------------------------------------


  Lattice summation method               =    Ewald          (3-D)
                                         =    Parry          (2-D)
                                         =    Saunders et al (1-D)
  Accuracy factor for lattice sums       =   12.000


  Analytic derivatives to be used

  Time limit = Infinity

  Maximum range for interatomic potentials =    100000.000000 Angstroms

  General interatomic potentials :

--------------------------------------------------------------------------------
Atom  Types   Potential      Parameter       Value         Units   Cutoffs(Ang)
  1     2                                                            Min /  Max 
--------------------------------------------------------------------------------
O    c O    s Spring (c-s)  Spring k 2       593.71600    eV*Ang^-2 0.000  0.800
                            Spring k 4       0.0000000    eV*Ang^-4 
--------------------------------------------------------------------------------
Cl   c Cl   s Spring (c-s)  Spring k 2       29.380000    eV*Ang^-2 0.000  0.800
                            Spring k 4       0.0000000    eV*Ang^-4 
--------------------------------------------------------------------------------
Mg   c Mg   s Spring (c-s)  Spring k 2       361.60000    eV*Ang^-2 0.000  0.800
                            Spring k 4       0.0000000    eV*Ang^-4 
--------------------------------------------------------------------------------
Ca   c Ca   s Spring (c-s)  Spring k 2       110.20000    eV*Ang^-2 0.000  0.800
                            Spring k 4       0.0000000    eV*Ang^-4 
--------------------------------------------------------------------------------
Sr   c Sr   s Spring (c-s)  Spring k 2       71.700000    eV*Ang^-2 0.000  0.800
                            Spring k 4       0.0000000    eV*Ang^-4 
--------------------------------------------------------------------------------
Ba   c Ba   s Spring (c-s)  Spring k 2       495.20000    eV*Ang^-2 0.000  0.800
                            Spring k 4       0.0000000    eV*Ang^-4 
--------------------------------------------------------------------------------
Na   c Na   c Buckingham    Buckingham A     1788.1900    eV        0.000 12.000
                            Buckingham rho  0.15900000    Ang       
                            Buckingham C     0.0000000    eV*Ang^6  
--------------------------------------------------------------------------------
Na   c O    s Buckingham    Buckingham A     588.38000    eV        0.000 12.000
                            Buckingham rho  0.33800000    Ang       
                            Buckingham C     0.0000000    eV*Ang^6  
--------------------------------------------------------------------------------
Na   c Cl   s Buckingham    Buckingham A     1170.4100    eV        0.000 12.000
                            Buckingham rho  0.31500000    Ang       
                            Buckingham C     0.0000000    eV*Ang^6  
--------------------------------------------------------------------------------
O    s O    s Buckingham    Buckingham A     22764.300    eV        0.000 12.000
                            Buckingham rho  0.14900000    Ang       
                            Buckingham C     13.190000    eV*Ang^6  
--------------------------------------------------------------------------------
O    s Cl   s Buckingham    Buckingham A     8286.9100    eV        0.000 12.000
                            Buckingham rho  0.25900000    Ang       
                            Buckingham C     62.200000    eV*Ang^6  
--------------------------------------------------------------------------------
Cl   s Cl   s Buckingham    Buckingham A     1227.2000    eV        0.000 12.000
                            Buckingham rho  0.32100000    Ang       
                            Buckingham C     14.530000    eV*Ang^6  
--------------------------------------------------------------------------------
O    s Mg   s Buckingham    Buckingham A     1428.5000    eV        0.000 12.000
                            Buckingham rho  0.29450000    Ang       
                            Buckingham C     0.0000000    eV*Ang^6  
--------------------------------------------------------------------------------
Mg   s Cl   s Buckingham    Buckingham A     4914.5400    eV        0.000 12.000
                            Buckingham rho  0.25700000    Ang       
                            Buckingham C     0.0000000    eV*Ang^6  
--------------------------------------------------------------------------------
O    s Ca   s Buckingham    Buckingham A     1090.4000    eV        0.000 12.000
                            Buckingham rho  0.34370000    Ang       
                            Buckingham C     0.0000000    eV*Ang^6  
--------------------------------------------------------------------------------
Cl   s Ca   s Buckingham    Buckingham A     2302.0000    eV        0.000 12.000
                            Buckingham rho  0.34020000    Ang       
                            Buckingham C     0.0000000    eV*Ang^6  
--------------------------------------------------------------------------------
O    s Sr   s Buckingham    Buckingham A     959.10000    eV        0.000 12.000
                            Buckingham rho  0.37210000    Ang       
                            Buckingham C     0.0000000    eV*Ang^6  
--------------------------------------------------------------------------------
Cl   s Sr   s Buckingham    Buckingham A     2191.0900    eV        0.000 12.000
                            Buckingham rho  0.34570000    Ang       
                            Buckingham C     0.0000000    eV*Ang^6  
--------------------------------------------------------------------------------
O    s Ba   s Buckingham    Buckingham A     905.70000    eV        0.000 12.000
                            Buckingham rho  0.39760000    Ang       
                            Buckingham C     0.0000000    eV*Ang^6  
--------------------------------------------------------------------------------
Cl   s Ba   s Buckingham    Buckingham A     2704.5500    eV        0.000 12.000
                            Buckingham rho  0.35280000    Ang       
                            Buckingham C     0.0000000    eV*Ang^6  
--------------------------------------------------------------------------------

********************************************************************************
*  Output for configuration   1                                                *
********************************************************************************


  Components of energy : 

--------------------------------------------------------------------------------
  Interatomic potentials     =           4.94315381 eV    
  Monopole - monopole (real) =         -10.03624526 eV    
  Monopole - monopole (recip)=         -29.53581274 eV    
  Monopole - monopole (total)=         -39.57205800 eV    
--------------------------------------------------------------------------------
  Total lattice energy       =         -34.62890419 eV    
--------------------------------------------------------------------------------
  Total lattice energy       =           -3341.1599 kJ/(mole unit cells)
--------------------------------------------------------------------------------


  Number of variables =        1

  Maximum number of calculations  =          1000
  Maximum Hessian update interval =            10
  Maximum step size               =   1.000000000
  Maximum parameter tolerance     =   0.000010000
  Maximum function  tolerance     =   0.000010000
  Maximum gradient  tolerance     =   0.001000000
  Maximum gradient  component     =   0.010000000

  Symmetry constrained optimisation

  Symmetry used for second derivatives

  Cell parameters to be optimised using strains

  Newton-Raphson optimiser to be used

  BFGS hessian update to be used

  Lower half triangular hessian to be used

  Start of bulk optimisation :

  Cycle:      0 Energy:       -34.628904  Gnorm:      4.328237  CPU:    0.007
  ** Hessian calculated **
  Cycle:      1 Energy:       -34.677667  Gnorm:      0.044008  CPU:    0.009
  Cycle:      2 Energy:       -34.677671  Gnorm:      0.003653  CPU:    0.011


  **** Optimisation achieved ****


  Final energy =     -34.67767136 eV
  Final Gnorm  =       0.00000010

  Components of energy : 

--------------------------------------------------------------------------------
  Interatomic potentials     =           5.77546103 eV    
  Monopole - monopole (real) =         -10.25970290 eV    
  Monopole - monopole (recip)=         -30.19342950 eV    
  Monopole - monopole (total)=         -40.45313239 eV    
--------------------------------------------------------------------------------
  Total lattice energy       =         -34.67767136 eV    
--------------------------------------------------------------------------------
  Total lattice energy       =           -3345.8652 kJ/(mole unit cells)
--------------------------------------------------------------------------------

  Final asymmetric unit coordinates :

--------------------------------------------------------------------------------
   No.  Atomic        x           y           z         Radius
        Label       (Frac)      (Frac)      (Frac)       (Angs) 
--------------------------------------------------------------------------------
     1  Cl    c     0.000000    0.000000    0.000000    0.000000
     2  O     c     0.500000    0.500000    0.500000    0.000000
     3  Na    c     0.500000    0.500000    0.000000    0.000000
     4  Cl    s     0.000000    0.000000    0.000000    0.000000
     5  O     s     0.500000    0.500000    0.500000    0.000000
--------------------------------------------------------------------------------

  Final Cartesian lattice vectors (Angstroms) :

        4.405902    0.000000    0.000000
        0.000000    4.405902    0.000000
        0.000000    0.000000    4.405902


  Final cell parameters and derivatives :

--------------------------------------------------------------------------------
       a            4.405902 Angstrom     dE/de1(xx)     0.000000 eV/strain
       b            4.405902 Angstrom     dE/de2(yy)     0.000000 eV/strain
       c            4.405902 Angstrom     dE/de3(zz)     0.000000 eV/strain
       alpha       90.000000 Degrees      dE/de4(yz)     0.000000 eV/strain
       beta        90.000000 Degrees      dE/de5(xz)     0.000000 eV/strain
       gamma       90.000000 Degrees      dE/de6(xy)     0.000000 eV/strain
--------------------------------------------------------------------------------

  Primitive cell volume =            85.527266 Angs**3

  Density of cell =      2.338030 g/cm**3

  Non-primitive cell volume =            85.527266 Angs**3


  Final internal derivatives :

--------------------------------------------------------------------------------
   No.  Atomic          a             b             c           Radius
        Label          (eV)          (eV)          (eV)        (eV/Angs)
--------------------------------------------------------------------------------
      1 Cl    c       0.000000      0.000000      0.000000      0.000000
      2 O     c       0.000000      0.000000      0.000000      0.000000
      3 Na    c       0.000000      0.000000      0.000000      0.000000
      4 Cl    s       0.000000      0.000000      0.000000      0.000000
      5 O     s       0.000000      0.000000      0.000000      0.000000
--------------------------------------------------------------------------------
  Maximum abs         0.000000      0.000000      0.000000      0.000000
--------------------------------------------------------------------------------

  Comparison of initial and final structures : 

--------------------------------------------------------------------------------
  Parameter   Initial value   Final value   Difference    Units      Percent
--------------------------------------------------------------------------------
    Volume        91.368216     85.527266    -5.840950    Angs**3     -6.39
    a              4.504000      4.405902    -0.098098    Angstroms   -2.18
    b              4.504000      4.405902    -0.098098    Angstroms   -2.18
    c              4.504000      4.405902    -0.098098    Angstroms   -2.18
    alpha         90.000000     90.000000     0.000000    Degrees      0.00
    beta          90.000000     90.000000     0.000000    Degrees      0.00
    gamma         90.000000     90.000000     0.000000    Degrees      0.00
      1 x          0.000000      0.000000     0.000000    Fractional   0.00
      1 y          0.000000      0.000000     0.000000    Fractional   0.00
      1 z          0.000000      0.000000     0.000000    Fractional   0.00
      2 x          0.500000      0.500000     0.000000    Fractional   0.00
      2 y          0.500000      0.500000     0.000000    Fractional   0.00
      2 z          0.500000      0.500000     0.000000    Fractional   0.00
      3 x          0.500000      0.500000     0.000000    Fractional   0.00
      3 y          0.500000      0.500000     0.000000    Fractional   0.00
      3 z          0.000000      0.000000     0.000000    Fractional   0.00
      4 x          0.000000      0.000000     0.000000    Fractional   0.00
      4 y          0.000000      0.000000     0.000000    Fractional   0.00
      4 z          0.000000      0.000000     0.000000    Fractional   0.00
      5 x          0.500000      0.500000     0.000000    Fractional   0.00
      5 y          0.500000      0.500000     0.000000    Fractional   0.00
      5 z          0.500000      0.500000     0.000000    Fractional   0.00
--------------------------------------------------------------------------------


  Born effective charge tensors : 

-------------------------------------------------------------------------------
  Atom             x           y             z
-------------------------------------------------------------------------------
    1 Cl    x      -0.9918     -0.0000     -0.0000
            y      -0.0000     -0.9918     -0.0000
            z      -0.0000     -0.0000     -0.9918
-------------------------------------------------------------------------------
    2 O     x      -2.2939      0.0000      0.0000
            y       0.0000     -2.2939      0.0000
            z       0.0000      0.0000     -2.2939
-------------------------------------------------------------------------------
    3 Na    x       1.2243      0.0000      0.0000
            y       0.0000      1.2243     -0.0000
            z       0.0000      0.0000      0.8372
-------------------------------------------------------------------------------




  Elastic Constant Matrix: (Units=GPa)

-------------------------------------------------------------------------------
  Indices      1         2         3         4         5         6    
-------------------------------------------------------------------------------
       1     82.7680   24.3534   24.3534   -0.0000    0.0000   -0.0000
       2     24.3534   82.7680   24.3534    0.0000   -0.0000   -0.0000
       3     24.3534   24.3534   82.7680    0.0000   -0.0000    0.0000
       4     -0.0000    0.0000    0.0000   24.3534   -0.0000    0.0000
       5      0.0000   -0.0000   -0.0000   -0.0000   24.3534    0.0000
       6     -0.0000   -0.0000    0.0000    0.0000    0.0000   24.3534
-------------------------------------------------------------------------------


  Elastic Compliance Matrix: (Units=1/GPa)

-------------------------------------------------------------------------------
  Indices      1         2         3         4         5         6    
-------------------------------------------------------------------------------
       1    0.013948 -0.003171 -0.003171  0.000000 -0.000000  0.000000
       2   -0.003171  0.013948 -0.003171 -0.000000  0.000000 -0.000000
       3   -0.003171 -0.003171  0.013948 -0.000000  0.000000 -0.000000
       4    0.000000 -0.000000 -0.000000  0.041062  0.000000 -0.000000
       5   -0.000000  0.000000  0.000000  0.000000  0.041062 -0.000000
       6    0.000000 -0.000000 -0.000000 -0.000000 -0.000000  0.041062
-------------------------------------------------------------------------------

  Mechanical properties :

-------------------------------------------------------------------------------
  Convention :                    Reuss         Voigt         Hill
-------------------------------------------------------------------------------
  Bulk  Modulus (GPa)     =      43.82493      43.82493      43.82493
  Shear Modulus (GPa)     =      26.08758      26.29496      26.19127
-------------------------------------------------------------------------------
  Velocity S-wave (km/s)  =       3.34035       3.35360       3.34698
  Velocity P-wave (km/s)  =       5.79842       5.80861       5.80351
-------------------------------------------------------------------------------
  Compressibility (1/GPa) =    0.02281806
-------------------------------------------------------------------------------
  Stress axis :                     x             y             z
-------------------------------------------------------------------------------
  Youngs Moduli (GPa)     =      71.69479      71.69479      71.69479
-------------------------------------------------------------------------------
  Poissons Ratio (x)      =                     0.22734       0.22734
  Poissons Ratio (y)      =       0.22734                     0.22734
  Poissons Ratio (z)      =       0.22734       0.22734
-------------------------------------------------------------------------------


  Piezoelectric Strain Matrix: (Units=C/m**2)

-------------------------------------------------------------------------------
  Indices      1         2         3         4         5         6    
-------------------------------------------------------------------------------
       x    -0.00000  -0.00000  -0.00000  -0.00000   0.00000  -0.00000
       y     0.00000  -0.00000   0.00000   0.00000  -0.00000   0.00000
       z    -0.00000  -0.00000   0.00000  -0.00000   0.00000  -0.00000
-------------------------------------------------------------------------------


  Piezoelectric Stress Matrix: (Units=10**-11 C/N)

-------------------------------------------------------------------------------
  Indices      1         2         3         4         5         6    
-------------------------------------------------------------------------------
       x     0.00000  -0.00000  -0.00000  -0.00000   0.00000  -0.00000
       y     0.00000  -0.00000   0.00000   0.00000  -0.00000   0.00000
       z    -0.00000  -0.00000   0.00000  -0.00000   0.00000  -0.00000
-------------------------------------------------------------------------------


  Static dielectric constant tensor : 

-------------------------------------------------------------------------------
              x         y         z
-------------------------------------------------------------------------------
       x    11.08357   0.00000   0.00000
       y     0.00000  11.08357   0.00000
       z     0.00000   0.00000  11.08357
--------------------------------------------------------------------------------

  High frequency dielectric constant tensor : 

-------------------------------------------------------------------------------
              x         y         z
-------------------------------------------------------------------------------
       x     1.50771   0.00000   0.00000
       y     0.00000   1.50771   0.00000
       z     0.00000   0.00000   1.50771
-------------------------------------------------------------------------------

  Static refractive indices : 

-------------------------------------------------------------------------------
    1 =    3.32920      2 =    3.32920      3 =    3.32920
-------------------------------------------------------------------------------

  High frequency refractive indices : 

-------------------------------------------------------------------------------
    1 =    1.22789      2 =    1.22789      3 =    1.22789
-------------------------------------------------------------------------------


  Time to end of optimisation =       0.0157 seconds

********************************************************************************
*  Defect calculation for configuration   1 :                                  *
********************************************************************************

  Total number of defects =      1

  Total charge on defect  =   1.00

  Defect centre is at   0.0000   0.0000   0.0000  Frac

  Region 1 radius =  16.0000      Number of ions =   1408

  Number of symmetry inequivalent region 1 ions  =     63

  Region 2 radius =  24.0000      Number of ions =   3356

  Number of symmetry inequivalent region 2a ions =    105

  Region 2a mode = 4 : screened electrostatics due to region 1 
                       neglect correction to region 1 forces from 2a
                       region 2a displacements based on defects only

  Region 2a ions will only interact with defects in region 1

  Vacancies:

--------------------------------------------------------------------------------
    Specification type     Symbol/Number         x          y          z
--------------------------------------------------------------------------------
    Fractional                               0.000000   0.000000   0.000000
--------------------------------------------------------------------------------


  Symmetry reduced region 1 (Relative to defect centre) :

--------------------------------------------------------------------------------
   No.   Atomic       x            y             z       Radius  Multiplicity   
         Label      (Angs)       (Angs)        (Angs)    (Angs)     
--------------------------------------------------------------------------------
     1  Na    c     -2.2030 *    -2.2030       0.0000    0.0000    12          
     2  O     c     -2.2030 *    -2.2030      -2.2030    0.0000     8          
     3  Cl    c      0.0000       0.0000       4.4059 *  0.0000     6          
     4  Na    c      4.4059 *    -2.2030 *    -2.2030    0.0000    24          
     5  Cl    c      0.0000       4.4059 *     4.4059    0.0000    12          
     6  Na    c     -2.2030 *     6.6089 *     0.0000    0.0000    24          
     7  O     c     -2.2030 *     6.6089 *    -2.2030    0.0000    24          
     8  Cl    c      4.4059 *     4.4059       4.4059    0.0000     8          
     9  Na    c     -2.2030 *     6.6089 *     4.4059 *  0.0000    48          
    10  Cl    c      0.0000       0.0000       8.8118 *  0.0000     6          
    11  Na    c     -2.2030 *    -2.2030       8.8118 *  0.0000    24          
    12  Na    c      6.6089 *     6.6089       0.0000    0.0000    12          
    13  O     c     -2.2030 *     6.6089 *     6.6089    0.0000    24          
    14  Cl    c      0.0000       4.4059 *     8.8118 *  0.0000    24          
    15  Na    c      6.6089 *     6.6089       4.4059 *  0.0000    24          
    16  Cl    c      4.4059 *     8.8118 *     4.4059    0.0000    24          
    17  Na    c     -2.2030 *     6.6089 *     8.8118 *  0.0000    48          
    18  Na    c     -2.2030 *    11.0148 *     0.0000    0.0000    24          
    19  O     c     -2.2030 *    -2.2030      11.0148 *  0.0000    24          
    20  O     c      6.6089 *     6.6089       6.6089    0.0000     8          
    21  Na    c     -2.2030 *    11.0148 *     4.4059 *  0.0000    48          
    22  Cl    c      0.0000       8.8118 *     8.8118    0.0000    12          
    23  Na    c      6.6089 *     6.6089       8.8118 *  0.0000    24          
    24  Na    c      6.6089 *    11.0148 *     0.0000    0.0000    24          
    25  O     c      6.6089 *    11.0148 *    -2.2030 *  0.0000    48          
    26  Cl    c      0.0000       0.0000      13.2177 *  0.0000     6          
    27  Cl    c      4.4059 *     8.8118 *     8.8118    0.0000    24          
    28  Na    c      6.6089 *    11.0148 *     4.4059 *  0.0000    48          
    29  Na    c     13.2177 *    -2.2030 *    -2.2030    0.0000    24          
    30  Cl    c      0.0000       4.4059 *    13.2177 *  0.0000    24          
    31  Na    c     -2.2030 *    11.0148 *     8.8118 *  0.0000    48          
    32  O     c      6.6089 *     6.6089      11.0148 *  0.0000    24          
    33  Cl    c      4.4059 *    13.2177 *     4.4059    0.0000    24          
    34  Na    c     -2.2030 *     6.6089 *    13.2177 *  0.0000    48          
    35  Cl    c      8.8118 *     8.8118       8.8118    0.0000     8          
    36  Na    c     -2.2030 *    15.4207 *     0.0000    0.0000    24          
    37  Na    c      6.6089 *    11.0148 *     8.8118 *  0.0000    48          
    38  Na    c     11.0148 *    11.0148       0.0000    0.0000    12          
    39  O     c     -2.2030 *    11.0148 *    11.0148    0.0000    24          
    40  O     c     -2.2030 *    15.4207 *    -2.2030    0.0000    24          
    41  Cl    c      0.0000       8.8118 *    13.2177 *  0.0000    24          
    42  O     s     -2.2030 *    -2.2030      -2.2030    0.0000     8          
    43  Cl    s      0.0000       0.0000       4.4059 *  0.0000     6          
    44  Cl    s      0.0000       4.4059 *     4.4059    0.0000    12          
    45  O     s     -2.2030 *     6.6089 *    -2.2030    0.0000    24          
    46  Cl    s      4.4059 *     4.4059       4.4059    0.0000     8          
    47  Cl    s      0.0000       0.0000       8.8118 *  0.0000     6          
    48  O     s     -2.2030 *     6.6089 *     6.6089    0.0000    24          
    49  Cl    s      0.0000       4.4059 *     8.8118 *  0.0000    24          
    50  Cl    s      4.4059 *     8.8118 *     4.4059    0.0000    24          
    51  O     s     -2.2030 *    -2.2030      11.0148 *  0.0000    24          
    52  O     s      6.6089 *     6.6089       6.6089    0.0000     8          
    53  Cl    s      0.0000       8.8118 *     8.8118    0.0000    12          
    54  O     s      6.6089 *    11.0148 *    -2.2030 *  0.0000    48          
    55  Cl    s      0.0000       0.0000      13.2177 *  0.0000     6          
    56  Cl    s      4.4059 *     8.8118 *     8.8118    0.0000    24          
    57  Cl    s      0.0000       4.4059 *    13.2177 *  0.0000    24          
    58  O     s      6.6089 *     6.6089      11.0148 *  0.0000    24          
    59  Cl    s      4.4059 *    13.2177 *     4.4059    0.0000    24          
    60  Cl    s      8.8118 *     8.8118       8.8118    0.0000     8          
    61  O     s     -2.2030 *    11.0148 *    11.0148    0.0000    24          
    62  O     s     -2.2030 *    15.4207 *    -2.2030    0.0000    24          
    63  Cl    s      0.0000       8.8118 *    13.2177 *  0.0000    24          
--------------------------------------------------------------------------------


  Constraints on symmetry reduced coordinates :

--------------------------------------------------------------------------------
  Constraint no.      Unconstrained     Constrained    Coefficient    
                         Variable         Variable
--------------------------------------------------------------------------------
           1                 1 x             1 y         1.00000
           2                 2 x             2 y         1.00000
           3                 2 x             2 z         1.00000
           4                 4 y             4 z         1.00000
           5                 5 y             5 z         1.00000
           6                 7 x             7 z         1.00000
           7                 8 x             8 y         1.00000
           8                 8 x             8 z         1.00000
           9                11 x            11 y         1.00000
          10                12 x            12 y         1.00000
          11                13 y            13 z         1.00000
          12                15 x            15 y         1.00000
          13                16 x            16 z         1.00000
          14                19 x            19 y         1.00000
          15                20 x            20 y         1.00000
          16                20 x            20 z         1.00000
          17                22 y            22 z         1.00000
          18                23 x            23 y         1.00000
          19                27 y            27 z         1.00000
          20                29 y            29 z         1.00000
          21                32 x            32 y         1.00000
          22                33 x            33 z         1.00000
          23                35 x            35 y         1.00000
          24                35 x            35 z         1.00000
          25                38 x            38 y         1.00000
          26                39 y            39 z         1.00000
          27                40 x            40 z         1.00000
          28                42 x            42 y         1.00000
          29                42 x            42 z         1.00000
          30                44 y            44 z         1.00000
          31                45 x            45 z         1.00000
          32                46 x            46 y         1.00000
          33                46 x            46 z         1.00000
          34                48 y            48 z         1.00000
          35                50 x            50 z         1.00000
          36                51 x            51 y         1.00000
          37                52 x            52 y         1.00000
          38                52 x            52 z         1.00000
          39                53 y            53 z         1.00000
          40                56 y            56 z         1.00000
          41                58 x            58 y         1.00000
          42                59 x            59 z         1.00000
          43                60 x            60 y         1.00000
          44                60 x            60 z         1.00000
          45                61 y            61 z         1.00000
          46                62 x            62 z         1.00000
--------------------------------------------------------------------------------


  Components of defect energy : 

--------------------------------------------------------------------------------
  Region 1 - region 1                   =    -19.51876990 eV
  Region 1 - region 2a (unrelaxed)      =     27.76514934 eV
  Region 1 - 2a (relaxed - correction)  =     -0.27655192 eV
  Region 1 (Total)                      =      7.96982751 eV
  Region 2a                             =      0.13829334 eV
  Region 2b                             =     -0.27233987 eV
--------------------------------------------------------------------------------
  Total defect energy                   =      7.83578099 eV
--------------------------------------------------------------------------------

  Largest displacement in region 2 =   0.0087 Angstroms


  Number of variables =      114

  Maximum number of calculations  =        1000
  Maximum Hessian update interval =          10
  Maximum step size               =   1.0000000
  Maximum parameter tolerance     =   0.0000100
  Maximum function  tolerance     =   0.0000100
  Maximum gradient  tolerance     =   0.0010000

  Symmetry adapted optimisation

  Symmetry to be used for second derivatives

  Newton-Raphson optimiser to be used

  BFGS hessian update to be used

  Lower half triangular hessian to be used

  Start of defect optimisation :

  Cycle:      0 Defect Energy:   7.835781  Gnorm:     0.510656  CPU:    5.993
  ** Hessian calculated **
  Cycle:      1 Defect Energy:   5.202509  Gnorm:     0.009024  CPU:    8.485
  Cycle:      2 Defect Energy:   5.196661  Gnorm:     0.006224  CPU:    8.966
  Cycle:      3 Defect Energy:   5.194114  Gnorm:     0.004334  CPU:    9.473
  Cycle:      4 Defect Energy:   5.192871  Gnorm:     0.003040  CPU:    9.969
  Cycle:      5 Defect Energy:   5.192264  Gnorm:     0.002124  CPU:   10.476
  Cycle:      6 Defect Energy:   5.191968  Gnorm:     0.001488  CPU:   11.145
  Cycle:      7 Defect Energy:   5.191823  Gnorm:     0.001041  CPU:   11.633
  Cycle:      8 Defect Energy:   5.191753  Gnorm:     0.000729  CPU:   12.115
  Cycle:      9 Defect Energy:   5.191720  Gnorm:     0.000510  CPU:   12.617
  Cycle:     10 Defect Energy:   5.191704  Gnorm:     0.000357  CPU:   13.098
  ** Hessian calculated **
  Cycle:     11 Defect Energy:   5.191696  Gnorm:     0.000250  CPU:   14.027
  Cycle:     12 Defect Energy:   5.191692  Gnorm:     0.000175  CPU:   14.465


  **** Optimisation achieved ****


  Final defect energy  =        5.19169062
  Final defect Gnorm   =        0.00012248

  Components of defect energy : 

--------------------------------------------------------------------------------
  Region 1 - region 1                   =    -21.70758401 eV
  Region 1 - region 2a (unrelaxed)      =     27.29079376 eV
  Region 1 - 2a (relaxed - correction)  =     -0.23835540 eV
  Region 1 (Total)                      =      5.34485435 eV
  Region 2a                             =      0.11917614 eV
  Region 2b                             =     -0.27233987 eV
--------------------------------------------------------------------------------
  Total defect energy                   =      5.19169062 eV
--------------------------------------------------------------------------------

  Largest displacement in region 2 =   0.0087 Angstroms

  Final coordinates of region 1 :

--------------------------------------------------------------------------------
   No.  Atomic        x           y           z          Radius      Charge
        Label       (Angs)      (Angs)      (Angs)       (Angs)       (e) 
--------------------------------------------------------------------------------
     1  Na    c    -2.323751   -2.323751    0.000000    0.000000    1.000000
     2  Na    c    -2.323751    2.323751    0.000000    0.000000    1.000000
     3  Na    c     2.323751   -2.323751    0.000000    0.000000    1.000000
     4  Na    c     2.323751    2.323751    0.000000    0.000000    1.000000
     5  Na    c     0.000000   -2.323751   -2.323751    0.000000    1.000000
     6  Na    c     0.000000   -2.323751    2.323751    0.000000    1.000000
     7  Na    c     0.000000    2.323751   -2.323751    0.000000    1.000000
     8  Na    c     0.000000    2.323751    2.323751    0.000000    1.000000
     9  Na    c    -2.323751    0.000000   -2.323751    0.000000    1.000000
    10  Na    c    -2.323751    0.000000    2.323751    0.000000    1.000000
    11  Na    c     2.323751    0.000000   -2.323751    0.000000    1.000000
    12  Na    c     2.323751    0.000000    2.323751    0.000000    1.000000
    13  O     c    -2.181961   -2.181961   -2.181961    0.000000    0.183000
    14  O     c    -2.181961   -2.181961    2.181961    0.000000    0.183000
    15  O     c    -2.181961    2.181961   -2.181961    0.000000    0.183000
    16  O     c    -2.181961    2.181961    2.181961    0.000000    0.183000
    17  O     c     2.181961   -2.181961   -2.181961    0.000000    0.183000
    18  O     c     2.181961   -2.181961    2.181961    0.000000    0.183000
    19  O     c     2.181961    2.181961   -2.181961    0.000000    0.183000
    20  O     c     2.181961    2.181961    2.181961    0.000000    0.183000
    21  Cl    c     0.000000    0.000000    4.345630    0.000000    1.485000
    22  Cl    c     0.000000    0.000000   -4.345630    0.000000    1.485000
    23  Cl    c     0.000000    4.345630    0.000000    0.000000    1.485000
    24  Cl    c     0.000000   -4.345630    0.000000    0.000000    1.485000
    25  Cl    c     4.345630    0.000000    0.000000    0.000000    1.485000
    26  Cl    c    -4.345630    0.000000    0.000000    0.000000    1.485000
    27  Na    c     4.416928   -2.220257   -2.220257    0.000000    1.000000
    28  Na    c     4.416928   -2.220257    2.220257    0.000000    1.000000
    29  Na    c     4.416928    2.220257   -2.220257    0.000000    1.000000
    30  Na    c     4.416928    2.220257    2.220257    0.000000    1.000000
    31  Na    c    -4.416928   -2.220257   -2.220257    0.000000    1.000000
    32  Na    c    -4.416928   -2.220257    2.220257    0.000000    1.000000
    33  Na    c    -4.416928    2.220257   -2.220257    0.000000    1.000000
    34  Na    c    -4.416928    2.220257    2.220257    0.000000    1.000000
    35  Na    c    -2.220257    4.416928   -2.220257    0.000000    1.000000
    36  Na    c    -2.220257    4.416928    2.220257    0.000000    1.000000
    37  Na    c    -2.220257   -4.416928   -2.220257    0.000000    1.000000
    38  Na    c    -2.220257   -4.416928    2.220257    0.000000    1.000000
    39  Na    c     2.220257    4.416928   -2.220257    0.000000    1.000000
    40  Na    c     2.220257    4.416928    2.220257    0.000000    1.000000
    41  Na    c     2.220257   -4.416928   -2.220257    0.000000    1.000000
    42  Na    c     2.220257   -4.416928    2.220257    0.000000    1.000000
    43  Na    c    -2.220257   -2.220257    4.416928    0.000000    1.000000
    44  Na    c    -2.220257   -2.220257   -4.416928    0.000000    1.000000
    45  Na    c    -2.220257    2.220257    4.416928    0.000000    1.000000
    46  Na    c    -2.220257    2.220257   -4.416928    0.000000    1.000000
    47  Na    c     2.220257   -2.220257    4.416928    0.000000    1.000000
    48  Na    c     2.220257   -2.220257   -4.416928    0.000000    1.000000
    49  Na    c     2.220257    2.220257    4.416928    0.000000    1.000000
    50  Na    c     2.220257    2.220257   -4.416928    0.000000    1.000000
    51  Cl    c     0.000000    4.377362    4.377362    0.000000    1.485000
    52  Cl    c     0.000000    4.377362   -4.377362    0.000000    1.485000
    53  Cl    c     0.000000   -4.377362    4.377362    0.000000    1.485000
    54  Cl    c     0.000000   -4.377362   -4.377362    0.000000    1.485000
    55  Cl    c     4.377362    0.000000    4.377362    0.000000    1.485000
    56  Cl    c     4.377362    0.000000   -4.377362    0.000000    1.485000
    57  Cl    c     4.377362    4.377362    0.000000    0.000000    1.485000
    58  Cl    c     4.377362   -4.377362    0.000000    0.000000    1.485000
    59  Cl    c    -4.377362    0.000000    4.377362    0.000000    1.485000
    60  Cl    c    -4.377362    0.000000   -4.377362    0.000000    1.485000
    61  Cl    c    -4.377362    4.377362    0.000000    0.000000    1.485000
    62  Cl    c    -4.377362   -4.377362    0.000000    0.000000    1.485000
    63  Na    c    -2.205509    6.627173    0.000000    0.000000    1.000000
    64  Na    c    -2.205509   -6.627173    0.000000    0.000000    1.000000
    65  Na    c     2.205509    6.627173    0.000000    0.000000    1.000000
    66  Na    c     2.205509   -6.627173    0.000000    0.000000    1.000000
    67  Na    c     6.627173   -2.205509    0.000000    0.000000    1.000000
    68  Na    c     6.627173    2.205509    0.000000    0.000000    1.000000
    69  Na    c    -6.627173   -2.205509    0.000000    0.000000    1.000000
    70  Na    c    -6.627173    2.205509    0.000000    0.000000    1.000000
    71  Na    c     0.000000   -2.205509    6.627173    0.000000    1.000000
    72  Na    c     0.000000   -2.205509   -6.627173    0.000000    1.000000
    73  Na    c     0.000000    2.205509    6.627173    0.000000    1.000000
    74  Na    c     0.000000    2.205509   -6.627173    0.000000    1.000000
    75  Na    c     0.000000    6.627173   -2.205509    0.000000    1.000000
    76  Na    c     0.000000    6.627173    2.205509    0.000000    1.000000
    77  Na    c     0.000000   -6.627173   -2.205509    0.000000    1.000000
    78  Na    c     0.000000   -6.627173    2.205509    0.000000    1.000000
    79  Na    c    -2.205509    0.000000    6.627173    0.000000    1.000000
    80  Na    c    -2.205509    0.000000   -6.627173    0.000000    1.000000
    81  Na    c     2.205509    0.000000    6.627173    0.000000    1.000000
    82  Na    c     2.205509    0.000000   -6.627173    0.000000    1.000000
    83  Na    c     6.627173    0.000000   -2.205509    0.000000    1.000000
    84  Na    c     6.627173    0.000000    2.205509    0.000000    1.000000
    85  Na    c    -6.627173    0.000000   -2.205509    0.000000    1.000000
    86  Na    c    -6.627173    0.000000    2.205509    0.000000    1.000000
    87  O     c    -2.202215    6.607460   -2.202215    0.000000    0.183000
    88  O     c    -2.202215    6.607460    2.202215    0.000000    0.183000
    89  O     c    -2.202215   -6.607460   -2.202215    0.000000    0.183000
    90  O     c    -2.202215   -6.607460    2.202215    0.000000    0.183000
    91  O     c     2.202215    6.607460   -2.202215    0.000000    0.183000
    92  O     c     2.202215    6.607460    2.202215    0.000000    0.183000
    93  O     c     2.202215   -6.607460   -2.202215    0.000000    0.183000
    94  O     c     2.202215   -6.607460    2.202215    0.000000    0.183000
    95  O     c     6.607460   -2.202215   -2.202215    0.000000    0.183000
    96  O     c     6.607460   -2.202215    2.202215    0.000000    0.183000
    97  O     c     6.607460    2.202215   -2.202215    0.000000    0.183000
    98  O     c     6.607460    2.202215    2.202215    0.000000    0.183000
    99  O     c    -6.607460   -2.202215   -2.202215    0.000000    0.183000
   100  O     c    -6.607460   -2.202215    2.202215    0.000000    0.183000
   101  O     c    -6.607460    2.202215   -2.202215    0.000000    0.183000
   102  O     c    -6.607460    2.202215    2.202215    0.000000    0.183000
   103  O     c    -2.202215   -2.202215    6.607460    0.000000    0.183000
   104  O     c    -2.202215   -2.202215   -6.607460    0.000000    0.183000
   105  O     c    -2.202215    2.202215    6.607460    0.000000    0.183000
   106  O     c    -2.202215    2.202215   -6.607460    0.000000    0.183000
   107  O     c     2.202215   -2.202215    6.607460    0.000000    0.183000
   108  O     c     2.202215   -2.202215   -6.607460    0.000000    0.183000
   109  O     c     2.202215    2.202215    6.607460    0.000000    0.183000
   110  O     c     2.202215    2.202215   -6.607460    0.000000    0.183000
   111  Cl    c     4.376590    4.376590    4.376590    0.000000    1.485000
   112  Cl    c     4.376590    4.376590   -4.376590    0.000000    1.485000
   113  Cl    c     4.376590   -4.376590    4.376590    0.000000    1.485000
   114  Cl    c     4.376590   -4.376590   -4.376590    0.000000    1.485000
   115  Cl    c    -4.376590    4.376590    4.376590    0.000000    1.485000
   116  Cl    c    -4.376590    4.376590   -4.376590    0.000000    1.485000
   117  Cl    c    -4.376590   -4.376590    4.376590    0.000000    1.485000
   118  Cl    c    -4.376590   -4.376590   -4.376590    0.000000    1.485000
   119  Na    c    -2.207627    6.627202    4.408804    0.000000    1.000000
   120  Na    c    -2.207627    6.627202   -4.408804    0.000000    1.000000
   121  Na    c    -2.207627   -6.627202    4.408804    0.000000    1.000000
   122  Na    c    -2.207627   -6.627202   -4.408804    0.000000    1.000000
   123  Na    c     2.207627    6.627202    4.408804    0.000000    1.000000
   124  Na    c     2.207627    6.627202   -4.408804    0.000000    1.000000
   125  Na    c     2.207627   -6.627202    4.408804    0.000000    1.000000
   126  Na    c     2.207627   -6.627202   -4.408804    0.000000    1.000000
   127  Na    c     6.627202   -2.207627    4.408804    0.000000    1.000000
   128  Na    c     6.627202   -2.207627   -4.408804    0.000000    1.000000
   129  Na    c     6.627202    2.207627    4.408804    0.000000    1.000000
   130  Na    c     6.627202    2.207627   -4.408804    0.000000    1.000000
   131  Na    c    -6.627202   -2.207627    4.408804    0.000000    1.000000
   132  Na    c    -6.627202   -2.207627   -4.408804    0.000000    1.000000
   133  Na    c    -6.627202    2.207627    4.408804    0.000000    1.000000
   134  Na    c    -6.627202    2.207627   -4.408804    0.000000    1.000000
   135  Na    c     4.408804   -2.207627    6.627202    0.000000    1.000000
   136  Na    c     4.408804   -2.207627   -6.627202    0.000000    1.000000
   137  Na    c     4.408804    2.207627    6.627202    0.000000    1.000000
   138  Na    c     4.408804    2.207627   -6.627202    0.000000    1.000000
   139  Na    c    -4.408804   -2.207627    6.627202    0.000000    1.000000
   140  Na    c    -4.408804   -2.207627   -6.627202    0.000000    1.000000
   141  Na    c    -4.408804    2.207627    6.627202    0.000000    1.000000
   142  Na    c    -4.408804    2.207627   -6.627202    0.000000    1.000000
   143  Na    c    -2.207627    4.408804    6.627202    0.000000    1.000000
   144  Na    c    -2.207627    4.408804   -6.627202    0.000000    1.000000
   145  Na    c    -2.207627   -4.408804    6.627202    0.000000    1.000000
   146  Na    c    -2.207627   -4.408804   -6.627202    0.000000    1.000000
   147  Na    c     2.207627    4.408804    6.627202    0.000000    1.000000
   148  Na    c     2.207627    4.408804   -6.627202    0.000000    1.000000
   149  Na    c     2.207627   -4.408804    6.627202    0.000000    1.000000
   150  Na    c     2.207627   -4.408804   -6.627202    0.000000    1.000000
   151  Na    c     4.408804    6.627202   -2.207627    0.000000    1.000000
   152  Na    c     4.408804    6.627202    2.207627    0.000000    1.000000
   153  Na    c     4.408804   -6.627202   -2.207627    0.000000    1.000000
   154  Na    c     4.408804   -6.627202    2.207627    0.000000    1.000000
   155  Na    c    -4.408804    6.627202   -2.207627    0.000000    1.000000
   156  Na    c    -4.408804    6.627202    2.207627    0.000000    1.000000
   157  Na    c    -4.408804   -6.627202   -2.207627    0.000000    1.000000
   158  Na    c    -4.408804   -6.627202    2.207627    0.000000    1.000000
   159  Na    c     6.627202    4.408804   -2.207627    0.000000    1.000000
   160  Na    c     6.627202    4.408804    2.207627    0.000000    1.000000
   161  Na    c     6.627202   -4.408804   -2.207627    0.000000    1.000000
   162  Na    c     6.627202   -4.408804    2.207627    0.000000    1.000000
   163  Na    c    -6.627202    4.408804   -2.207627    0.000000    1.000000
   164  Na    c    -6.627202    4.408804    2.207627    0.000000    1.000000
   165  Na    c    -6.627202   -4.408804   -2.207627    0.000000    1.000000
   166  Na    c    -6.627202   -4.408804    2.207627    0.000000    1.000000
   167  Cl    c     0.000000    0.000000    8.791342    0.000000    1.485000
   168  Cl    c     0.000000    0.000000   -8.791342    0.000000    1.485000
   169  Cl    c     0.000000    8.791342    0.000000    0.000000    1.485000
   170  Cl    c     0.000000   -8.791342    0.000000    0.000000    1.485000
   171  Cl    c     8.791342    0.000000    0.000000    0.000000    1.485000
   172  Cl    c    -8.791342    0.000000    0.000000    0.000000    1.485000
   173  Na    c    -2.205470   -2.205470    8.816068    0.000000    1.000000
   174  Na    c    -2.205470   -2.205470   -8.816068    0.000000    1.000000
   175  Na    c    -2.205470    2.205470    8.816068    0.000000    1.000000
   176  Na    c    -2.205470    2.205470   -8.816068    0.000000    1.000000
   177  Na    c     2.205470   -2.205470    8.816068    0.000000    1.000000
   178  Na    c     2.205470   -2.205470   -8.816068    0.000000    1.000000
   179  Na    c     2.205470    2.205470    8.816068    0.000000    1.000000
   180  Na    c     2.205470    2.205470   -8.816068    0.000000    1.000000
   181  Na    c     8.816068   -2.205470   -2.205470    0.000000    1.000000
   182  Na    c     8.816068   -2.205470    2.205470    0.000000    1.000000
   183  Na    c     8.816068    2.205470   -2.205470    0.000000    1.000000
   184  Na    c     8.816068    2.205470    2.205470    0.000000    1.000000
   185  Na    c    -8.816068   -2.205470   -2.205470    0.000000    1.000000
   186  Na    c    -8.816068   -2.205470    2.205470    0.000000    1.000000
   187  Na    c    -8.816068    2.205470   -2.205470    0.000000    1.000000
   188  Na    c    -8.816068    2.205470    2.205470    0.000000    1.000000
   189  Na    c    -2.205470    8.816068   -2.205470    0.000000    1.000000
   190  Na    c    -2.205470    8.816068    2.205470    0.000000    1.000000
   191  Na    c    -2.205470   -8.816068   -2.205470    0.000000    1.000000
   192  Na    c    -2.205470   -8.816068    2.205470    0.000000    1.000000
   193  Na    c     2.205470    8.816068   -2.205470    0.000000    1.000000
   194  Na    c     2.205470    8.816068    2.205470    0.000000    1.000000
   195  Na    c     2.205470   -8.816068   -2.205470    0.000000    1.000000
   196  Na    c     2.205470   -8.816068    2.205470    0.000000    1.000000
   197  Na    c     6.623751    6.623751    0.000000    0.000000    1.000000
   198  Na    c     6.623751   -6.623751    0.000000    0.000000    1.000000
   199  Na    c    -6.623751    6.623751    0.000000    0.000000    1.000000
   200  Na    c    -6.623751   -6.623751    0.000000    0.000000    1.000000
   201  Na    c     0.000000    6.623751    6.623751    0.000000    1.000000
   202  Na    c     0.000000    6.623751   -6.623751    0.000000    1.000000
   203  Na    c     0.000000   -6.623751    6.623751    0.000000    1.000000
   204  Na    c     0.000000   -6.623751   -6.623751    0.000000    1.000000
   205  Na    c     6.623751    0.000000    6.623751    0.000000    1.000000
   206  Na    c     6.623751    0.000000   -6.623751    0.000000    1.000000
   207  Na    c    -6.623751    0.000000    6.623751    0.000000    1.000000
   208  Na    c    -6.623751    0.000000   -6.623751    0.000000    1.000000
   209  O     c    -2.201770    6.607333    6.607333    0.000000    0.183000
   210  O     c    -2.201770    6.607333   -6.607333    0.000000    0.183000
   211  O     c    -2.201770   -6.607333    6.607333    0.000000    0.183000
   212  O     c    -2.201770   -6.607333   -6.607333    0.000000    0.183000
   213  O     c     2.201770    6.607333    6.607333    0.000000    0.183000
   214  O     c     2.201770    6.607333   -6.607333    0.000000    0.183000
   215  O     c     2.201770   -6.607333    6.607333    0.000000    0.183000
   216  O     c     2.201770   -6.607333   -6.607333    0.000000    0.183000
   217  O     c     6.607333   -2.201770    6.607333    0.000000    0.183000
   218  O     c     6.607333   -2.201770   -6.607333    0.000000    0.183000
   219  O     c     6.607333    2.201770    6.607333    0.000000    0.183000
   220  O     c     6.607333    2.201770   -6.607333    0.000000    0.183000
   221  O     c     6.607333    6.607333   -2.201770    0.000000    0.183000
   222  O     c     6.607333    6.607333    2.201770    0.000000    0.183000
   223  O     c     6.607333   -6.607333   -2.201770    0.000000    0.183000
   224  O     c     6.607333   -6.607333    2.201770    0.000000    0.183000
   225  O     c    -6.607333   -2.201770    6.607333    0.000000    0.183000
   226  O     c    -6.607333   -2.201770   -6.607333    0.000000    0.183000
   227  O     c    -6.607333    2.201770    6.607333    0.000000    0.183000
   228  O     c    -6.607333    2.201770   -6.607333    0.000000    0.183000
   229  O     c    -6.607333    6.607333   -2.201770    0.000000    0.183000
   230  O     c    -6.607333    6.607333    2.201770    0.000000    0.183000
   231  O     c    -6.607333   -6.607333   -2.201770    0.000000    0.183000
   232  O     c    -6.607333   -6.607333    2.201770    0.000000    0.183000
   233  Cl    c     0.000000    4.400469    8.796768    0.000000    1.485000
   234  Cl    c     0.000000    4.400469   -8.796768    0.000000    1.485000
   235  Cl    c     0.000000    8.796768    4.400469    0.000000    1.485000
   236  Cl    c     0.000000    8.796768   -4.400469    0.000000    1.485000
   237  Cl    c     0.000000   -4.400469    8.796768    0.000000    1.485000
   238  Cl    c     0.000000   -4.400469   -8.796768    0.000000    1.485000
   239  Cl    c     0.000000   -8.796768    4.400469    0.000000    1.485000
   240  Cl    c     0.000000   -8.796768   -4.400469    0.000000    1.485000
   241  Cl    c     4.400469    0.000000    8.796768    0.000000    1.485000
   242  Cl    c     4.400469    0.000000   -8.796768    0.000000    1.485000
   243  Cl    c     4.400469    8.796768    0.000000    0.000000    1.485000
   244  Cl    c     4.400469   -8.796768    0.000000    0.000000    1.485000
   245  Cl    c     8.796768    0.000000    4.400469    0.000000    1.485000
   246  Cl    c     8.796768    0.000000   -4.400469    0.000000    1.485000
   247  Cl    c     8.796768    4.400469    0.000000    0.000000    1.485000
   248  Cl    c     8.796768   -4.400469    0.000000    0.000000    1.485000
   249  Cl    c    -4.400469    0.000000    8.796768    0.000000    1.485000
   250  Cl    c    -4.400469    0.000000   -8.796768    0.000000    1.485000
   251  Cl    c    -4.400469    8.796768    0.000000    0.000000    1.485000
   252  Cl    c    -4.400469   -8.796768    0.000000    0.000000    1.485000
   253  Cl    c    -8.796768    0.000000    4.400469    0.000000    1.485000
   254  Cl    c    -8.796768    0.000000   -4.400469    0.000000    1.485000
   255  Cl    c    -8.796768    4.400469    0.000000    0.000000    1.485000
   256  Cl    c    -8.796768   -4.400469    0.000000    0.000000    1.485000
   257  Na    c     6.619119    6.619119    4.406632    0.000000    1.000000
   258  Na    c     6.619119    6.619119   -4.406632    0.000000    1.000000
   259  Na    c     6.619119   -6.619119    4.406632    0.000000    1.000000
   260  Na    c     6.619119   -6.619119   -4.406632    0.000000    1.000000
   261  Na    c    -6.619119    6.619119    4.406632    0.000000    1.000000
   262  Na    c    -6.619119    6.619119   -4.406632    0.000000    1.000000
   263  Na    c    -6.619119   -6.619119    4.406632    0.000000    1.000000
   264  Na    c    -6.619119   -6.619119   -4.406632    0.000000    1.000000
   265  Na    c     4.406632    6.619119    6.619119    0.000000    1.000000
   266  Na    c     4.406632    6.619119   -6.619119    0.000000    1.000000
   267  Na    c     4.406632   -6.619119    6.619119    0.000000    1.000000
   268  Na    c     4.406632   -6.619119   -6.619119    0.000000    1.000000
   269  Na    c    -4.406632    6.619119    6.619119    0.000000    1.000000
   270  Na    c    -4.406632    6.619119   -6.619119    0.000000    1.000000
   271  Na    c    -4.406632   -6.619119    6.619119    0.000000    1.000000
   272  Na    c    -4.406632   -6.619119   -6.619119    0.000000    1.000000
   273  Na    c     6.619119    4.406632    6.619119    0.000000    1.000000
   274  Na    c     6.619119    4.406632   -6.619119    0.000000    1.000000
   275  Na    c     6.619119   -4.406632    6.619119    0.000000    1.000000
   276  Na    c     6.619119   -4.406632   -6.619119    0.000000    1.000000
   277  Na    c    -6.619119    4.406632    6.619119    0.000000    1.000000
   278  Na    c    -6.619119    4.406632   -6.619119    0.000000    1.000000
   279  Na    c    -6.619119   -4.406632    6.619119    0.000000    1.000000
   280  Na    c    -6.619119   -4.406632   -6.619119    0.000000    1.000000
   281  Cl    c     4.400685    8.798256    4.400685    0.000000    1.485000
   282  Cl    c     4.400685    8.798256   -4.400685    0.000000    1.485000
   283  Cl    c     4.400685   -8.798256    4.400685    0.000000    1.485000
   284  Cl    c     4.400685   -8.798256   -4.400685    0.000000    1.485000
   285  Cl    c     8.798256    4.400685    4.400685    0.000000    1.485000
   286  Cl    c     8.798256    4.400685   -4.400685    0.000000    1.485000
   287  Cl    c     8.798256   -4.400685    4.400685    0.000000    1.485000
   288  Cl    c     8.798256   -4.400685   -4.400685    0.000000    1.485000
   289  Cl    c    -4.400685    8.798256    4.400685    0.000000    1.485000
   290  Cl    c    -4.400685    8.798256   -4.400685    0.000000    1.485000
   291  Cl    c    -4.400685   -8.798256    4.400685    0.000000    1.485000
   292  Cl    c    -4.400685   -8.798256   -4.400685    0.000000    1.485000
   293  Cl    c    -8.798256    4.400685    4.400685    0.000000    1.485000
   294  Cl    c    -8.798256    4.400685   -4.400685    0.000000    1.485000
   295  Cl    c    -8.798256   -4.400685    4.400685    0.000000    1.485000
   296  Cl    c    -8.798256   -4.400685   -4.400685    0.000000    1.485000
   297  Cl    c     4.400685    4.400685    8.798256    0.000000    1.485000
   298  Cl    c     4.400685    4.400685   -8.798256    0.000000    1.485000
   299  Cl    c     4.400685   -4.400685    8.798256    0.000000    1.485000
   300  Cl    c     4.400685   -4.400685   -8.798256    0.000000    1.485000
   301  Cl    c    -4.400685    4.400685    8.798256    0.000000    1.485000
   302  Cl    c    -4.400685    4.400685   -8.798256    0.000000    1.485000
   303  Cl    c    -4.400685   -4.400685    8.798256    0.000000    1.485000
   304  Cl    c    -4.400685   -4.400685   -8.798256    0.000000    1.485000
   305  Na    c    -2.203768    6.614752    8.814940    0.000000    1.000000
   306  Na    c    -2.203768    6.614752   -8.814940    0.000000    1.000000
   307  Na    c    -2.203768   -6.614752    8.814940    0.000000    1.000000
   308  Na    c    -2.203768   -6.614752   -8.814940    0.000000    1.000000
   309  Na    c     2.203768    6.614752    8.814940    0.000000    1.000000
   310  Na    c     2.203768    6.614752   -8.814940    0.000000    1.000000
   311  Na    c     2.203768   -6.614752    8.814940    0.000000    1.000000
   312  Na    c     2.203768   -6.614752   -8.814940    0.000000    1.000000
   313  Na    c     6.614752   -2.203768    8.814940    0.000000    1.000000
   314  Na    c     6.614752   -2.203768   -8.814940    0.000000    1.000000
   315  Na    c     6.614752    2.203768    8.814940    0.000000    1.000000
   316  Na    c     6.614752    2.203768   -8.814940    0.000000    1.000000
   317  Na    c    -6.614752   -2.203768    8.814940    0.000000    1.000000
   318  Na    c    -6.614752   -2.203768   -8.814940    0.000000    1.000000
   319  Na    c    -6.614752    2.203768    8.814940    0.000000    1.000000
   320  Na    c    -6.614752    2.203768   -8.814940    0.000000    1.000000
   321  Na    c     8.814940   -2.203768    6.614752    0.000000    1.000000
   322  Na    c     8.814940   -2.203768   -6.614752    0.000000    1.000000
   323  Na    c     8.814940    2.203768    6.614752    0.000000    1.000000
   324  Na    c     8.814940    2.203768   -6.614752    0.000000    1.000000
   325  Na    c    -8.814940   -2.203768    6.614752    0.000000    1.000000
   326  Na    c    -8.814940   -2.203768   -6.614752    0.000000    1.000000
   327  Na    c    -8.814940    2.203768    6.614752    0.000000    1.000000
   328  Na    c    -8.814940    2.203768   -6.614752    0.000000    1.000000
   329  Na    c    -2.203768    8.814940    6.614752    0.000000    1.000000
   330  Na    c    -2.203768    8.814940   -6.614752    0.000000    1.000000
   331  Na    c    -2.203768   -8.814940    6.614752    0.000000    1.000000
   332  Na    c    -2.203768   -8.814940   -6.614752    0.000000    1.000000
   333  Na    c     2.203768    8.814940    6.614752    0.000000    1.000000
   334  Na    c     2.203768    8.814940   -6.614752    0.000000    1.000000
   335  Na    c     2.203768   -8.814940    6.614752    0.000000    1.000000
   336  Na    c     2.203768   -8.814940   -6.614752    0.000000    1.000000
   337  Na    c     8.814940    6.614752   -2.203768    0.000000    1.000000
   338  Na    c     8.814940    6.614752    2.203768    0.000000    1.000000
   339  Na    c     8.814940   -6.614752   -2.203768    0.000000    1.000000
   340  Na    c     8.814940   -6.614752    2.203768    0.000000    1.000000
   341  Na    c    -8.814940    6.614752   -2.203768    0.000000    1.000000
   342  Na    c    -8.814940    6.614752    2.203768    0.000000    1.000000
   343  Na    c    -8.814940   -6.614752   -2.203768    0.000000    1.000000
   344  Na    c    -8.814940   -6.614752    2.203768    0.000000    1.000000
   345  Na    c     6.614752    8.814940   -2.203768    0.000000    1.000000
   346  Na    c     6.614752    8.814940    2.203768    0.000000    1.000000
   347  Na    c     6.614752   -8.814940   -2.203768    0.000000    1.000000
   348  Na    c     6.614752   -8.814940    2.203768    0.000000    1.000000
   349  Na    c    -6.614752    8.814940   -2.203768    0.000000    1.000000
   350  Na    c    -6.614752    8.814940    2.203768    0.000000    1.000000
   351  Na    c    -6.614752   -8.814940   -2.203768    0.000000    1.000000
   352  Na    c    -6.614752   -8.814940    2.203768    0.000000    1.000000
   353  Na    c    -2.205024   11.021645    0.000000    0.000000    1.000000
   354  Na    c    -2.205024  -11.021645    0.000000    0.000000    1.000000
   355  Na    c     2.205024   11.021645    0.000000    0.000000    1.000000
   356  Na    c     2.205024  -11.021645    0.000000    0.000000    1.000000
   357  Na    c    11.021645   -2.205024    0.000000    0.000000    1.000000
   358  Na    c    11.021645    2.205024    0.000000    0.000000    1.000000
   359  Na    c   -11.021645   -2.205024    0.000000    0.000000    1.000000
   360  Na    c   -11.021645    2.205024    0.000000    0.000000    1.000000
   361  Na    c     0.000000   -2.205024   11.021645    0.000000    1.000000
   362  Na    c     0.000000   -2.205024  -11.021645    0.000000    1.000000
   363  Na    c     0.000000    2.205024   11.021645    0.000000    1.000000
   364  Na    c     0.000000    2.205024  -11.021645    0.000000    1.000000
   365  Na    c     0.000000   11.021645   -2.205024    0.000000    1.000000
   366  Na    c     0.000000   11.021645    2.205024    0.000000    1.000000
   367  Na    c     0.000000  -11.021645   -2.205024    0.000000    1.000000
   368  Na    c     0.000000  -11.021645    2.205024    0.000000    1.000000
   369  Na    c    -2.205024    0.000000   11.021645    0.000000    1.000000
   370  Na    c    -2.205024    0.000000  -11.021645    0.000000    1.000000
   371  Na    c     2.205024    0.000000   11.021645    0.000000    1.000000
   372  Na    c     2.205024    0.000000  -11.021645    0.000000    1.000000
   373  Na    c    11.021645    0.000000   -2.205024    0.000000    1.000000
   374  Na    c    11.021645    0.000000    2.205024    0.000000    1.000000
   375  Na    c   -11.021645    0.000000   -2.205024    0.000000    1.000000
   376  Na    c   -11.021645    0.000000    2.205024    0.000000    1.000000
   377  O     c    -2.202502   -2.202502   11.013494    0.000000    0.183000
   378  O     c    -2.202502   -2.202502  -11.013494    0.000000    0.183000
   379  O     c    -2.202502    2.202502   11.013494    0.000000    0.183000
   380  O     c    -2.202502    2.202502  -11.013494    0.000000    0.183000
   381  O     c    -2.202502   11.013494   -2.202502    0.000000    0.183000
   382  O     c    -2.202502   11.013494    2.202502    0.000000    0.183000
   383  O     c    -2.202502  -11.013494   -2.202502    0.000000    0.183000
   384  O     c    -2.202502  -11.013494    2.202502    0.000000    0.183000
   385  O     c     2.202502   -2.202502   11.013494    0.000000    0.183000
   386  O     c     2.202502   -2.202502  -11.013494    0.000000    0.183000
   387  O     c     2.202502    2.202502   11.013494    0.000000    0.183000
   388  O     c     2.202502    2.202502  -11.013494    0.000000    0.183000
   389  O     c     2.202502   11.013494   -2.202502    0.000000    0.183000
   390  O     c     2.202502   11.013494    2.202502    0.000000    0.183000
   391  O     c     2.202502  -11.013494   -2.202502    0.000000    0.183000
   392  O     c     2.202502  -11.013494    2.202502    0.000000    0.183000
   393  O     c    11.013494   -2.202502   -2.202502    0.000000    0.183000
   394  O     c    11.013494   -2.202502    2.202502    0.000000    0.183000
   395  O     c    11.013494    2.202502   -2.202502    0.000000    0.183000
   396  O     c    11.013494    2.202502    2.202502    0.000000    0.183000
   397  O     c   -11.013494   -2.202502   -2.202502    0.000000    0.183000
   398  O     c   -11.013494   -2.202502    2.202502    0.000000    0.183000
   399  O     c   -11.013494    2.202502   -2.202502    0.000000    0.183000
   400  O     c   -11.013494    2.202502    2.202502    0.000000    0.183000
   401  O     c     6.606604    6.606604    6.606604    0.000000    0.183000
   402  O     c     6.606604    6.606604   -6.606604    0.000000    0.183000
   403  O     c     6.606604   -6.606604    6.606604    0.000000    0.183000
   404  O     c     6.606604   -6.606604   -6.606604    0.000000    0.183000
   405  O     c    -6.606604    6.606604    6.606604    0.000000    0.183000
   406  O     c    -6.606604    6.606604   -6.606604    0.000000    0.183000
   407  O     c    -6.606604   -6.606604    6.606604    0.000000    0.183000
   408  O     c    -6.606604   -6.606604   -6.606604    0.000000    0.183000
   409  Na    c    -2.205440   11.024134    4.406622    0.000000    1.000000
   410  Na    c    -2.205440   11.024134   -4.406622    0.000000    1.000000
   411  Na    c    -2.205440  -11.024134    4.406622    0.000000    1.000000
   412  Na    c    -2.205440  -11.024134   -4.406622    0.000000    1.000000
   413  Na    c     2.205440   11.024134    4.406622    0.000000    1.000000
   414  Na    c     2.205440   11.024134   -4.406622    0.000000    1.000000
   415  Na    c     2.205440  -11.024134    4.406622    0.000000    1.000000
   416  Na    c     2.205440  -11.024134   -4.406622    0.000000    1.000000
   417  Na    c    11.024134   -2.205440    4.406622    0.000000    1.000000
   418  Na    c    11.024134   -2.205440   -4.406622    0.000000    1.000000
   419  Na    c    11.024134    2.205440    4.406622    0.000000    1.000000
   420  Na    c    11.024134    2.205440   -4.406622    0.000000    1.000000
   421  Na    c   -11.024134   -2.205440    4.406622    0.000000    1.000000
   422  Na    c   -11.024134   -2.205440   -4.406622    0.000000    1.000000
   423  Na    c   -11.024134    2.205440    4.406622    0.000000    1.000000
   424  Na    c   -11.024134    2.205440   -4.406622    0.000000    1.000000
   425  Na    c     4.406622   -2.205440   11.024134    0.000000    1.000000
   426  Na    c     4.406622   -2.205440  -11.024134    0.000000    1.000000
   427  Na    c     4.406622    2.205440   11.024134    0.000000    1.000000
   428  Na    c     4.406622    2.205440  -11.024134    0.000000    1.000000
   429  Na    c     4.406622   11.024134   -2.205440    0.000000    1.000000
   430  Na    c     4.406622   11.024134    2.205440    0.000000    1.000000
   431  Na    c     4.406622  -11.024134   -2.205440    0.000000    1.000000
   432  Na    c     4.406622  -11.024134    2.205440    0.000000    1.000000
   433  Na    c    -4.406622   -2.205440   11.024134    0.000000    1.000000
   434  Na    c    -4.406622   -2.205440  -11.024134    0.000000    1.000000
   435  Na    c    -4.406622    2.205440   11.024134    0.000000    1.000000
   436  Na    c    -4.406622    2.205440  -11.024134    0.000000    1.000000
   437  Na    c    -4.406622   11.024134   -2.205440    0.000000    1.000000
   438  Na    c    -4.406622   11.024134    2.205440    0.000000    1.000000
   439  Na    c    -4.406622  -11.024134   -2.205440    0.000000    1.000000
   440  Na    c    -4.406622  -11.024134    2.205440    0.000000    1.000000
   441  Na    c    -2.205440    4.406622   11.024134    0.000000    1.000000
   442  Na    c    -2.205440    4.406622  -11.024134    0.000000    1.000000
   443  Na    c    -2.205440   -4.406622   11.024134    0.000000    1.000000
   444  Na    c    -2.205440   -4.406622  -11.024134    0.000000    1.000000
   445  Na    c     2.205440    4.406622   11.024134    0.000000    1.000000
   446  Na    c     2.205440    4.406622  -11.024134    0.000000    1.000000
   447  Na    c     2.205440   -4.406622   11.024134    0.000000    1.000000
   448  Na    c     2.205440   -4.406622  -11.024134    0.000000    1.000000
   449  Na    c    11.024134    4.406622   -2.205440    0.000000    1.000000
   450  Na    c    11.024134    4.406622    2.205440    0.000000    1.000000
   451  Na    c    11.024134   -4.406622   -2.205440    0.000000    1.000000
   452  Na    c    11.024134   -4.406622    2.205440    0.000000    1.000000
   453  Na    c   -11.024134    4.406622   -2.205440    0.000000    1.000000
   454  Na    c   -11.024134    4.406622    2.205440    0.000000    1.000000
   455  Na    c   -11.024134   -4.406622   -2.205440    0.000000    1.000000
   456  Na    c   -11.024134   -4.406622    2.205440    0.000000    1.000000
   457  Cl    c     0.000000    8.800894    8.800894    0.000000    1.485000
   458  Cl    c     0.000000    8.800894   -8.800894    0.000000    1.485000
   459  Cl    c     0.000000   -8.800894    8.800894    0.000000    1.485000
   460  Cl    c     0.000000   -8.800894   -8.800894    0.000000    1.485000
   461  Cl    c     8.800894    0.000000    8.800894    0.000000    1.485000
   462  Cl    c     8.800894    0.000000   -8.800894    0.000000    1.485000
   463  Cl    c     8.800894    8.800894    0.000000    0.000000    1.485000
   464  Cl    c     8.800894   -8.800894    0.000000    0.000000    1.485000
   465  Cl    c    -8.800894    0.000000    8.800894    0.000000    1.485000
   466  Cl    c    -8.800894    0.000000   -8.800894    0.000000    1.485000
   467  Cl    c    -8.800894    8.800894    0.000000    0.000000    1.485000
   468  Cl    c    -8.800894   -8.800894    0.000000    0.000000    1.485000
   469  Na    c     6.614534    6.614534    8.813439    0.000000    1.000000
   470  Na    c     6.614534    6.614534   -8.813439    0.000000    1.000000
   471  Na    c     6.614534   -6.614534    8.813439    0.000000    1.000000
   472  Na    c     6.614534   -6.614534   -8.813439    0.000000    1.000000
   473  Na    c    -6.614534    6.614534    8.813439    0.000000    1.000000
   474  Na    c    -6.614534    6.614534   -8.813439    0.000000    1.000000
   475  Na    c    -6.614534   -6.614534    8.813439    0.000000    1.000000
   476  Na    c    -6.614534   -6.614534   -8.813439    0.000000    1.000000
   477  Na    c     8.813439    6.614534    6.614534    0.000000    1.000000
   478  Na    c     8.813439    6.614534   -6.614534    0.000000    1.000000
   479  Na    c     8.813439   -6.614534    6.614534    0.000000    1.000000
   480  Na    c     8.813439   -6.614534   -6.614534    0.000000    1.000000
   481  Na    c    -8.813439    6.614534    6.614534    0.000000    1.000000
   482  Na    c    -8.813439    6.614534   -6.614534    0.000000    1.000000
   483  Na    c    -8.813439   -6.614534    6.614534    0.000000    1.000000
   484  Na    c    -8.813439   -6.614534   -6.614534    0.000000    1.000000
   485  Na    c     6.614534    8.813439    6.614534    0.000000    1.000000
   486  Na    c     6.614534    8.813439   -6.614534    0.000000    1.000000
   487  Na    c     6.614534   -8.813439    6.614534    0.000000    1.000000
   488  Na    c     6.614534   -8.813439   -6.614534    0.000000    1.000000
   489  Na    c    -6.614534    8.813439    6.614534    0.000000    1.000000
   490  Na    c    -6.614534    8.813439   -6.614534    0.000000    1.000000
   491  Na    c    -6.614534   -8.813439    6.614534    0.000000    1.000000
   492  Na    c    -6.614534   -8.813439   -6.614534    0.000000    1.000000
   493  Na    c     6.610180   11.023878    0.000000    0.000000    1.000000
   494  Na    c     6.610180  -11.023878    0.000000    0.000000    1.000000
   495  Na    c    11.023878    6.610180    0.000000    0.000000    1.000000
   496  Na    c    11.023878   -6.610180    0.000000    0.000000    1.000000
   497  Na    c    -6.610180   11.023878    0.000000    0.000000    1.000000
   498  Na    c    -6.610180  -11.023878    0.000000    0.000000    1.000000
   499  Na    c   -11.023878    6.610180    0.000000    0.000000    1.000000
   500  Na    c   -11.023878   -6.610180    0.000000    0.000000    1.000000
   501  Na    c     0.000000    6.610180   11.023878    0.000000    1.000000
   502  Na    c     0.000000    6.610180  -11.023878    0.000000    1.000000
   503  Na    c     0.000000   11.023878    6.610180    0.000000    1.000000
   504  Na    c     0.000000   11.023878   -6.610180    0.000000    1.000000
   505  Na    c     0.000000   -6.610180   11.023878    0.000000    1.000000
   506  Na    c     0.000000   -6.610180  -11.023878    0.000000    1.000000
   507  Na    c     0.000000  -11.023878    6.610180    0.000000    1.000000
   508  Na    c     0.000000  -11.023878   -6.610180    0.000000    1.000000
   509  Na    c     6.610180    0.000000   11.023878    0.000000    1.000000
   510  Na    c     6.610180    0.000000  -11.023878    0.000000    1.000000
   511  Na    c    11.023878    0.000000    6.610180    0.000000    1.000000
   512  Na    c    11.023878    0.000000   -6.610180    0.000000    1.000000
   513  Na    c    -6.610180    0.000000   11.023878    0.000000    1.000000
   514  Na    c    -6.610180    0.000000  -11.023878    0.000000    1.000000
   515  Na    c   -11.023878    0.000000    6.610180    0.000000    1.000000
   516  Na    c   -11.023878    0.000000   -6.610180    0.000000    1.000000
   517  O     c     6.608140   11.014480   -2.203613    0.000000    0.183000
   518  O     c     6.608140   11.014480    2.203613    0.000000    0.183000
   519  O     c     6.608140  -11.014480   -2.203613    0.000000    0.183000
   520  O     c     6.608140  -11.014480    2.203613    0.000000    0.183000
   521  O     c    11.014480    6.608140   -2.203613    0.000000    0.183000
   522  O     c    11.014480    6.608140    2.203613    0.000000    0.183000
[...]
    13  O     c      -0.000054     -0.000017      0.000000      0.000000
    14  Cl    c       0.000000     -0.000172      0.000069      0.000000
    15  Na    c      -0.000805      0.000000     -0.000283      0.000000
    16  Cl    c      -0.000444     -0.000172      0.000000      0.000000
    17  Na    c       0.000001     -0.000169     -0.000198      0.000000
    18  Na    c       0.000016     -0.000219      0.000000      0.000000
    19  O     c      -0.000005      0.000000     -0.000030      0.000000
    20  O     c       0.000028      0.000000      0.000000      0.000000
    21  Na    c       0.000013     -0.000412     -0.000139      0.000000
    22  Cl    c       0.000000     -0.000147      0.000000      0.000000
    23  Na    c      -0.000069      0.000000     -0.000050      0.000000
    24  Na    c      -0.000053     -0.000121      0.000000      0.000000
    25  O     c      -0.000004     -0.000035     -0.000009      0.000000
    26  Cl    c       0.000000      0.000000      0.000018      0.000000
    27  Cl    c      -0.000050     -0.000204      0.000000      0.000000
    28  Na    c      -0.000130     -0.000257     -0.000098      0.000000
    29  Na    c      -0.000044      0.000034      0.000000      0.000000
    30  Cl    c       0.000000     -0.000045     -0.000056      0.000000
    31  Na    c       0.000058     -0.000178     -0.000082      0.000000
    32  O     c      -0.000009      0.000000     -0.000009      0.000000
    33  Cl    c      -0.000130     -0.000066      0.000000      0.000000
    34  Na    c       0.000048     -0.000054     -0.000144      0.000000
    35  Cl    c      -0.000108      0.000000      0.000000      0.000000
    36  Na    c       0.000021     -0.000159      0.000000      0.000000
    37  Na    c      -0.000104     -0.000220     -0.000125      0.000000
    38  Na    c      -0.000104      0.000000      0.000000      0.000000
    39  O     c      -0.000004     -0.000004      0.000000      0.000000
    40  O     c      -0.000010     -0.000011      0.000000      0.000000
    41  Cl    c       0.000000     -0.000066     -0.000019      0.000000
    42  O     s      -0.002163      0.000000      0.000000      0.000000
    43  Cl    s       0.000000      0.000000     -0.006923      0.000000
    44  Cl    s       0.000000     -0.004183      0.000000      0.000000
    45  O     s       0.001472      0.000595      0.000000      0.000000
    46  Cl    s      -0.000377      0.000000      0.000000      0.000000
    47  Cl    s       0.000000      0.000000     -0.000389      0.000000
    48  O     s       0.000415      0.000811      0.000000      0.000000
    49  Cl    s       0.000000      0.000170     -0.000174      0.000000
    50  Cl    s       0.000479      0.000096      0.000000      0.000000
    51  O     s       0.000058      0.000000      0.000281      0.000000
    52  O     s      -0.000207      0.000000      0.000000      0.000000
    53  Cl    s       0.000000      0.000016      0.000000      0.000000
    54  O     s       0.000119      0.000408      0.000034      0.000000
    55  Cl    s       0.000000      0.000000     -0.000014      0.000000
    56  Cl    s       0.000104      0.000183      0.000000      0.000000
    57  Cl    s       0.000000      0.000056      0.000039      0.000000
    58  O     s       0.000078      0.000000      0.000096      0.000000
    59  Cl    s       0.000118      0.000035      0.000000      0.000000
    60  Cl    s       0.000092      0.000000      0.000000      0.000000
    61  O     s      -0.000007      0.000138      0.000000      0.000000
    62  O     s      -0.000012      0.000136      0.000000      0.000000
    63  Cl    s       0.000000      0.000044     -0.000055      0.000000
--------------------------------------------------------------------------------

  Comparison of initial and final region 1 : 

--------------------------------------------------------------------------------
  Parameter   Initial value   Final value   Difference    Units      Percent
--------------------------------------------------------------------------------
      1 x         -2.202951     -2.323751    -0.120800    Cartesian    5.48
      1 y         -2.202951     -2.323751    -0.120800    Cartesian    5.48
      1 z          0.000000      0.000000     0.000000    Cartesian    0.00
      2 x         -2.202951     -2.181961     0.020991    Cartesian   -0.95
      2 y         -2.202951     -2.181961     0.020991    Cartesian   -0.95
      2 z         -2.202951     -2.181961     0.020991    Cartesian   -0.95
      3 x          0.000000      0.000000     0.000000    Cartesian    0.00
      3 y          0.000000      0.000000     0.000000    Cartesian    0.00
      3 z          4.405902      4.345630    -0.060272    Cartesian   -1.37
      4 x          4.405902      4.416928     0.011026    Cartesian    0.25
      4 y         -2.202951     -2.220257    -0.017306    Cartesian    0.79
      4 z         -2.202951     -2.220257    -0.017306    Cartesian    0.79
      5 x          0.000000      0.000000     0.000000    Cartesian    0.00
      5 y          4.405902      4.377362    -0.028541    Cartesian   -0.65
      5 z          4.405902      4.377362    -0.028541    Cartesian   -0.65
      6 x         -2.202951     -2.205509    -0.002557    Cartesian    0.12
      6 y          6.608853      6.627173     0.018320    Cartesian    0.28
      6 z          0.000000      0.000000     0.000000    Cartesian    0.00
      7 x         -2.202951     -2.202215     0.000736    Cartesian   -0.03
      7 y          6.608853      6.607460    -0.001394    Cartesian   -0.02
      7 z         -2.202951     -2.202215     0.000736    Cartesian   -0.03
      8 x          4.405902      4.376590    -0.029312    Cartesian   -0.67
      8 y          4.405902      4.376590    -0.029312    Cartesian   -0.67
      8 z          4.405902      4.376590    -0.029312    Cartesian   -0.67
      9 x         -2.202951     -2.207627    -0.004676    Cartesian    0.21
      9 y          6.608853      6.627202     0.018349    Cartesian    0.28
      9 z          4.405902      4.408804     0.002901    Cartesian    0.07
     10 x          0.000000      0.000000     0.000000    Cartesian    0.00
     10 y          0.000000      0.000000     0.000000    Cartesian    0.00
     10 z          8.811805      8.791342    -0.020462    Cartesian   -0.23
     11 x         -2.202951     -2.205470    -0.002519    Cartesian    0.11
     11 y         -2.202951     -2.205470    -0.002519    Cartesian    0.11
     11 z          8.811805      8.816068     0.004264    Cartesian    0.05
     12 x          6.608853      6.623751     0.014897    Cartesian    0.23
     12 y          6.608853      6.623751     0.014897    Cartesian    0.23
     12 z          0.000000      0.000000     0.000000    Cartesian    0.00
     13 x         -2.202951     -2.201770     0.001181    Cartesian   -0.05
     13 y          6.608853      6.607333    -0.001520    Cartesian   -0.02
     13 z          6.608853      6.607333    -0.001520    Cartesian   -0.02
     14 x          0.000000      0.000000     0.000000    Cartesian    0.00
     14 y          4.405902      4.400469    -0.005433    Cartesian   -0.12
     14 z          8.811805      8.796768    -0.015037    Cartesian   -0.17
     15 x          6.608853      6.619119     0.010266    Cartesian    0.16
     15 y          6.608853      6.619119     0.010266    Cartesian    0.16
     15 z          4.405902      4.406632     0.000730    Cartesian    0.02
     16 x          4.405902      4.400685    -0.005217    Cartesian   -0.12
     16 y          8.811805      8.798256    -0.013549    Cartesian   -0.15
     16 z          4.405902      4.400685    -0.005217    Cartesian   -0.12
     17 x         -2.202951     -2.203768    -0.000817    Cartesian    0.04
     17 y          6.608853      6.614752     0.005898    Cartesian    0.09
     17 z          8.811805      8.814940     0.003135    Cartesian    0.04
     18 x         -2.202951     -2.205024    -0.002073    Cartesian    0.09
     18 y         11.014756     11.021645     0.006889    Cartesian    0.06
     18 z          0.000000      0.000000     0.000000    Cartesian    0.00
     19 x         -2.202951     -2.202502     0.000450    Cartesian   -0.02
     19 y         -2.202951     -2.202502     0.000450    Cartesian   -0.02
     19 z         11.014756     11.013494    -0.001262    Cartesian   -0.01
     20 x          6.608853      6.606604    -0.002250    Cartesian   -0.03
     20 y          6.608853      6.606604    -0.002250    Cartesian   -0.03
     20 z          6.608853      6.606604    -0.002250    Cartesian   -0.03
     21 x         -2.202951     -2.205440    -0.002489    Cartesian    0.11
     21 y         11.014756     11.024134     0.009379    Cartesian    0.09
     21 z          4.405902      4.406622     0.000719    Cartesian    0.02
     22 x          0.000000      0.000000     0.000000    Cartesian    0.00
     22 y          8.811805      8.800894    -0.010911    Cartesian   -0.12
     22 z          8.811805      8.800894    -0.010911    Cartesian   -0.12
     23 x          6.608853      6.614534     0.005680    Cartesian    0.09
     23 y          6.608853      6.614534     0.005680    Cartesian    0.09
     23 z          8.811805      8.813439     0.001634    Cartesian    0.02
     24 x          6.608853      6.610180     0.001326    Cartesian    0.02
     24 y         11.014756     11.023878     0.009122    Cartesian    0.08
     24 z          0.000000      0.000000     0.000000    Cartesian    0.00
     25 x          6.608853      6.608140    -0.000713    Cartesian   -0.01
     25 y         11.014756     11.014480    -0.000276    Cartesian   -0.00
     25 z         -2.202951     -2.203613    -0.000661    Cartesian    0.03
     26 x          0.000000      0.000000     0.000000    Cartesian    0.00
     26 y          0.000000      0.000000     0.000000    Cartesian    0.00
     26 z         13.217707     13.205060    -0.012647    Cartesian   -0.10
     27 x          4.405902      4.402373    -0.003529    Cartesian   -0.08
     27 y          8.811805      8.804110    -0.007695    Cartesian   -0.09
     27 z          8.811805      8.804110    -0.007695    Cartesian   -0.09
     28 x          6.608853      6.612638     0.003785    Cartesian    0.06
     28 y         11.014756     11.018065     0.003309    Cartesian    0.03
     28 z          4.405902      4.406955     0.001052    Cartesian    0.02
     29 x         13.217707     13.218776     0.001069    Cartesian    0.01
     29 y         -2.202951     -2.200011     0.002941    Cartesian   -0.13
     29 z         -2.202951     -2.200011     0.002941    Cartesian   -0.13
     30 x          0.000000      0.000000     0.000000    Cartesian    0.00
     30 y          4.405902      4.404476    -0.001427    Cartesian   -0.03
     30 z         13.217707     13.208439    -0.009268    Cartesian   -0.07
     31 x         -2.202951     -2.200541     0.002410    Cartesian   -0.11
     31 y         11.014756     11.018781     0.004025    Cartesian    0.04
     31 z          8.811805      8.812214     0.000410    Cartesian    0.00
     32 x          6.608853      6.608891     0.000037    Cartesian    0.00
     32 y          6.608853      6.608891     0.000037    Cartesian    0.00
     32 z         11.014756     11.013971    -0.000785    Cartesian   -0.01
     33 x          4.405902      4.404065    -0.001838    Cartesian   -0.04
     33 y         13.217707     13.207816    -0.009891    Cartesian   -0.07
     33 z          4.405902      4.404065    -0.001838    Cartesian   -0.04
     34 x         -2.202951     -2.205049    -0.002098    Cartesian    0.10
     34 y          6.608853      6.613219     0.004366    Cartesian    0.07
     34 z         13.217707     13.219814     0.002107    Cartesian    0.02
     35 x          8.811805      8.805882    -0.005923    Cartesian   -0.07
     35 y          8.811805      8.805882    -0.005923    Cartesian   -0.07
     35 z          8.811805      8.805882    -0.005923    Cartesian   -0.07
     36 x         -2.202951     -2.204289    -0.001337    Cartesian    0.06
     36 y         15.420658     15.428837     0.008179    Cartesian    0.05
     36 z          0.000000      0.000000     0.000000    Cartesian    0.00
     37 x          6.608853      6.612842     0.003988    Cartesian    0.06
     37 y         11.014756     11.022304     0.007549    Cartesian    0.07
     37 z          8.811805      8.813813     0.002009    Cartesian    0.02
     38 x         11.014756     11.020159     0.005403    Cartesian    0.05
     38 y         11.014756     11.020159     0.005403    Cartesian    0.05
     38 z          0.000000      0.000000     0.000000    Cartesian    0.00
     39 x         -2.202951     -2.201561     0.001391    Cartesian   -0.06
     39 y         11.014756     11.011872    -0.002884    Cartesian   -0.03
     39 z         11.014756     11.011872    -0.002884    Cartesian   -0.03
     40 x         -2.202951     -2.201835     0.001116    Cartesian   -0.05
     40 y         15.420658     15.417355    -0.003303    Cartesian   -0.02
     40 z         -2.202951     -2.201835     0.001116    Cartesian   -0.05
     41 x          0.000000      0.000000     0.000000    Cartesian    0.00
     41 y          8.811805      8.804912    -0.006893    Cartesian   -0.08
     41 z         13.217707     13.205895    -0.011812    Cartesian   -0.09
     42 x         -2.202951     -2.181975     0.020976    Cartesian   -0.95
     42 y         -2.202951     -2.181975     0.020976    Cartesian   -0.95
     42 z         -2.202951     -2.181975     0.020976    Cartesian   -0.95
     43 x          0.000000      0.000000     0.000000    Cartesian    0.00
     43 y          0.000000      0.000000     0.000000    Cartesian    0.00
     43 z          4.405902      4.340912    -0.064990    Cartesian   -1.48
     44 x          0.000000      0.000000     0.000000    Cartesian    0.00
     44 y          4.405902      4.367404    -0.038498    Cartesian   -0.87
     44 z          4.405902      4.367404    -0.038498    Cartesian   -0.87
     45 x         -2.202951     -2.202215     0.000736    Cartesian   -0.03
     45 y          6.608853      6.607452    -0.001401    Cartesian   -0.02
     45 z         -2.202951     -2.202215     0.000736    Cartesian   -0.03
     46 x          4.405902      4.371691    -0.034211    Cartesian   -0.78
     46 y          4.405902      4.371691    -0.034211    Cartesian   -0.78
     46 z          4.405902      4.371691    -0.034211    Cartesian   -0.78
     47 x          0.000000      0.000000     0.000000    Cartesian    0.00
     47 y          0.000000      0.000000     0.000000    Cartesian    0.00
     47 z          8.811805      8.787732    -0.024072    Cartesian   -0.27
     48 x         -2.202951     -2.201769     0.001182    Cartesian   -0.05
     48 y          6.608853      6.607332    -0.001521    Cartesian   -0.02
     48 z          6.608853      6.607332    -0.001521    Cartesian   -0.02
     49 x          0.000000      0.000000     0.000000    Cartesian    0.00
     49 y          4.405902      4.399288    -0.006614    Cartesian   -0.15
     49 z          8.811805      8.793963    -0.017841    Cartesian   -0.20
     50 x          4.405902      4.399514    -0.006388    Cartesian   -0.14
     50 y          8.811805      8.795745    -0.016059    Cartesian   -0.18
     50 z          4.405902      4.399514    -0.006388    Cartesian   -0.14
     51 x         -2.202951     -2.202501     0.000450    Cartesian   -0.02
     51 y         -2.202951     -2.202501     0.000450    Cartesian   -0.02
     51 z         11.014756     11.013491    -0.001265    Cartesian   -0.01
     52 x          6.608853      6.606603    -0.002250    Cartesian   -0.03
     52 y          6.608853      6.606603    -0.002250    Cartesian   -0.03
     52 z          6.608853      6.606603    -0.002250    Cartesian   -0.03
     53 x          0.000000      0.000000     0.000000    Cartesian    0.00
     53 y          8.811805      8.798888    -0.012917    Cartesian   -0.15
     53 z          8.811805      8.798888    -0.012917    Cartesian   -0.15
     54 x          6.608853      6.608141    -0.000713    Cartesian   -0.01
     54 y         11.014756     11.014478    -0.000278    Cartesian   -0.00
     54 z         -2.202951     -2.203613    -0.000662    Cartesian    0.03
     55 x          0.000000      0.000000     0.000000    Cartesian    0.00
     55 y          0.000000      0.000000     0.000000    Cartesian    0.00
     55 z         13.217707     13.202883    -0.014824    Cartesian   -0.11
     56 x          4.405902      4.401628    -0.004274    Cartesian   -0.10
     56 y          8.811805      8.802595    -0.009209    Cartesian   -0.10
     56 z          8.811805      8.802595    -0.009209    Cartesian   -0.10
     57 x          0.000000      0.000000     0.000000    Cartesian    0.00
     57 y          4.405902      4.404222    -0.001680    Cartesian   -0.04
     57 z         13.217707     13.206916    -0.010791    Cartesian   -0.08
     58 x          6.608853      6.608890     0.000036    Cartesian    0.00
     58 y          6.608853      6.608890     0.000036    Cartesian    0.00
     58 z         11.014756     11.013972    -0.000784    Cartesian   -0.01
     59 x          4.405902      4.403778    -0.002124    Cartesian   -0.05
     59 y         13.217707     13.206429    -0.011278    Cartesian   -0.09
     59 z          4.405902      4.403778    -0.002124    Cartesian   -0.05
     60 x          8.811805      8.804945    -0.006859    Cartesian   -0.08
     60 y          8.811805      8.804945    -0.006859    Cartesian   -0.08
     60 z          8.811805      8.804945    -0.006859    Cartesian   -0.08
     61 x         -2.202951     -2.201557     0.001394    Cartesian   -0.06
     61 y         11.014756     11.011868    -0.002888    Cartesian   -0.03
     61 z         11.014756     11.011868    -0.002888    Cartesian   -0.03
     62 x         -2.202951     -2.201833     0.001118    Cartesian   -0.05
     62 y         15.420658     15.417351    -0.003307    Cartesian   -0.02
     62 z         -2.202951     -2.201833     0.001118    Cartesian   -0.05
     63 x          0.000000      0.000000     0.000000    Cartesian    0.00
     63 y          8.811805      8.803937    -0.007868    Cartesian   -0.09
     63 z         13.217707     13.204275    -0.013432    Cartesian   -0.10
--------------------------------------------------------------------------------


  Time to end of optimisation  =       14.8993 seconds


  Peak dynamic memory used =     308.33 MB 


  Timing analysis for GULP :

--------------------------------------------------------------------------------
  Task / Subroutine                                          Time (Seconds)
--------------------------------------------------------------------------------
  Calculation of reciprocal space energy and derivatives          0.0004
  Calculation of reciprocal space energy using symmetry           0.0006
  Calculation of real space energy and derivatives                0.0019
  Calculation of real space energy using symmetry                 0.0059
  Calculation for region 1 energy and derivatives (2-b)           9.1773
  Calculation for region 2a energy                                4.8753
  Calculation for region 2b energy                                0.0003
  Calculation and manipulation of Hessian matrix                  0.2852
  Calculation of matrix inversion                                 0.0022
  Symmetry generation of equivalent positions                     0.0025
--------------------------------------------------------------------------------
  Total CPU time                                                 14.8995
--------------------------------------------------------------------------------


  Dump file written as Na3OCl.grs


  Job Finished at 14:48.38  2nd January    2021                               

