********************************************************************************
*                       GENERAL UTILITY LATTICE PROGRAM                        *
*                                 Julian Gale                                  *
*                       Curtin Institute for Computation                       *
*                    School of Molecular and Life Sciences                     *
*                    Curtin University, Western Australia                      *
********************************************************************************
* Version = 5.2.0 * Last modified =  10th September 2020                       *
********************************************************************************
*  optimise     - perform optimisation run                                     *
*  conp         - constant pressure calculation                                *
*  property     - calculate properties for final geometry                      *
*  defect       - perform defect calculation after bulk run                    *
*  compare      - compare initial and final structures                         *
********************************************************************************

  Job Started  at 14:13.45  3rd January    2021                               

  Number of CPUs =     1


  Total number of configurations input =      1

********************************************************************************
*  Input for Configuration =   1                                               *
********************************************************************************

  Formula = ClONa3                                                      

  Number of irreducible atoms/shells =       5


  Total number atoms/shells =       7

  Dimensionality = 3               :  Bulk   


  Symmetry :

  Crystal family                   :  Cubic       
  Crystal class  (Groth - 1921)    :  Cubic Hexakisoctahedral              

  Space group (centrosymmetric)    :  P M 3 M         

  Patterson group                  :  P m -3 m 

  Cartesian lattice vectors (Angstroms) :

        4.504000    0.000000    0.000000
        0.000000    4.504000    0.000000
        0.000000    0.000000    4.504000

  Cell parameters (Angstroms/Degrees):

  a =       4.5040    alpha =  90.0000
  b =       4.5040    beta  =  90.0000
  c =       4.5040    gamma =  90.0000

  Initial cell volume =          91.368216 Angs**3

  Temperature of configuration =   0.00     K 

  Pressure of configuration =         0.000 GPa 

  Fractional coordinates of asymmetric unit :

--------------------------------------------------------------------------------
   No.  Atomic       x           y          z         Charge      Occupancy
        Label      (Frac)      (Frac)     (Frac)        (e)         (Frac)  
--------------------------------------------------------------------------------
      1 Cl    c    0.000000    0.000000    0.000000     1.48500    1.000000    
      2 O     c    0.500000    0.500000    0.500000     0.18300    1.000000    
      3 Na    c    0.500000    0.500000    0.000000     1.00000    1.000000    
      4 Cl    s    0.000000    0.000000    0.000000    -2.48500    1.000000    
      5 O     s    0.500000    0.500000    0.500000    -2.18300    1.000000    
--------------------------------------------------------------------------------


  Constraints : 

--------------------------------------------------------------------------------
  Constraint no.      Unconstrained     Constrained    Coefficient    Offset
                         Variable         Variable
--------------------------------------------------------------------------------
           1              Strain 1        Strain 2       1.00000      0.0000
           2              Strain 1        Strain 3       1.00000      0.0000
--------------------------------------------------------------------------------


********************************************************************************
*  General input information                                                   *
********************************************************************************

  Species output for all configurations : 

--------------------------------------------------------------------------------
  Species    Type    Atomic    Atomic    Charge       Radii (Angs)     Library
                     Number     Mass       (e)     Cova   Ionic  VDW   Symbol
--------------------------------------------------------------------------------
    Na       Core       11      22.99   1.000000   0.970  0.000  2.300          
    O        Core        8      16.00   0.183000   0.730  0.000  1.360          
    O        Shell       8       0.00  -2.183000   0.730  0.000  1.360          
    Cl       Core       17      35.45   1.485000   0.990  0.000  1.650          
    Cl       Shell      17       0.00  -2.485000   0.990  0.000  1.650          
    Mg       Core       12      24.31   0.415000   1.100  0.000  0.000          
    Mg       Shell      12       0.00   1.585000   1.100  0.000  0.000          
    Ca       Core       20      40.08  -1.135000   0.990  0.000  0.000          
    Ca       Shell      20       0.00   3.135000   0.990  0.000  0.000          
    Sr       Core       38      87.62  -1.251000   1.120  0.000  0.000          
    Sr       Shell      38       0.00   3.251000   1.120  0.000  0.000          
    Ba       Core       56     137.33  -7.203000   1.340  0.000  0.000          
    Ba       Shell      56       0.00   9.203000   1.340  0.000  0.000          
--------------------------------------------------------------------------------


  Lattice summation method               =    Ewald          (3-D)
                                         =    Parry          (2-D)
                                         =    Saunders et al (1-D)
  Accuracy factor for lattice sums       =   12.000


  Analytic derivatives to be used

  Time limit = Infinity

  Maximum range for interatomic potentials =    100000.000000 Angstroms

  General interatomic potentials :

--------------------------------------------------------------------------------
Atom  Types   Potential      Parameter       Value         Units   Cutoffs(Ang)
  1     2                                                            Min /  Max 
--------------------------------------------------------------------------------
O    c O    s Spring (c-s)  Spring k 2       593.71600    eV*Ang^-2 0.000  0.800
                            Spring k 4       0.0000000    eV*Ang^-4 
--------------------------------------------------------------------------------
Cl   c Cl   s Spring (c-s)  Spring k 2       29.380000    eV*Ang^-2 0.000  0.800
                            Spring k 4       0.0000000    eV*Ang^-4 
--------------------------------------------------------------------------------
Mg   c Mg   s Spring (c-s)  Spring k 2       361.60000    eV*Ang^-2 0.000  0.800
                            Spring k 4       0.0000000    eV*Ang^-4 
--------------------------------------------------------------------------------
Ca   c Ca   s Spring (c-s)  Spring k 2       110.20000    eV*Ang^-2 0.000  0.800
                            Spring k 4       0.0000000    eV*Ang^-4 
--------------------------------------------------------------------------------
Sr   c Sr   s Spring (c-s)  Spring k 2       71.700000    eV*Ang^-2 0.000  0.800
                            Spring k 4       0.0000000    eV*Ang^-4 
--------------------------------------------------------------------------------
Ba   c Ba   s Spring (c-s)  Spring k 2       495.20000    eV*Ang^-2 0.000  0.800
                            Spring k 4       0.0000000    eV*Ang^-4 
--------------------------------------------------------------------------------
Na   c Na   c Buckingham    Buckingham A     1788.1900    eV        0.000 12.000
                            Buckingham rho  0.15900000    Ang       
                            Buckingham C     0.0000000    eV*Ang^6  
--------------------------------------------------------------------------------
Na   c O    s Buckingham    Buckingham A     322.01000    eV        0.000 12.000
                            Buckingham rho  0.38800000    Ang       
                            Buckingham C     0.0000000    eV*Ang^6  
--------------------------------------------------------------------------------
Na   c Cl   s Buckingham    Buckingham A     1727.8700    eV        0.000 12.000
                            Buckingham rho  0.29700000    Ang       
                            Buckingham C     0.0000000    eV*Ang^6  
--------------------------------------------------------------------------------
O    s O    s Buckingham    Buckingham A     22764.300    eV        0.000 12.000
                            Buckingham rho  0.14900000    Ang       
                            Buckingham C     13.190000    eV*Ang^6  
--------------------------------------------------------------------------------
O    s Cl   s Buckingham    Buckingham A     8286.9100    eV        0.000 12.000
                            Buckingham rho  0.25900000    Ang       
                            Buckingham C     62.200000    eV*Ang^6  
--------------------------------------------------------------------------------
Cl   s Cl   s Buckingham    Buckingham A     1227.2000    eV        0.000 12.000
                            Buckingham rho  0.32100000    Ang       
                            Buckingham C     14.530000    eV*Ang^6  
--------------------------------------------------------------------------------
O    s Mg   s Buckingham    Buckingham A     1428.5000    eV        0.000 12.000
                            Buckingham rho  0.29450000    Ang       
                            Buckingham C     0.0000000    eV*Ang^6  
--------------------------------------------------------------------------------
Mg   s Cl   s Buckingham    Buckingham A     4914.5400    eV        0.000 12.000
                            Buckingham rho  0.25700000    Ang       
                            Buckingham C     0.0000000    eV*Ang^6  
--------------------------------------------------------------------------------
O    s Ca   s Buckingham    Buckingham A     1090.4000    eV        0.000 12.000
                            Buckingham rho  0.34370000    Ang       
                            Buckingham C     0.0000000    eV*Ang^6  
--------------------------------------------------------------------------------
Cl   s Ca   s Buckingham    Buckingham A     2302.0000    eV        0.000 12.000
                            Buckingham rho  0.34020000    Ang       
                            Buckingham C     0.0000000    eV*Ang^6  
--------------------------------------------------------------------------------
O    s Sr   s Buckingham    Buckingham A     959.10000    eV        0.000 12.000
                            Buckingham rho  0.37210000    Ang       
                            Buckingham C     0.0000000    eV*Ang^6  
--------------------------------------------------------------------------------
Cl   s Sr   s Buckingham    Buckingham A     2191.0900    eV        0.000 12.000
                            Buckingham rho  0.34570000    Ang       
                            Buckingham C     0.0000000    eV*Ang^6  
--------------------------------------------------------------------------------
O    s Ba   s Buckingham    Buckingham A     905.70000    eV        0.000 12.000
                            Buckingham rho  0.39760000    Ang       
                            Buckingham C     0.0000000    eV*Ang^6  
--------------------------------------------------------------------------------
Cl   s Ba   s Buckingham    Buckingham A     2704.5500    eV        0.000 12.000
                            Buckingham rho  0.35280000    Ang       
                            Buckingham C     0.0000000    eV*Ang^6  
--------------------------------------------------------------------------------

********************************************************************************
*  Output for configuration   1                                                *
********************************************************************************


  Components of energy : 

--------------------------------------------------------------------------------
  Interatomic potentials     =           6.15672400 eV    
  Monopole - monopole (real) =         -10.03624526 eV    
  Monopole - monopole (recip)=         -29.53581274 eV    
  Monopole - monopole (total)=         -39.57205800 eV    
--------------------------------------------------------------------------------
  Total lattice energy       =         -33.41533400 eV    
--------------------------------------------------------------------------------
  Total lattice energy       =           -3224.0689 kJ/(mole unit cells)
--------------------------------------------------------------------------------


  Number of variables =        1

  Maximum number of calculations  =          1000
  Maximum Hessian update interval =            10
  Maximum step size               =   1.000000000
  Maximum parameter tolerance     =   0.000010000
  Maximum function  tolerance     =   0.000010000
  Maximum gradient  tolerance     =   0.001000000
  Maximum gradient  component     =   0.010000000

  Symmetry constrained optimisation

  Symmetry used for second derivatives

  Cell parameters to be optimised using strains

  Newton-Raphson optimiser to be used

  BFGS hessian update to be used

  Lower half triangular hessian to be used

  Start of bulk optimisation :

  Cycle:      0 Energy:       -33.415334  Gnorm:      1.285717  CPU:    0.005
  ** Hessian calculated **
  Cycle:      1 Energy:       -33.420068  Gnorm:      0.004892  CPU:    0.007


  **** Optimisation achieved ****


  Final energy =     -33.42006833 eV
  Final Gnorm  =       0.00012371

  Components of energy : 

--------------------------------------------------------------------------------
  Interatomic potentials     =           6.44238503 eV    
  Monopole - monopole (real) =         -10.10989518 eV    
  Monopole - monopole (recip)=         -29.75255817 eV    
  Monopole - monopole (total)=         -39.86245335 eV    
--------------------------------------------------------------------------------
  Total lattice energy       =         -33.42006833 eV    
--------------------------------------------------------------------------------
  Total lattice energy       =           -3224.5257 kJ/(mole unit cells)
--------------------------------------------------------------------------------

  Final asymmetric unit coordinates :

--------------------------------------------------------------------------------
   No.  Atomic        x           y           z         Radius
        Label       (Frac)      (Frac)      (Frac)       (Angs) 
--------------------------------------------------------------------------------
     1  Cl    c     0.000000    0.000000    0.000000    0.000000
     2  O     c     0.500000    0.500000    0.500000    0.000000
     3  Na    c     0.500000    0.500000    0.000000    0.000000
     4  Cl    s     0.000000    0.000000    0.000000    0.000000
     5  O     s     0.500000    0.500000    0.500000    0.000000
--------------------------------------------------------------------------------

  Final Cartesian lattice vectors (Angstroms) :

        4.471189    0.000000    0.000000
        0.000000    4.471189    0.000000
        0.000000    0.000000    4.471189


  Final cell parameters and derivatives :

--------------------------------------------------------------------------------
       a            4.471189 Angstrom     dE/de1(xx)     0.000124 eV/strain
       b            4.471189 Angstrom     dE/de2(yy)     0.000000 eV/strain
       c            4.471189 Angstrom     dE/de3(zz)     0.000000 eV/strain
       alpha       90.000000 Degrees      dE/de4(yz)     0.000000 eV/strain
       beta        90.000000 Degrees      dE/de5(xz)     0.000000 eV/strain
       gamma       90.000000 Degrees      dE/de6(xy)     0.000000 eV/strain
--------------------------------------------------------------------------------

  Primitive cell volume =            89.385893 Angs**3

  Density of cell =      2.237101 g/cm**3

  Non-primitive cell volume =            89.385893 Angs**3


  Final internal derivatives :

--------------------------------------------------------------------------------
   No.  Atomic          a             b             c           Radius
        Label          (eV)          (eV)          (eV)        (eV/Angs)
--------------------------------------------------------------------------------
      1 Cl    c       0.000000      0.000000      0.000000      0.000000
      2 O     c       0.000000      0.000000      0.000000      0.000000
      3 Na    c       0.000000      0.000000      0.000000      0.000000
      4 Cl    s       0.000000      0.000000      0.000000      0.000000
      5 O     s       0.000000      0.000000      0.000000      0.000000
--------------------------------------------------------------------------------
  Maximum abs         0.000000      0.000000      0.000000      0.000000
--------------------------------------------------------------------------------

  Comparison of initial and final structures : 

--------------------------------------------------------------------------------
  Parameter   Initial value   Final value   Difference    Units      Percent
--------------------------------------------------------------------------------
    Volume        91.368216     89.385893    -1.982323    Angs**3     -2.17
    a              4.504000      4.471189    -0.032811    Angstroms   -0.73
    b              4.504000      4.471189    -0.032811    Angstroms   -0.73
    c              4.504000      4.471189    -0.032811    Angstroms   -0.73
    alpha         90.000000     90.000000     0.000000    Degrees      0.00
    beta          90.000000     90.000000     0.000000    Degrees      0.00
    gamma         90.000000     90.000000     0.000000    Degrees      0.00
      1 x          0.000000      0.000000     0.000000    Fractional   0.00
      1 y          0.000000      0.000000     0.000000    Fractional   0.00
      1 z          0.000000      0.000000     0.000000    Fractional   0.00
      2 x          0.500000      0.500000     0.000000    Fractional   0.00
      2 y          0.500000      0.500000     0.000000    Fractional   0.00
      2 z          0.500000      0.500000     0.000000    Fractional   0.00
      3 x          0.500000      0.500000     0.000000    Fractional   0.00
      3 y          0.500000      0.500000     0.000000    Fractional   0.00
      3 z          0.000000      0.000000     0.000000    Fractional   0.00
      4 x          0.000000      0.000000     0.000000    Fractional   0.00
      4 y          0.000000      0.000000     0.000000    Fractional   0.00
      4 z          0.000000      0.000000     0.000000    Fractional   0.00
      5 x          0.500000      0.500000     0.000000    Fractional   0.00
      5 y          0.500000      0.500000     0.000000    Fractional   0.00
      5 z          0.500000      0.500000     0.000000    Fractional   0.00
--------------------------------------------------------------------------------


  Born effective charge tensors : 

-------------------------------------------------------------------------------
  Atom             x           y             z
-------------------------------------------------------------------------------
    1 Cl    x      -1.0219     -0.0000      0.0000
            y      -0.0000     -1.0219      0.0000
            z       0.0000      0.0000     -1.0219
-------------------------------------------------------------------------------
    2 O     x      -2.2883      0.0000     -0.0000
            y       0.0000     -2.2883     -0.0000
            z      -0.0000     -0.0000     -2.2883
-------------------------------------------------------------------------------
    3 Na    x       1.2338      0.0000     -0.0000
            y       0.0000      1.2338     -0.0000
            z      -0.0000     -0.0000      0.8426
-------------------------------------------------------------------------------




  Elastic Constant Matrix: (Units=GPa)

-------------------------------------------------------------------------------
  Indices      1         2         3         4         5         6    
-------------------------------------------------------------------------------
       1     65.4709   20.9237   20.9237   -0.0000   -0.0000   -0.0000
       2     20.9237   65.4709   20.9237   -0.0000   -0.0000    0.0000
       3     20.9237   20.9237   65.4709   -0.0000   -0.0000   -0.0000
       4     -0.0000   -0.0000   -0.0000   20.9238    0.0000   -0.0000
       5     -0.0000   -0.0000   -0.0000    0.0000   20.9238   -0.0000
       6     -0.0000    0.0000   -0.0000   -0.0000   -0.0000   20.9238
-------------------------------------------------------------------------------


  Elastic Compliance Matrix: (Units=1/GPa)

-------------------------------------------------------------------------------
  Indices      1         2         3         4         5         6    
-------------------------------------------------------------------------------
       1    0.018071 -0.004377 -0.004377 -0.000000  0.000000  0.000000
       2   -0.004377  0.018071 -0.004377  0.000000 -0.000000 -0.000000
       3   -0.004377 -0.004377  0.018071  0.000000  0.000000  0.000000
       4   -0.000000  0.000000  0.000000  0.047793 -0.000000  0.000000
       5    0.000000 -0.000000  0.000000 -0.000000  0.047793  0.000000
       6    0.000000 -0.000000  0.000000  0.000000  0.000000  0.047793
-------------------------------------------------------------------------------

  Mechanical properties :

-------------------------------------------------------------------------------
  Convention :                    Reuss         Voigt         Hill
-------------------------------------------------------------------------------
  Bulk  Modulus (GPa)     =      35.77277      35.77277      35.77277
  Shear Modulus (GPa)     =      21.44358      21.46371      21.45365
-------------------------------------------------------------------------------
  Velocity S-wave (km/s)  =       3.09604       3.09749       3.09676
  Velocity P-wave (km/s)  =       5.36388       5.36500       5.36444
-------------------------------------------------------------------------------
  Compressibility (1/GPa) =    0.02795422
-------------------------------------------------------------------------------
  Stress axis :                     x             y             z
-------------------------------------------------------------------------------
  Youngs Moduli (GPa)     =      55.33598      55.33598      55.33598
-------------------------------------------------------------------------------
  Poissons Ratio (x)      =                     0.24219       0.24219
  Poissons Ratio (y)      =       0.24219                     0.24219
  Poissons Ratio (z)      =       0.24219       0.24219
-------------------------------------------------------------------------------


  Piezoelectric Strain Matrix: (Units=C/m**2)

-------------------------------------------------------------------------------
  Indices      1         2         3         4         5         6    
-------------------------------------------------------------------------------
       x     0.00000   0.00000   0.00000   0.00000  -0.00000  -0.00000
       y    -0.00000   0.00000  -0.00000  -0.00000   0.00000  -0.00000
       z    -0.00000  -0.00000   0.00000  -0.00000  -0.00000   0.00000
-------------------------------------------------------------------------------


  Piezoelectric Stress Matrix: (Units=10**-11 C/N)

-------------------------------------------------------------------------------
  Indices      1         2         3         4         5         6    
-------------------------------------------------------------------------------
       x     0.00000   0.00000   0.00000   0.00000  -0.00000  -0.00000
       y    -0.00000   0.00000  -0.00000  -0.00000   0.00000  -0.00000
       z    -0.00000  -0.00000   0.00000  -0.00000  -0.00000   0.00000
-------------------------------------------------------------------------------


  Static dielectric constant tensor : 

-------------------------------------------------------------------------------
              x         y         z
-------------------------------------------------------------------------------
       x    31.81300   0.00000  -0.00000
       y     0.00000  31.81300  -0.00000
       z    -0.00000  -0.00000  31.81300
--------------------------------------------------------------------------------

  High frequency dielectric constant tensor : 

-------------------------------------------------------------------------------
              x         y         z
-------------------------------------------------------------------------------
       x     1.48935   0.00000  -0.00000
       y     0.00000   1.48935  -0.00000
       z    -0.00000  -0.00000   1.48935
-------------------------------------------------------------------------------

  Static refractive indices : 

-------------------------------------------------------------------------------
    1 =    5.64030      2 =    5.64030      3 =    5.64030
-------------------------------------------------------------------------------

  High frequency refractive indices : 

-------------------------------------------------------------------------------
    1 =    1.22039      2 =    1.22039      3 =    1.22039
-------------------------------------------------------------------------------


  Time to end of optimisation =       0.0099 seconds

********************************************************************************
*  Defect calculation for configuration   1 :                                  *
********************************************************************************

  Total number of defects =      1

  Total charge on defect  =  -1.00

  Defect centre is at   0.5000   0.5000   0.0000  Frac

  Region 1 radius =  12.0000      Number of ions =    540

  Number of symmetry inequivalent region 1 ions  =     63

  Region 2 radius =  24.0000      Number of ions =   3986

  Number of symmetry inequivalent region 2a ions =    331

  Region 2a mode = 4 : screened electrostatics due to region 1 
                       neglect correction to region 1 forces from 2a
                       region 2a displacements based on defects only

  Region 2a ions will only interact with defects in region 1

  Vacancies:

--------------------------------------------------------------------------------
    Specification type     Symbol/Number         x          y          z
--------------------------------------------------------------------------------
    Fractional                               0.500000   0.500000   0.000000
--------------------------------------------------------------------------------


  Symmetry reduced region 1 (Relative to defect centre) :

--------------------------------------------------------------------------------
   No.   Atomic       x            y             z       Radius  Multiplicity   
         Label      (Angs)       (Angs)        (Angs)    (Angs)     
--------------------------------------------------------------------------------
     1  O     c      0.0000       0.0000      -2.2356 *  0.0000     2          
     2  Cl    c      2.2356 *     2.2356       0.0000    0.0000     4          
     3  Na    c      2.2356 *     0.0000      -2.2356 *  0.0000     8          
     4  Na    c      0.0000       0.0000       4.4712 *  0.0000     2          
     5  Na    c      0.0000       4.4712 *     0.0000    0.0000     4          
     6  O     c      0.0000       4.4712 *    -2.2356 *  0.0000     8          
     7  Cl    c      2.2356 *     2.2356       4.4712 *  0.0000     8          
     8  Na    c      2.2356 *     4.4712 *    -2.2356 *  0.0000    16          
     9  Na    c      0.0000       4.4712 *     4.4712 *  0.0000     8          
    10  Na    c      4.4712 *     4.4712       0.0000    0.0000     4          
    11  O     c      0.0000       0.0000       6.7068 *  0.0000     2          
    12  O     c      4.4712 *     4.4712      -2.2356 *  0.0000     8          
    13  Cl    c      2.2356 *     6.7068 *     0.0000    0.0000     8          
    14  Na    c      2.2356 *     0.0000       6.7068 *  0.0000     8          
    15  Na    c      6.7068 *     0.0000      -2.2356 *  0.0000     8          
    16  Na    c      4.4712 *     4.4712       4.4712 *  0.0000     8          
    17  O     c      0.0000       4.4712 *     6.7068 *  0.0000     8          
    18  Cl    c      2.2356 *     6.7068 *     4.4712 *  0.0000    16          
    19  Na    c      2.2356 *     4.4712 *     6.7068 *  0.0000    16          
    20  Na    c      6.7068 *     4.4712 *    -2.2356 *  0.0000    16          
    21  Na    c      0.0000       0.0000       8.9424 *  0.0000     2          
    22  Na    c      0.0000       8.9424 *     0.0000    0.0000     4          
    23  O     c      0.0000       8.9424 *    -2.2356 *  0.0000     8          
    24  O     c      4.4712 *     4.4712       6.7068 *  0.0000     8          
    25  Cl    c      2.2356 *     2.2356       8.9424 *  0.0000     8          
    26  Cl    c      6.7068 *     6.7068       0.0000    0.0000     4          
    27  Na    c      2.2356 *     8.9424 *    -2.2356 *  0.0000    16          
    28  Na    c      6.7068 *     0.0000       6.7068 *  0.0000     8          
    29  Na    c      0.0000       4.4712 *     8.9424 *  0.0000     8          
    30  Na    c      0.0000       8.9424 *     4.4712 *  0.0000     8          
    31  Na    c      4.4712 *     8.9424 *     0.0000    0.0000     8          
    32  O     c      4.4712 *     8.9424 *    -2.2356 *  0.0000    16          
    33  Cl    c      6.7068 *     6.7068       4.4712 *  0.0000     8          
    34  Na    c      6.7068 *     4.4712 *     6.7068 *  0.0000    16          
    35  Na    c      4.4712 *     4.4712       8.9424 *  0.0000     8          
    36  Na    c      4.4712 *     8.9424 *     4.4712 *  0.0000    16          
    37  O     c      0.0000       0.0000      11.1780 *  0.0000     2          
    38  O     c      0.0000       8.9424 *     6.7068 *  0.0000     8          
    39  Cl    c      2.2356 *    11.1780 *     0.0000    0.0000     8          
    40  Na    c      2.2356 *     0.0000      11.1780 *  0.0000     8          
    41  Na    c     11.1780 *     0.0000      -2.2356 *  0.0000     8          
    42  Cl    c      2.2356 *     6.7068 *     8.9424 *  0.0000    16          
    43  Na    c      2.2356 *     8.9424 *     6.7068 *  0.0000    16          
    44  Na    c      6.7068 *     8.9424 *    -2.2356 *  0.0000    16          
    45  O     s      0.0000       0.0000      -2.2356 *  0.0000     2          
    46  Cl    s      2.2356 *     2.2356       0.0000    0.0000     4          
    47  O     s      0.0000       4.4712 *    -2.2356 *  0.0000     8          
    48  Cl    s      2.2356 *     2.2356       4.4712 *  0.0000     8          
    49  O     s      0.0000       0.0000       6.7068 *  0.0000     2          
    50  O     s      4.4712 *     4.4712      -2.2356 *  0.0000     8          
    51  Cl    s      2.2356 *     6.7068 *     0.0000    0.0000     8          
    52  O     s      0.0000       4.4712 *     6.7068 *  0.0000     8          
    53  Cl    s      2.2356 *     6.7068 *     4.4712 *  0.0000    16          
    54  O     s      0.0000       8.9424 *    -2.2356 *  0.0000     8          
    55  O     s      4.4712 *     4.4712       6.7068 *  0.0000     8          
    56  Cl    s      2.2356 *     2.2356       8.9424 *  0.0000     8          
    57  Cl    s      6.7068 *     6.7068       0.0000    0.0000     4          
    58  O     s      4.4712 *     8.9424 *    -2.2356 *  0.0000    16          
    59  Cl    s      6.7068 *     6.7068       4.4712 *  0.0000     8          
    60  O     s      0.0000       0.0000      11.1780 *  0.0000     2          
    61  O     s      0.0000       8.9424 *     6.7068 *  0.0000     8          
    62  Cl    s      2.2356 *    11.1780 *     0.0000    0.0000     8          
    63  Cl    s      2.2356 *     6.7068 *     8.9424 *  0.0000    16          
--------------------------------------------------------------------------------


  Constraints on symmetry reduced coordinates :

--------------------------------------------------------------------------------
  Constraint no.      Unconstrained     Constrained    Coefficient    
                         Variable         Variable
--------------------------------------------------------------------------------
           1                 2 x             2 y         1.00000
           2                 7 x             7 y         1.00000
           3                10 x            10 y         1.00000
           4                12 x            12 y         1.00000
           5                16 x            16 y         1.00000
           6                24 x            24 y         1.00000
           7                25 x            25 y         1.00000
           8                26 x            26 y         1.00000
           9                33 x            33 y         1.00000
          10                35 x            35 y         1.00000
          11                46 x            46 y         1.00000
          12                48 x            48 y         1.00000
          13                50 x            50 y         1.00000
          14                55 x            55 y         1.00000
          15                56 x            56 y         1.00000
          16                57 x            57 y         1.00000
          17                59 x            59 y         1.00000
--------------------------------------------------------------------------------


  Components of defect energy : 

--------------------------------------------------------------------------------
  Region 1 - region 1                   =    -18.01018274 eV
  Region 1 - region 2a (unrelaxed)      =     26.20895939 eV
  Region 1 - 2a (relaxed - correction)  =     -0.58705998 eV
  Region 1 (Total)                      =      7.61171667 eV
  Region 2a                             =      0.29343495 eV
  Region 2b                             =     -0.29024768 eV
--------------------------------------------------------------------------------
  Total defect energy                   =      7.61490395 eV
--------------------------------------------------------------------------------

  Largest displacement in region 2 =   0.0192 Angstroms


  Number of variables =      125

  Maximum number of calculations  =        1000
  Maximum Hessian update interval =          10
  Maximum step size               =   1.0000000
  Maximum parameter tolerance     =   0.0000100
  Maximum function  tolerance     =   0.0000100
  Maximum gradient  tolerance     =   0.0010000

  Symmetry adapted optimisation

  Symmetry to be used for second derivatives

  Newton-Raphson optimiser to be used

  BFGS hessian update to be used

  Lower half triangular hessian to be used

  Start of defect optimisation :

  Cycle:      0 Defect Energy:   7.614904  Gnorm:     0.306023  CPU:    3.636
  ** Hessian calculated **
  Cycle:      1 Defect Energy:   5.389925  Gnorm:     0.161151  CPU:    7.764
  ** Hessian calculated **
  Cycle:      2 Defect Energy:   4.784240  Gnorm:     0.060390  CPU:   10.154
  Cycle:      3 Defect Energy:   4.664253  Gnorm:     0.045792  CPU:   12.046
  Cycle:      4 Defect Energy:   4.582999  Gnorm:     0.031755  CPU:   14.209
  Cycle:      5 Defect Energy:   4.550312  Gnorm:     0.022694  CPU:   14.681
  Cycle:      6 Defect Energy:   4.508490  Gnorm:     0.020442  CPU:   15.136
  Cycle:      7 Defect Energy:   4.454527  Gnorm:     0.017421  CPU:   15.678
  Cycle:      8 Defect Energy:   4.410699  Gnorm:     0.015770  CPU:   16.126
  Cycle:      9 Defect Energy:   4.367814  Gnorm:     0.017035  CPU:   16.562
  Cycle:     10 Defect Energy:   4.323086  Gnorm:     0.020540  CPU:   16.967
  Cycle:     11 Defect Energy:   4.273400  Gnorm:     0.024185  CPU:   17.386
  ** Hessian calculated **
  Cycle:     12 Defect Energy:   4.258078  Gnorm:     0.020030  CPU:   18.246
  Cycle:     13 Defect Energy:   4.238144  Gnorm:     0.018847  CPU:   18.648
  Cycle:     14 Defect Energy:   4.213485  Gnorm:     0.018069  CPU:   19.053
  Cycle:     15 Defect Energy:   4.181516  Gnorm:     0.017442  CPU:   19.460
  Cycle:     16 Defect Energy:   4.144493  Gnorm:     0.017367  CPU:   19.862
  Cycle:     17 Defect Energy:   4.113065  Gnorm:     0.018092  CPU:   20.269
  Cycle:     18 Defect Energy:   4.091632  Gnorm:     0.018535  CPU:   20.922
  Cycle:     19 Defect Energy:   4.074605  Gnorm:     0.019083  CPU:   21.333
  Cycle:     20 Defect Energy:   4.059044  Gnorm:     0.019535  CPU:   21.718
  Cycle:     21 Defect Energy:   4.044201  Gnorm:     0.019384  CPU:   22.112
  ** Hessian calculated **
  Cycle:     22 Defect Energy:   3.967409  Gnorm:     0.015022  CPU:   22.947
  Cycle:     23 Defect Energy:   3.912036  Gnorm:     0.010497  CPU:   23.340
  Cycle:     24 Defect Energy:   3.887249  Gnorm:     0.007301  CPU:   23.738
  Cycle:     25 Defect Energy:   3.875710  Gnorm:     0.005106  CPU:   24.134
  Cycle:     26 Defect Energy:   3.870212  Gnorm:     0.003570  CPU:   24.529
  Cycle:     27 Defect Energy:   3.867579  Gnorm:     0.002500  CPU:   24.925
  Cycle:     28 Defect Energy:   3.866330  Gnorm:     0.001748  CPU:   25.326
  Cycle:     29 Defect Energy:   3.865740  Gnorm:     0.001224  CPU:   25.891
  Cycle:     30 Defect Energy:   3.865469  Gnorm:     0.000856  CPU:   26.291
  Cycle:     31 Defect Energy:   3.865347  Gnorm:     0.000600  CPU:   26.687
  ** Hessian calculated **
  Cycle:     32 Defect Energy:   3.865295  Gnorm:     0.000420  CPU:   27.528
  Cycle:     33 Defect Energy:   3.865276  Gnorm:     0.000294  CPU:   27.921


  **** Optimisation achieved ****


  Final defect energy  =        3.86526998
  Final defect Gnorm   =        0.00020580

  Components of defect energy : 

--------------------------------------------------------------------------------
  Region 1 - region 1                   =    -18.35515789 eV
  Region 1 - region 2a (unrelaxed)      =     22.76619978 eV
  Region 1 - 2a (relaxed - correction)  =     -0.51085770 eV
  Region 1 (Total)                      =      3.90018419 eV
  Region 2a                             =      0.25533346 eV
  Region 2b                             =     -0.29024768 eV
--------------------------------------------------------------------------------
  Total defect energy                   =      3.86526998 eV
--------------------------------------------------------------------------------

  Largest displacement in region 2 =   0.0192 Angstroms

  Final coordinates of region 1 :

--------------------------------------------------------------------------------
   No.  Atomic        x           y           z          Radius      Charge
        Label       (Angs)      (Angs)      (Angs)       (Angs)       (e) 
--------------------------------------------------------------------------------
     1  O     c     2.235594    2.235594   -2.303497    0.000000    0.183000
     2  O     c     2.235594    2.235594    2.303497    0.000000    0.183000
     3  Cl    c     4.573017    4.573017    0.000000    0.000000    1.485000
     4  Cl    c     4.573017   -0.101828    0.000000    0.000000    1.485000
     5  Cl    c    -0.101828    4.573017    0.000000    0.000000    1.485000
     6  Cl    c    -0.101828   -0.101828    0.000000    0.000000    1.485000
     7  Na    c     4.372861    2.235594   -1.799969    0.000000    1.000000
     8  Na    c     4.372861    2.235594    1.799969    0.000000    1.000000
     9  Na    c     0.098327    2.235594   -1.799969    0.000000    1.000000
    10  Na    c     0.098327    2.235594    1.799969    0.000000    1.000000
    11  Na    c     2.235594    4.372861   -1.799969    0.000000    1.000000
    12  Na    c     2.235594    4.372861    1.799969    0.000000    1.000000
    13  Na    c     2.235594    0.098327   -1.799969    0.000000    1.000000
    14  Na    c     2.235594    0.098327    1.799969    0.000000    1.000000
    15  Na    c     2.235594    2.235594    4.453782    0.000000    1.000000
    16  Na    c     2.235594    2.235594   -4.453782    0.000000    1.000000
    17  Na    c     2.235594    7.096498    0.000000    0.000000    1.000000
    18  Na    c     2.235594   -2.625309    0.000000    0.000000    1.000000
    19  Na    c     7.096498    2.235594    0.000000    0.000000    1.000000
    20  Na    c    -2.625309    2.235594    0.000000    0.000000    1.000000
    21  O     c     2.235594    6.681006   -2.215446    0.000000    0.183000
    22  O     c     2.235594    6.681006    2.215446    0.000000    0.183000
    23  O     c     2.235594   -2.209817   -2.215446    0.000000    0.183000
    24  O     c     2.235594   -2.209817    2.215446    0.000000    0.183000
    25  O     c     6.681006    2.235594   -2.215446    0.000000    0.183000
    26  O     c     6.681006    2.235594    2.215446    0.000000    0.183000
    27  O     c    -2.209817    2.235594   -2.215446    0.000000    0.183000
    28  O     c    -2.209817    2.235594    2.215446    0.000000    0.183000
    29  Cl    c     4.563016    4.563016    4.575475    0.000000    1.485000
    30  Cl    c     4.563016    4.563016   -4.575475    0.000000    1.485000
    31  Cl    c     4.563016   -0.091827    4.575475    0.000000    1.485000
    32  Cl    c     4.563016   -0.091827   -4.575475    0.000000    1.485000
    33  Cl    c    -0.091827    4.563016    4.575475    0.000000    1.485000
    34  Cl    c    -0.091827    4.563016   -4.575475    0.000000    1.485000
    35  Cl    c    -0.091827   -0.091827    4.575475    0.000000    1.485000
    36  Cl    c    -0.091827   -0.091827   -4.575475    0.000000    1.485000
    37  Na    c     4.462275    6.666085   -2.172071    0.000000    1.000000
    38  Na    c     4.462275    6.666085    2.172071    0.000000    1.000000
    39  Na    c     4.462275   -2.194896   -2.172071    0.000000    1.000000
    40  Na    c     4.462275   -2.194896    2.172071    0.000000    1.000000
    41  Na    c     0.008914    6.666085   -2.172071    0.000000    1.000000
    42  Na    c     0.008914    6.666085    2.172071    0.000000    1.000000
    43  Na    c     0.008914   -2.194896   -2.172071    0.000000    1.000000
    44  Na    c     0.008914   -2.194896    2.172071    0.000000    1.000000
    45  Na    c     6.666085    4.462275   -2.172071    0.000000    1.000000
    46  Na    c     6.666085    4.462275    2.172071    0.000000    1.000000
    47  Na    c     6.666085    0.008914   -2.172071    0.000000    1.000000
    48  Na    c     6.666085    0.008914    2.172071    0.000000    1.000000
    49  Na    c    -2.194896    4.462275   -2.172071    0.000000    1.000000
    50  Na    c    -2.194896    4.462275    2.172071    0.000000    1.000000
    51  Na    c    -2.194896    0.008914   -2.172071    0.000000    1.000000
    52  Na    c    -2.194896    0.008914    2.172071    0.000000    1.000000
    53  Na    c     2.235594    6.277025    4.431492    0.000000    1.000000
    54  Na    c     2.235594    6.277025   -4.431492    0.000000    1.000000
    55  Na    c     2.235594   -1.805836    4.431492    0.000000    1.000000
    56  Na    c     2.235594   -1.805836   -4.431492    0.000000    1.000000
    57  Na    c     6.277025    2.235594    4.431492    0.000000    1.000000
    58  Na    c     6.277025    2.235594   -4.431492    0.000000    1.000000
    59  Na    c    -1.805836    2.235594    4.431492    0.000000    1.000000
    60  Na    c    -1.805836    2.235594   -4.431492    0.000000    1.000000
    61  Na    c     6.775578    6.775578    0.000000    0.000000    1.000000
    62  Na    c     6.775578   -2.304390    0.000000    0.000000    1.000000
    63  Na    c    -2.304390    6.775578    0.000000    0.000000    1.000000
    64  Na    c    -2.304390   -2.304390    0.000000    0.000000    1.000000
    65  O     c     2.235594    2.235594    6.763122    0.000000    0.183000
    66  O     c     2.235594    2.235594   -6.763122    0.000000    0.183000
    67  O     c     6.709835    6.709835   -2.242793    0.000000    0.183000
    68  O     c     6.709835    6.709835    2.242793    0.000000    0.183000
    69  O     c     6.709835   -2.238646   -2.242793    0.000000    0.183000
    70  O     c     6.709835   -2.238646    2.242793    0.000000    0.183000
    71  O     c    -2.238646    6.709835   -2.242793    0.000000    0.183000
    72  O     c    -2.238646    6.709835    2.242793    0.000000    0.183000
    73  O     c    -2.238646   -2.238646   -2.242793    0.000000    0.183000
    74  O     c    -2.238646   -2.238646    2.242793    0.000000    0.183000
    75  Cl    c     4.504490    8.955318    0.000000    0.000000    1.485000
    76  Cl    c     4.504490   -4.484130    0.000000    0.000000    1.485000
    77  Cl    c     8.955318    4.504490    0.000000    0.000000    1.485000
    78  Cl    c     8.955318   -0.033301    0.000000    0.000000    1.485000
    79  Cl    c    -0.033301    8.955318    0.000000    0.000000    1.485000
    80  Cl    c    -0.033301   -4.484130    0.000000    0.000000    1.485000
    81  Cl    c    -4.484130    4.504490    0.000000    0.000000    1.485000
    82  Cl    c    -4.484130   -0.033301    0.000000    0.000000    1.485000
    83  Na    c     4.459450    2.235594    6.871838    0.000000    1.000000
    84  Na    c     4.459450    2.235594   -6.871838    0.000000    1.000000
    85  Na    c     0.011739    2.235594    6.871838    0.000000    1.000000
    86  Na    c     0.011739    2.235594   -6.871838    0.000000    1.000000
    87  Na    c     2.235594    4.459450    6.871838    0.000000    1.000000
    88  Na    c     2.235594    4.459450   -6.871838    0.000000    1.000000
    89  Na    c     2.235594    0.011739    6.871838    0.000000    1.000000
    90  Na    c     2.235594    0.011739   -6.871838    0.000000    1.000000
    91  Na    c     8.903701    2.235594   -2.638075    0.000000    1.000000
    92  Na    c     8.903701    2.235594    2.638075    0.000000    1.000000
    93  Na    c    -4.432512    2.235594   -2.638075    0.000000    1.000000
    94  Na    c    -4.432512    2.235594    2.638075    0.000000    1.000000
    95  Na    c     2.235594    8.903701   -2.638075    0.000000    1.000000
    96  Na    c     2.235594    8.903701    2.638075    0.000000    1.000000
    97  Na    c     2.235594   -4.432512   -2.638075    0.000000    1.000000
    98  Na    c     2.235594   -4.432512    2.638075    0.000000    1.000000
    99  Na    c     6.636542    6.636542    4.471020    0.000000    1.000000
   100  Na    c     6.636542    6.636542   -4.471020    0.000000    1.000000
   101  Na    c     6.636542   -2.165354    4.471020    0.000000    1.000000
   102  Na    c     6.636542   -2.165354   -4.471020    0.000000    1.000000
   103  Na    c    -2.165354    6.636542    4.471020    0.000000    1.000000
   104  Na    c    -2.165354    6.636542   -4.471020    0.000000    1.000000
   105  Na    c    -2.165354   -2.165354    4.471020    0.000000    1.000000
   106  Na    c    -2.165354   -2.165354   -4.471020    0.000000    1.000000
   107  O     c     2.235594    6.692569    6.682330    0.000000    0.183000
   108  O     c     2.235594    6.692569   -6.682330    0.000000    0.183000
   109  O     c     2.235594   -2.221380    6.682330    0.000000    0.183000
   110  O     c     2.235594   -2.221380   -6.682330    0.000000    0.183000
   111  O     c     6.692569    2.235594    6.682330    0.000000    0.183000
   112  O     c     6.692569    2.235594   -6.682330    0.000000    0.183000
   113  O     c    -2.221380    2.235594    6.682330    0.000000    0.183000
   114  O     c    -2.221380    2.235594   -6.682330    0.000000    0.183000
   115  Cl    c     4.505522    8.990111    4.485057    0.000000    1.485000
   116  Cl    c     4.505522    8.990111   -4.485057    0.000000    1.485000
   117  Cl    c     4.505522   -4.518923    4.485057    0.000000    1.485000
   118  Cl    c     4.505522   -4.518923   -4.485057    0.000000    1.485000
   119  Cl    c     8.990111    4.505522    4.485057    0.000000    1.485000
   120  Cl    c     8.990111    4.505522   -4.485057    0.000000    1.485000
   121  Cl    c     8.990111   -0.034333    4.485057    0.000000    1.485000
   122  Cl    c     8.990111   -0.034333   -4.485057    0.000000    1.485000
   123  Cl    c    -0.034333    8.990111    4.485057    0.000000    1.485000
   124  Cl    c    -0.034333    8.990111   -4.485057    0.000000    1.485000
   125  Cl    c    -0.034333   -4.518923    4.485057    0.000000    1.485000
   126  Cl    c    -0.034333   -4.518923   -4.485057    0.000000    1.485000
   127  Cl    c    -4.518923    4.505522    4.485057    0.000000    1.485000
   128  Cl    c    -4.518923    4.505522   -4.485057    0.000000    1.485000
   129  Cl    c    -4.518923   -0.034333    4.485057    0.000000    1.485000
   130  Cl    c    -4.518923   -0.034333   -4.485057    0.000000    1.485000
   131  Na    c     4.467168    6.691319    6.674502    0.000000    1.000000
   132  Na    c     4.467168    6.691319   -6.674502    0.000000    1.000000
   133  Na    c     4.467168   -2.220130    6.674502    0.000000    1.000000
   134  Na    c     4.467168   -2.220130   -6.674502    0.000000    1.000000
   135  Na    c     0.004021    6.691319    6.674502    0.000000    1.000000
   136  Na    c     0.004021    6.691319   -6.674502    0.000000    1.000000
   137  Na    c     0.004021   -2.220130    6.674502    0.000000    1.000000
   138  Na    c     0.004021   -2.220130   -6.674502    0.000000    1.000000
   139  Na    c     6.691319    4.467168    6.674502    0.000000    1.000000
   140  Na    c     6.691319    4.467168   -6.674502    0.000000    1.000000
   141  Na    c     6.691319    0.004021    6.674502    0.000000    1.000000
   142  Na    c     6.691319    0.004021   -6.674502    0.000000    1.000000
   143  Na    c    -2.220130    4.467168    6.674502    0.000000    1.000000
   144  Na    c    -2.220130    4.467168   -6.674502    0.000000    1.000000
   145  Na    c    -2.220130    0.004021    6.674502    0.000000    1.000000
   146  Na    c    -2.220130    0.004021   -6.674502    0.000000    1.000000
   147  Na    c     8.936187    6.692507   -2.304941    0.000000    1.000000
   148  Na    c     8.936187    6.692507    2.304941    0.000000    1.000000
   149  Na    c     8.936187   -2.221319   -2.304941    0.000000    1.000000
   150  Na    c     8.936187   -2.221319    2.304941    0.000000    1.000000
   151  Na    c    -4.464999    6.692507   -2.304941    0.000000    1.000000
   152  Na    c    -4.464999    6.692507    2.304941    0.000000    1.000000
   153  Na    c    -4.464999   -2.221319   -2.304941    0.000000    1.000000
   154  Na    c    -4.464999   -2.221319    2.304941    0.000000    1.000000
   155  Na    c     6.692507    8.936187   -2.304941    0.000000    1.000000
   156  Na    c     6.692507    8.936187    2.304941    0.000000    1.000000
   157  Na    c     6.692507   -4.464999   -2.304941    0.000000    1.000000
   158  Na    c     6.692507   -4.464999    2.304941    0.000000    1.000000
   159  Na    c    -2.221319    8.936187   -2.304941    0.000000    1.000000
   160  Na    c    -2.221319    8.936187    2.304941    0.000000    1.000000
   161  Na    c    -2.221319   -4.464999   -2.304941    0.000000    1.000000
   162  Na    c    -2.221319   -4.464999    2.304941    0.000000    1.000000
   163  Na    c     2.235594    2.235594    8.994410    0.000000    1.000000
   164  Na    c     2.235594    2.235594   -8.994410    0.000000    1.000000
   165  Na    c     2.235594   10.814119    0.000000    0.000000    1.000000
   166  Na    c     2.235594   -6.342930    0.000000    0.000000    1.000000
   167  Na    c    10.814119    2.235594    0.000000    0.000000    1.000000
   168  Na    c    -6.342930    2.235594    0.000000    0.000000    1.000000
   169  O     c     2.235594   11.139662   -2.235785    0.000000    0.183000
   170  O     c     2.235594   11.139662    2.235785    0.000000    0.183000
   171  O     c     2.235594   -6.668473   -2.235785    0.000000    0.183000
   172  O     c     2.235594   -6.668473    2.235785    0.000000    0.183000
   173  O     c    11.139662    2.235594   -2.235785    0.000000    0.183000
   174  O     c    11.139662    2.235594    2.235785    0.000000    0.183000
   175  O     c    -6.668473    2.235594   -2.235785    0.000000    0.183000
   176  O     c    -6.668473    2.235594    2.235785    0.000000    0.183000
   177  O     c     6.715952    6.715952    6.710708    0.000000    0.183000
   178  O     c     6.715952    6.715952   -6.710708    0.000000    0.183000
   179  O     c     6.715952   -2.244764    6.710708    0.000000    0.183000
   180  O     c     6.715952   -2.244764   -6.710708    0.000000    0.183000
   181  O     c    -2.244764    6.715952    6.710708    0.000000    0.183000
   182  O     c    -2.244764    6.715952   -6.710708    0.000000    0.183000
   183  O     c    -2.244764   -2.244764    6.710708    0.000000    0.183000
   184  O     c    -2.244764   -2.244764   -6.710708    0.000000    0.183000
   185  Cl    c     4.449295    4.449295    8.949833    0.000000    1.485000
   186  Cl    c     4.449295    4.449295   -8.949833    0.000000    1.485000
   187  Cl    c     4.449295    0.021894    8.949833    0.000000    1.485000
   188  Cl    c     4.449295    0.021894   -8.949833    0.000000    1.485000
   189  Cl    c     0.021894    4.449295    8.949833    0.000000    1.485000
   190  Cl    c     0.021894    4.449295   -8.949833    0.000000    1.485000
   191  Cl    c     0.021894    0.021894    8.949833    0.000000    1.485000
   192  Cl    c     0.021894    0.021894   -8.949833    0.000000    1.485000
   193  Cl    c     8.952410    8.952410    0.000000    0.000000    1.485000
   194  Cl    c     8.952410   -4.481222    0.000000    0.000000    1.485000
   195  Cl    c    -4.481222    8.952410    0.000000    0.000000    1.485000
   196  Cl    c    -4.481222   -4.481222    0.000000    0.000000    1.485000
   197  Na    c     4.466780   11.146793   -2.183326    0.000000    1.000000
   198  Na    c     4.466780   11.146793    2.183326    0.000000    1.000000
   199  Na    c     4.466780   -6.675605   -2.183326    0.000000    1.000000
   200  Na    c     4.466780   -6.675605    2.183326    0.000000    1.000000
   201  Na    c     0.004408   11.146793   -2.183326    0.000000    1.000000
   202  Na    c     0.004408   11.146793    2.183326    0.000000    1.000000
   203  Na    c     0.004408   -6.675605   -2.183326    0.000000    1.000000
   204  Na    c     0.004408   -6.675605    2.183326    0.000000    1.000000
   205  Na    c    11.146793    4.466780   -2.183326    0.000000    1.000000
   206  Na    c    11.146793    4.466780    2.183326    0.000000    1.000000
   207  Na    c    11.146793    0.004408   -2.183326    0.000000    1.000000
   208  Na    c    11.146793    0.004408    2.183326    0.000000    1.000000
   209  Na    c    -6.675605    4.466780   -2.183326    0.000000    1.000000
   210  Na    c    -6.675605    4.466780    2.183326    0.000000    1.000000
   211  Na    c    -6.675605    0.004408   -2.183326    0.000000    1.000000
   212  Na    c    -6.675605    0.004408    2.183326    0.000000    1.000000
   213  Na    c     8.927103    2.235594    6.472676    0.000000    1.000000
   214  Na    c     8.927103    2.235594   -6.472676    0.000000    1.000000
   215  Na    c    -4.455915    2.235594    6.472676    0.000000    1.000000
   216  Na    c    -4.455915    2.235594   -6.472676    0.000000    1.000000
   217  Na    c     2.235594    8.927103    6.472676    0.000000    1.000000
   218  Na    c     2.235594    8.927103   -6.472676    0.000000    1.000000
   219  Na    c     2.235594   -4.455915    6.472676    0.000000    1.000000
   220  Na    c     2.235594   -4.455915   -6.472676    0.000000    1.000000
   221  Na    c     2.235594    6.832590    8.923410    0.000000    1.000000
   222  Na    c     2.235594    6.832590   -8.923410    0.000000    1.000000
   223  Na    c     2.235594   -2.361401    8.923410    0.000000    1.000000
   224  Na    c     2.235594   -2.361401   -8.923410    0.000000    1.000000
   225  Na    c     6.832590    2.235594    8.923410    0.000000    1.000000
   226  Na    c     6.832590    2.235594   -8.923410    0.000000    1.000000
   227  Na    c    -2.361401    2.235594    8.923410    0.000000    1.000000
   228  Na    c    -2.361401    2.235594   -8.923410    0.000000    1.000000
   229  Na    c     2.235594   11.410602    4.451431    0.000000    1.000000
   230  Na    c     2.235594   11.410602   -4.451431    0.000000    1.000000
   231  Na    c     2.235594   -6.939414    4.451431    0.000000    1.000000
   232  Na    c     2.235594   -6.939414   -4.451431    0.000000    1.000000
   233  Na    c    11.410602    2.235594    4.451431    0.000000    1.000000
   234  Na    c    11.410602    2.235594   -4.451431    0.000000    1.000000
   235  Na    c    -6.939414    2.235594    4.451431    0.000000    1.000000
   236  Na    c    -6.939414    2.235594   -4.451431    0.000000    1.000000
   237  Na    c     6.778555   11.120746    0.000000    0.000000    1.000000
   238  Na    c     6.778555   -6.649557    0.000000    0.000000    1.000000
   239  Na    c    11.120746    6.778555    0.000000    0.000000    1.000000
   240  Na    c    11.120746   -2.307367    0.000000    0.000000    1.000000
   241  Na    c    -2.307367   11.120746    0.000000    0.000000    1.000000
   242  Na    c    -2.307367   -6.649557    0.000000    0.000000    1.000000
   243  Na    c    -6.649557    6.778555    0.000000    0.000000    1.000000
   244  Na    c    -6.649557   -2.307367    0.000000    0.000000    1.000000
   245  O     c     6.705875   11.178698   -2.234154    0.000000    0.183000
   246  O     c     6.705875   11.178698    2.234154    0.000000    0.183000
   247  O     c     6.705875   -6.707509   -2.234154    0.000000    0.183000
   248  O     c     6.705875   -6.707509    2.234154    0.000000    0.183000
   249  O     c    11.178698    6.705875   -2.234154    0.000000    0.183000
   250  O     c    11.178698    6.705875    2.234154    0.000000    0.183000
   251  O     c    11.178698   -2.234686   -2.234154    0.000000    0.183000
   252  O     c    11.178698   -2.234686    2.234154    0.000000    0.183000
   253  O     c    -2.234686   11.178698   -2.234154    0.000000    0.183000
   254  O     c    -2.234686   11.178698    2.234154    0.000000    0.183000
   255  O     c    -2.234686   -6.707509   -2.234154    0.000000    0.183000
   256  O     c    -2.234686   -6.707509    2.234154    0.000000    0.183000
   257  O     c    -6.707509    6.705875   -2.234154    0.000000    0.183000
   258  O     c    -6.707509    6.705875    2.234154    0.000000    0.183000
   259  O     c    -6.707509   -2.234686   -2.234154    0.000000    0.183000
   260  O     c    -6.707509   -2.234686    2.234154    0.000000    0.183000
   261  Cl    c     8.966594    8.966594    4.466034    0.000000    1.485000
   262  Cl    c     8.966594    8.966594   -4.466034    0.000000    1.485000
   263  Cl    c     8.966594   -4.495406    4.466034    0.000000    1.485000
   264  Cl    c     8.966594   -4.495406   -4.466034    0.000000    1.485000
   265  Cl    c    -4.495406    8.966594    4.466034    0.000000    1.485000
   266  Cl    c    -4.495406    8.966594   -4.466034    0.000000    1.485000
   267  Cl    c    -4.495406   -4.495406    4.466034    0.000000    1.485000
   268  Cl    c    -4.495406   -4.495406   -4.466034    0.000000    1.485000
   269  Na    c     8.939885    6.722110    6.677827    0.000000    1.000000
   270  Na    c     8.939885    6.722110   -6.677827    0.000000    1.000000
   271  Na    c     8.939885   -2.250921    6.677827    0.000000    1.000000
   272  Na    c     8.939885   -2.250921   -6.677827    0.000000    1.000000
   273  Na    c    -4.468696    6.722110    6.677827    0.000000    1.000000
   274  Na    c    -4.468696    6.722110   -6.677827    0.000000    1.000000
   275  Na    c    -4.468696   -2.250921    6.677827    0.000000    1.000000
   276  Na    c    -4.468696   -2.250921   -6.677827    0.000000    1.000000
   277  Na    c     6.722110    8.939885    6.677827    0.000000    1.000000
   278  Na    c     6.722110    8.939885   -6.677827    0.000000    1.000000
   279  Na    c     6.722110   -4.468696    6.677827    0.000000    1.000000
   280  Na    c     6.722110   -4.468696   -6.677827    0.000000    1.000000
   281  Na    c    -2.250921    8.939885    6.677827    0.000000    1.000000
   282  Na    c    -2.250921    8.939885   -6.677827    0.000000    1.000000
   283  Na    c    -2.250921   -4.468696    6.677827    0.000000    1.000000
   284  Na    c    -2.250921   -4.468696   -6.677827    0.000000    1.000000
   285  Na    c     6.715842    6.715842    8.935726    0.000000    1.000000
   286  Na    c     6.715842    6.715842   -8.935726    0.000000    1.000000
   287  Na    c     6.715842   -2.244653    8.935726    0.000000    1.000000
   288  Na    c     6.715842   -2.244653   -8.935726    0.000000    1.000000
   289  Na    c    -2.244653    6.715842    8.935726    0.000000    1.000000
   290  Na    c    -2.244653    6.715842   -8.935726    0.000000    1.000000
   291  Na    c    -2.244653   -2.244653    8.935726    0.000000    1.000000
   292  Na    c    -2.244653   -2.244653   -8.935726    0.000000    1.000000
   293  Na    c     6.655897   11.198549    4.470977    0.000000    1.000000
   294  Na    c     6.655897   11.198549   -4.470977    0.000000    1.000000
   295  Na    c     6.655897   -6.727361    4.470977    0.000000    1.000000
   296  Na    c     6.655897   -6.727361   -4.470977    0.000000    1.000000
   297  Na    c    11.198549    6.655897    4.470977    0.000000    1.000000
   298  Na    c    11.198549    6.655897   -4.470977    0.000000    1.000000
   299  Na    c    11.198549   -2.184708    4.470977    0.000000    1.000000
   300  Na    c    11.198549   -2.184708   -4.470977    0.000000    1.000000
   301  Na    c    -2.184708   11.198549    4.470977    0.000000    1.000000
   302  Na    c    -2.184708   11.198549   -4.470977    0.000000    1.000000
   303  Na    c    -2.184708   -6.727361    4.470977    0.000000    1.000000
   304  Na    c    -2.184708   -6.727361   -4.470977    0.000000    1.000000
   305  Na    c    -6.727361    6.655897    4.470977    0.000000    1.000000
   306  Na    c    -6.727361    6.655897   -4.470977    0.000000    1.000000
   307  Na    c    -6.727361   -2.184708    4.470977    0.000000    1.000000
   308  Na    c    -6.727361   -2.184708   -4.470977    0.000000    1.000000
   309  O     c     2.235594    2.235594   11.188620    0.000000    0.183000
   310  O     c     2.235594    2.235594  -11.188620    0.000000    0.183000
   311  O     c     2.235594   11.188873    6.684051    0.000000    0.183000
   312  O     c     2.235594   11.188873   -6.684051    0.000000    0.183000
   313  O     c     2.235594   -6.717685    6.684051    0.000000    0.183000
   314  O     c     2.235594   -6.717685   -6.684051    0.000000    0.183000
   315  O     c    11.188873    2.235594    6.684051    0.000000    0.183000
   316  O     c    11.188873    2.235594   -6.684051    0.000000    0.183000
   317  O     c    -6.717685    2.235594    6.684051    0.000000    0.183000
   318  O     c    -6.717685    2.235594   -6.684051    0.000000    0.183000
   319  Cl    c     4.445188   13.478169    0.000000    0.000000    1.485000
   320  Cl    c     4.445188   -9.006980    0.000000    0.000000    1.485000
   321  Cl    c    13.478169    4.445188    0.000000    0.000000    1.485000
   322  Cl    c    13.478169    0.026001    0.000000    0.000000    1.485000
   323  Cl    c     0.026001   13.478169    0.000000    0.000000    1.485000
   324  Cl    c     0.026001   -9.006980    0.000000    0.000000    1.485000
   325  Cl    c    -9.006980    4.445188    0.000000    0.000000    1.485000
   326  Cl    c    -9.006980    0.026001    0.000000    0.000000    1.485000
   327  Na    c     4.478492    2.235594   11.154059    0.000000    1.000000
   328  Na    c     4.478492    2.235594  -11.154059    0.000000    1.000000
   329  Na    c    -0.007303    2.235594   11.154059    0.000000    1.000000
   330  Na    c    -0.007303    2.235594  -11.154059    0.000000    1.000000
   331  Na    c     2.235594    4.478492   11.154059    0.000000    1.000000
   332  Na    c     2.235594    4.478492  -11.154059    0.000000    1.000000
   333  Na    c     2.235594   -0.007303   11.154059    0.000000    1.000000
   334  Na    c     2.235594   -0.007303  -11.154059    0.000000    1.000000
   335  Na    c    13.390549    2.235594   -2.049965    0.000000    1.000000
   336  Na    c    13.390549    2.235594    2.049965    0.000000    1.000000
   337  Na    c    -8.919360    2.235594   -2.049965    0.000000    1.000000
   338  Na    c    -8.919360    2.235594    2.049965    0.000000    1.000000
   339  Na    c     2.235594   13.390549   -2.049965    0.000000    1.000000
   340  Na    c     2.235594   13.390549    2.049965    0.000000    1.000000
   341  Na    c     2.235594   -8.919360   -2.049965    0.000000    1.000000
   342  Na    c     2.235594   -8.919360    2.049965    0.000000    1.000000
   343  Cl    c     4.476905    8.954990    8.982287    0.000000    1.485000
   344  Cl    c     4.476905    8.954990   -8.982287    0.000000    1.485000
   345  Cl    c     4.476905   -4.483802    8.982287    0.000000    1.485000
   346  Cl    c     4.476905   -4.483802   -8.982287    0.000000    1.485000
   347  Cl    c     8.954990    4.476905    8.982287    0.000000    1.485000
   348  Cl    c     8.954990    4.476905   -8.982287    0.000000    1.485000
   349  Cl    c     8.954990   -0.005716    8.982287    0.000000    1.485000
   350  Cl    c     8.954990   -0.005716   -8.982287    0.000000    1.485000
   351  Cl    c    -0.005716    8.954990    8.982287    0.000000    1.485000
   352  Cl    c    -0.005716    8.954990   -8.982287    0.000000    1.485000
   353  Cl    c    -0.005716   -4.483802    8.982287    0.000000    1.485000
   354  Cl    c    -0.005716   -4.483802   -8.982287    0.000000    1.485000
   355  Cl    c    -4.483802    4.476905    8.982287    0.000000    1.485000
   356  Cl    c    -4.483802    4.476905   -8.982287    0.000000    1.485000
   357  Cl    c    -4.483802   -0.005716    8.982287    0.000000    1.485000
   358  Cl    c    -4.483802   -0.005716   -8.982287    0.000000    1.485000
   359  Na    c     4.465087   11.127009    6.718154    0.000000    1.000000
   360  Na    c     4.465087   11.127009   -6.718154    0.000000    1.000000
   361  Na    c     4.465087   -6.655820    6.718154    0.000000    1.000000
   362  Na    c     4.465087   -6.655820   -6.718154    0.000000    1.000000
   363  Na    c     0.006102   11.127009    6.718154    0.000000    1.000000
   364  Na    c     0.006102   11.127009   -6.718154    0.000000    1.000000
   365  Na    c     0.006102   -6.655820    6.718154    0.000000    1.000000
   366  Na    c     0.006102   -6.655820   -6.718154    0.000000    1.000000
   367  Na    c    11.127009    4.465087    6.718154    0.000000    1.000000
   368  Na    c    11.127009    4.465087   -6.718154    0.000000    1.000000
   369  Na    c    11.127009    0.006102    6.718154    0.000000    1.000000
   370  Na    c    11.127009    0.006102   -6.718154    0.000000    1.000000
   371  Na    c    -6.655820    4.465087    6.718154    0.000000    1.000000
   372  Na    c    -6.655820    4.465087   -6.718154    0.000000    1.000000
   373  Na    c    -6.655820    0.006102    6.718154    0.000000    1.000000
   374  Na    c    -6.655820    0.006102   -6.718154    0.000000    1.000000
   375  Na    c     8.939567   11.162156   -2.263608    0.000000    1.000000
   376  Na    c     8.939567   11.162156    2.263608    0.000000    1.000000
   377  Na    c     8.939567   -6.690968   -2.263608    0.000000    1.000000
   378  Na    c     8.939567   -6.690968    2.263608    0.000000    1.000000
   379  Na    c    -4.468378   11.162156   -2.263608    0.000000    1.000000
   380  Na    c    -4.468378   11.162156    2.263608    0.000000    1.000000
   381  Na    c    -4.468378   -6.690968   -2.263608    0.000000    1.000000
   382  Na    c    -4.468378   -6.690968    2.263608    0.000000    1.000000
   383  Na    c    11.162156    8.939567   -2.263608    0.000000    1.000000
   384  Na    c    11.162156    8.939567    2.263608    0.000000    1.000000
   385  Na    c    11.162156   -4.468378   -2.263608    0.000000    1.000000
   386  Na    c    11.162156   -4.468378    2.263608    0.000000    1.000000
   387  Na    c    -6.690968    8.939567   -2.263608    0.000000    1.000000
   388  Na    c    -6.690968    8.939567    2.263608    0.000000    1.000000
   389  Na    c    -6.690968   -4.468378   -2.263608    0.000000    1.000000
   390  Na    c    -6.690968   -4.468378    2.263608    0.000000    1.000000
   391  O     s     2.235594    2.235594   -2.303587    0.000000   -2.183000
   392  O     s     2.235594    2.235594    2.303587    0.000000   -2.183000
   393  Cl    s     4.569554    4.569554    0.000000    0.000000   -2.485000
   394  Cl    s     4.569554   -0.098366    0.000000    0.000000   -2.485000
   395  Cl    s    -0.098366    4.569554    0.000000    0.000000   -2.485000
   396  Cl    s    -0.098366   -0.098366    0.000000    0.000000   -2.485000
   397  O     s     2.235594    6.681072   -2.215448    0.000000   -2.183000
   398  O     s     2.235594    6.681072    2.215448    0.000000   -2.183000
   399  O     s     2.235594   -2.209883   -2.215448    0.000000   -2.183000
   400  O     s     2.235594   -2.209883    2.215448    0.000000   -2.183000
   401  O     s     6.681072    2.235594   -2.215448    0.000000   -2.183000
   402  O     s     6.681072    2.235594    2.215448    0.000000   -2.183000
   403  O     s    -2.209883    2.235594   -2.215448    0.000000   -2.183000
   404  O     s    -2.209883    2.235594    2.215448    0.000000   -2.183000
   405  Cl    s     4.576138    4.576138    4.587274    0.000000   -2.485000
   406  Cl    s     4.576138    4.576138   -4.587274    0.000000   -2.485000
   407  Cl    s     4.576138   -0.104949    4.587274    0.000000   -2.485000
   408  Cl    s     4.576138   -0.104949   -4.587274    0.000000   -2.485000
   409  Cl    s    -0.104949    4.576138    4.587274    0.000000   -2.485000
   410  Cl    s    -0.104949    4.576138   -4.587274    0.000000   -2.485000
   411  Cl    s    -0.104949   -0.104949    4.587274    0.000000   -2.485000
   412  Cl    s    -0.104949   -0.104949   -4.587274    0.000000   -2.485000
   413  O     s     2.235594    2.235594    6.763280    0.000000   -2.183000
   414  O     s     2.235594    2.235594   -6.763280    0.000000   -2.183000
   415  O     s     6.709845    6.709845   -2.242805    0.000000   -2.183000
   416  O     s     6.709845    6.709845    2.242805    0.000000   -2.183000
   417  O     s     6.709845   -2.238656   -2.242805    0.000000   -2.183000
   418  O     s     6.709845   -2.238656    2.242805    0.000000   -2.183000
   419  O     s    -2.238656    6.709845   -2.242805    0.000000   -2.183000
   420  O     s    -2.238656    6.709845    2.242805    0.000000   -2.183000
   421  O     s    -2.238656   -2.238656   -2.242805    0.000000   -2.183000
   422  O     s    -2.238656   -2.238656    2.242805    0.000000   -2.183000
   423  Cl    s     4.496860    8.957528    0.000000    0.000000   -2.485000
   424  Cl    s     4.496860   -4.486340    0.000000    0.000000   -2.485000
   425  Cl    s     8.957528    4.496860    0.000000    0.000000   -2.485000
   426  Cl    s     8.957528   -0.025672    0.000000    0.000000   -2.485000
   427  Cl    s    -0.025672    8.957528    0.000000    0.000000   -2.485000
   428  Cl    s    -0.025672   -4.486340    0.000000    0.000000   -2.485000
   429  Cl    s    -4.486340    4.496860    0.000000    0.000000   -2.485000
   430  Cl    s    -4.486340   -0.025672    0.000000    0.000000   -2.485000
   431  O     s     2.235594    6.692525    6.682369    0.000000   -2.183000
   432  O     s     2.235594    6.692525   -6.682369    0.000000   -2.183000
   433  O     s     2.235594   -2.221336    6.682369    0.000000   -2.183000
   434  O     s     2.235594   -2.221336   -6.682369    0.000000   -2.183000
   435  O     s     6.692525    2.235594    6.682369    0.000000   -2.183000
   436  O     s     6.692525    2.235594   -6.682369    0.000000   -2.183000
   437  O     s    -2.221336    2.235594    6.682369    0.000000   -2.183000
   438  O     s    -2.221336    2.235594   -6.682369    0.000000   -2.183000
   439  Cl    s     4.503424    8.995579    4.484486    0.000000   -2.485000
   440  Cl    s     4.503424    8.995579   -4.484486    0.000000   -2.485000
   441  Cl    s     4.503424   -4.524390    4.484486    0.000000   -2.485000
   442  Cl    s     4.503424   -4.524390   -4.484486    0.000000   -2.485000
   443  Cl    s     8.995579    4.503424    4.484486    0.000000   -2.485000
   444  Cl    s     8.995579    4.503424   -4.484486    0.000000   -2.485000
   445  Cl    s     8.995579   -0.032235    4.484486    0.000000   -2.485000
   446  Cl    s     8.995579   -0.032235   -4.484486    0.000000   -2.485000
   447  Cl    s    -0.032235    8.995579    4.484486    0.000000   -2.485000
   448  Cl    s    -0.032235    8.995579   -4.484486    0.000000   -2.485000
   449  Cl    s    -0.032235   -4.524390    4.484486    0.000000   -2.485000
   450  Cl    s    -0.032235   -4.524390   -4.484486    0.000000   -2.485000
   451  Cl    s    -4.524390    4.503424    4.484486    0.000000   -2.485000
   452  Cl    s    -4.524390    4.503424   -4.484486    0.000000   -2.485000
   453  Cl    s    -4.524390   -0.032235    4.484486    0.000000   -2.485000
   454  Cl    s    -4.524390   -0.032235   -4.484486    0.000000   -2.485000
   455  O     s     2.235594   11.139675   -2.235829    0.000000   -2.183000
   456  O     s     2.235594   11.139675    2.235829    0.000000   -2.183000
   457  O     s     2.235594   -6.668486   -2.235829    0.000000   -2.183000
   458  O     s     2.235594   -6.668486    2.235829    0.000000   -2.183000
   459  O     s    11.139675    2.235594   -2.235829    0.000000   -2.183000
   460  O     s    11.139675    2.235594    2.235829    0.000000   -2.183000
   461  O     s    -6.668486    2.235594   -2.235829    0.000000   -2.183000
   462  O     s    -6.668486    2.235594    2.235829    0.000000   -2.183000
   463  O     s     6.715962    6.715962    6.710703    0.000000   -2.183000
   464  O     s     6.715962    6.715962   -6.710703    0.000000   -2.183000
   465  O     s     6.715962   -2.244773    6.710703    0.000000   -2.183000
   466  O     s     6.715962   -2.244773   -6.710703    0.000000   -2.183000
   467  O     s    -2.244773    6.715962    6.710703    0.000000   -2.183000
   468  O     s    -2.244773    6.715962   -6.710703    0.000000   -2.183000
   469  O     s    -2.244773   -2.244773    6.710703    0.000000   -2.183000
   470  O     s    -2.244773   -2.244773   -6.710703    0.000000   -2.183000
   471  Cl    s     4.443920    4.443920    8.946706    0.000000   -2.485000
   472  Cl    s     4.443920    4.443920   -8.946706    0.000000   -2.485000
   473  Cl    s     4.443920    0.027269    8.946706    0.000000   -2.485000
   474  Cl    s     4.443920    0.027269   -8.946706    0.000000   -2.485000
   475  Cl    s     0.027269    4.443920    8.946706    0.000000   -2.485000
   476  Cl    s     0.027269    4.443920   -8.946706    0.000000   -2.485000
   477  Cl    s     0.027269    0.027269    8.946706    0.000000   -2.485000
   478  Cl    s     0.027269    0.027269   -8.946706    0.000000   -2.485000
   479  Cl    s     8.952830    8.952830    0.000000    0.000000   -2.485000
   480  Cl    s     8.952830   -4.481642    0.000000    0.000000   -2.485000
   481  Cl    s    -4.481642    8.952830    0.000000    0.000000   -2.485000
   482  Cl    s    -4.481642   -4.481642    0.000000    0.000000   -2.485000
   483  O     s     6.705883   11.178692   -2.234161    0.000000   -2.183000
   484  O     s     6.705883   11.178692    2.234161    0.000000   -2.183000
   485  O     s     6.705883   -6.707503   -2.234161    0.000000   -2.183000
   486  O     s     6.705883   -6.707503    2.234161    0.000000   -2.183000
   487  O     s    11.178692    6.705883   -2.234161    0.000000   -2.183000
   488  O     s    11.178692    6.705883    2.234161    0.000000   -2.183000
   489  O     s    11.178692   -2.234694   -2.234161    0.000000   -2.183000
   490  O     s    11.178692   -2.234694    2.234161    0.000000   -2.183000
   491  O     s    -2.234694   11.178692   -2.234161    0.000000   -2.183000
   492  O     s    -2.234694   11.178692    2.234161    0.000000   -2.183000
   493  O     s    -2.234694   -6.707503   -2.234161    0.000000   -2.183000
   494  O     s    -2.234694   -6.707503    2.234161    0.000000   -2.183000
   495  O     s    -6.707503    6.705883   -2.234161    0.000000   -2.183000
   496  O     s    -6.707503    6.705883    2.234161    0.000000   -2.183000
   497  O     s    -6.707503   -2.234694   -2.234161    0.000000   -2.183000
   498  O     s    -6.707503   -2.234694    2.234161    0.000000   -2.183000
   499  Cl    s     8.969151    8.969151    4.464274    0.000000   -2.485000
   500  Cl    s     8.969151    8.969151   -4.464274    0.000000   -2.485000
   501  Cl    s     8.969151   -4.497963    4.464274    0.000000   -2.485000
   502  Cl    s     8.969151   -4.497963   -4.464274    0.000000   -2.485000
   503  Cl    s    -4.497963    8.969151    4.464274    0.000000   -2.485000
   504  Cl    s    -4.497963    8.969151   -4.464274    0.000000   -2.485000
   505  Cl    s    -4.497963   -4.497963    4.464274    0.000000   -2.485000
   506  Cl    s    -4.497963   -4.497963   -4.464274    0.000000   -2.485000
   507  O     s     2.235594    2.235594   11.188561    0.000000   -2.183000
   508  O     s     2.235594    2.235594  -11.188561    0.000000   -2.183000
   509  O     s     2.235594   11.188938    6.684020    0.000000   -2.183000
   510  O     s     2.235594   11.188938   -6.684020    0.000000   -2.183000
   511  O     s     2.235594   -6.717749    6.684020    0.000000   -2.183000
   512  O     s     2.235594   -6.717749   -6.684020    0.000000   -2.183000
   513  O     s    11.188938    2.235594    6.684020    0.000000   -2.183000
   514  O     s    11.188938    2.235594   -6.684020    0.000000   -2.183000
   515  O     s    -6.717749    2.235594    6.684020    0.000000   -2.183000
   516  O     s    -6.717749    2.235594   -6.684020    0.000000   -2.183000
   517  Cl    s     4.437987   13.486668    0.000000    0.000000   -2.485000
   518  Cl    s     4.437987   -9.015479    0.000000    0.000000   -2.485000
   519  Cl    s    13.486668    4.437987    0.000000    0.000000   -2.485000
   520  Cl    s    13.486668    0.033202    0.000000    0.000000   -2.485000
   521  Cl    s     0.033202   13.486668    0.000000    0.000000   -2.485000
   522  Cl    s     0.033202   -9.015479    0.000000    0.000000   -2.485000
   523  Cl    s    -9.015479    4.437987    0.000000    0.000000   -2.485000
   524  Cl    s    -9.015479    0.033202    0.000000    0.000000   -2.485000
   525  Cl    s     4.477161    8.955772    8.987638    0.000000   -2.485000
[...]
    13  Cl    c      -0.002493      0.001825      0.000000      0.000000
    14  Na    c       0.000086      0.000000      0.000336      0.000000
    15  Na    c      -0.001156      0.000000     -0.000132      0.000000
    16  Na    c       0.001049      0.000000     -0.000985      0.000000
    17  O     c       0.000000      0.004524      0.004646      0.000000
    18  Cl    c      -0.000432     -0.001367     -0.000576      0.000000
    19  Na    c       0.000761      0.000132     -0.001399      0.000000
    20  Na    c      -0.000620     -0.000125      0.002285      0.000000
    21  Na    c       0.000000      0.000000     -0.000006      0.000000
    22  Na    c       0.000000     -0.001239      0.000000      0.000000
    23  O     c       0.000000      0.005223      0.002016      0.000000
    24  O     c      -0.004288      0.000000     -0.000527      0.000000
    25  Cl    c       0.002263      0.000000      0.000929      0.000000
    26  Cl    c      -0.000045      0.000000      0.000000      0.000000
    27  Na    c      -0.000751      0.000070     -0.000048      0.000000
    28  Na    c       0.000715      0.000000     -0.000466      0.000000
    29  Na    c       0.000000      0.000294     -0.000281      0.000000
    30  Na    c       0.000000      0.000565     -0.000347      0.000000
    31  Na    c      -0.000249      0.000332      0.000000      0.000000
    32  O     c      -0.000541     -0.000786     -0.005074      0.000000
    33  Cl    c      -0.001134      0.000000     -0.000405      0.000000
    34  Na    c      -0.000593     -0.000246      0.000329      0.000000
    35  Na    c      -0.000395      0.000000     -0.000280      0.000000
    36  Na    c       0.000030     -0.001171     -0.000636      0.000000
    37  O     c       0.000000      0.000000      0.000498      0.000000
    38  O     c       0.000000     -0.006138      0.005013      0.000000
    39  Cl    c       0.000178     -0.003208      0.000000      0.000000
    40  Na    c       0.000140      0.000000     -0.000172      0.000000
    41  Na    c      -0.001009      0.000000      0.001347      0.000000
    42  Cl    c      -0.001949     -0.000101     -0.002519      0.000000
    43  Na    c       0.000066     -0.000218     -0.000624      0.000000
    44  Na    c      -0.000442     -0.000329     -0.000133      0.000000
    45  O     s       0.000000      0.000000     -0.001086      0.000000
    46  Cl    s      -0.000691      0.000000      0.000000      0.000000
    47  O     s       0.000000     -0.001704      0.007336      0.000000
    48  Cl    s      -0.003859      0.000000     -0.002287      0.000000
    49  O     s       0.000000      0.000000     -0.004295      0.000000
    50  O     s      -0.000317      0.000000     -0.000357      0.000000
    51  Cl    s      -0.000847     -0.001987      0.000000      0.000000
    52  O     s       0.000000      0.003856      0.005929      0.000000
    53  Cl    s       0.002621     -0.000723      0.000704      0.000000
    54  O     s       0.000000      0.006597      0.002769      0.000000
    55  O     s      -0.004734      0.000000      0.000304      0.000000
    56  Cl    s       0.001889      0.000000      0.000152      0.000000
    57  Cl    s       0.000915      0.000000      0.000000      0.000000
    58  O     s       0.000742      0.000356     -0.003639      0.000000
    59  Cl    s      -0.000063      0.000000      0.000109      0.000000
    60  O     s       0.000000      0.000000      0.000404      0.000000
    61  O     s       0.000000     -0.005088      0.006047      0.000000
    62  Cl    s       0.000276     -0.002036      0.000000      0.000000
    63  Cl    s      -0.002423     -0.000798     -0.001364      0.000000
--------------------------------------------------------------------------------

  Comparison of initial and final region 1 : 

--------------------------------------------------------------------------------
  Parameter   Initial value   Final value   Difference    Units      Percent
--------------------------------------------------------------------------------
      1 x          2.235594      2.235594     0.000000    Cartesian    0.00
      1 y          2.235594      2.235594     0.000000    Cartesian    0.00
      1 z         -2.235594     -2.303497    -0.067903    Cartesian    3.04
      2 x          4.471189      4.573017     0.101828    Cartesian    2.28
      2 y          4.471189      4.573017     0.101828    Cartesian    2.28
      2 z          0.000000      0.000000     0.000000    Cartesian    0.00
      3 x          4.471189      4.372861    -0.098327    Cartesian   -2.20
      3 y          2.235594      2.235594     0.000000    Cartesian    0.00
      3 z         -2.235594     -1.799969     0.435626    Cartesian  -19.49
      4 x          2.235594      2.235594     0.000000    Cartesian    0.00
      4 y          2.235594      2.235594     0.000000    Cartesian    0.00
      4 z          4.471189      4.453782    -0.017406    Cartesian   -0.39
      5 x          2.235594      2.235594     0.000000    Cartesian    0.00
      5 y          6.706783      7.096498     0.389715    Cartesian    5.81
      5 z          0.000000      0.000000     0.000000    Cartesian    0.00
      6 x          2.235594      2.235594     0.000000    Cartesian    0.00
      6 y          6.706783      6.681006    -0.025777    Cartesian   -0.38
      6 z         -2.235594     -2.215446     0.020149    Cartesian   -0.90
      7 x          4.471189      4.563016     0.091827    Cartesian    2.05
      7 y          4.471189      4.563016     0.091827    Cartesian    2.05
      7 z          4.471189      4.575475     0.104287    Cartesian    2.33
      8 x          4.471189      4.462275    -0.008914    Cartesian   -0.20
      8 y          6.706783      6.666085    -0.040698    Cartesian   -0.61
      8 z         -2.235594     -2.172071     0.063524    Cartesian   -2.84
      9 x          2.235594      2.235594     0.000000    Cartesian    0.00
      9 y          6.706783      6.277025    -0.429758    Cartesian   -6.41
      9 z          4.471189      4.431492    -0.039697    Cartesian   -0.89
     10 x          6.706783      6.775578     0.068795    Cartesian    1.03
     10 y          6.706783      6.775578     0.068795    Cartesian    1.03
     10 z          0.000000      0.000000     0.000000    Cartesian    0.00
     11 x          2.235594      2.235594     0.000000    Cartesian    0.00
     11 y          2.235594      2.235594     0.000000    Cartesian    0.00
     11 z          6.706783      6.763122     0.056339    Cartesian    0.84
     12 x          6.706783      6.709835     0.003052    Cartesian    0.05
     12 y          6.706783      6.709835     0.003052    Cartesian    0.05
     12 z         -2.235594     -2.242793    -0.007199    Cartesian    0.32
     13 x          4.471189      4.504490     0.033301    Cartesian    0.74
     13 y          8.942377      8.955318     0.012941    Cartesian    0.14
     13 z          0.000000      0.000000     0.000000    Cartesian    0.00
     14 x          4.471189      4.459450    -0.011739    Cartesian   -0.26
     14 y          2.235594      2.235594     0.000000    Cartesian    0.00
     14 z          6.706783      6.871838     0.165055    Cartesian    2.46
     15 x          8.942377      8.903701    -0.038677    Cartesian   -0.43
     15 y          2.235594      2.235594     0.000000    Cartesian    0.00
     15 z         -2.235594     -2.638075    -0.402481    Cartesian   18.00
     16 x          6.706783      6.636542    -0.070241    Cartesian   -1.05
     16 y          6.706783      6.636542    -0.070241    Cartesian   -1.05
     16 z          4.471189      4.471020    -0.000169    Cartesian   -0.00
     17 x          2.235594      2.235594     0.000000    Cartesian    0.00
     17 y          6.706783      6.692569    -0.014214    Cartesian   -0.21
     17 z          6.706783      6.682330    -0.024453    Cartesian   -0.36
     18 x          4.471189      4.505522     0.034333    Cartesian    0.77
     18 y          8.942377      8.990111     0.047734    Cartesian    0.53
     18 z          4.471189      4.485057     0.013868    Cartesian    0.31
     19 x          4.471189      4.467168    -0.004021    Cartesian   -0.09
     19 y          6.706783      6.691319    -0.015464    Cartesian   -0.23
     19 z          6.706783      6.674502    -0.032281    Cartesian   -0.48
     20 x          8.942377      8.936187    -0.006190    Cartesian   -0.07
     20 y          6.706783      6.692507    -0.014276    Cartesian   -0.21
     20 z         -2.235594     -2.304941    -0.069346    Cartesian    3.10
     21 x          2.235594      2.235594     0.000000    Cartesian    0.00
     21 y          2.235594      2.235594     0.000000    Cartesian    0.00
     21 z          8.942377      8.994410     0.052032    Cartesian    0.58
     22 x          2.235594      2.235594     0.000000    Cartesian    0.00
     22 y         11.177972     10.814119    -0.363853    Cartesian   -3.26
     22 z          0.000000      0.000000     0.000000    Cartesian    0.00
     23 x          2.235594      2.235594     0.000000    Cartesian    0.00
     23 y         11.177972     11.139662    -0.038310    Cartesian   -0.34
     23 z         -2.235594     -2.235785    -0.000191    Cartesian    0.01
     24 x          6.706783      6.715952     0.009169    Cartesian    0.14
     24 y          6.706783      6.715952     0.009169    Cartesian    0.14
     24 z          6.706783      6.710708     0.003925    Cartesian    0.06
     25 x          4.471189      4.449295    -0.021894    Cartesian   -0.49
     25 y          4.471189      4.449295    -0.021894    Cartesian   -0.49
     25 z          8.942377      8.949833     0.007456    Cartesian    0.08
     26 x          8.942377      8.952410     0.010033    Cartesian    0.11
     26 y          8.942377      8.952410     0.010033    Cartesian    0.11
     26 z          0.000000      0.000000     0.000000    Cartesian    0.00
     27 x          4.471189      4.466780    -0.004408    Cartesian   -0.10
     27 y         11.177972     11.146793    -0.031178    Cartesian   -0.28
     27 z         -2.235594     -2.183326     0.052268    Cartesian   -2.34
     28 x          8.942377      8.927103    -0.015274    Cartesian   -0.17
     28 y          2.235594      2.235594     0.000000    Cartesian    0.00
     28 z          6.706783      6.472676    -0.234107    Cartesian   -3.49
     29 x          2.235594      2.235594     0.000000    Cartesian    0.00
     29 y          6.706783      6.832590     0.125807    Cartesian    1.88
     29 z          8.942377      8.923410    -0.018967    Cartesian   -0.21
     30 x          2.235594      2.235594     0.000000    Cartesian    0.00
     30 y         11.177972     11.410602     0.232631    Cartesian    2.08
     30 z          4.471189      4.451431    -0.019758    Cartesian   -0.44
     31 x          6.706783      6.778555     0.071772    Cartesian    1.07
     31 y         11.177972     11.120746    -0.057226    Cartesian   -0.51
     31 z          0.000000      0.000000     0.000000    Cartesian    0.00
     32 x          6.706783      6.705875    -0.000908    Cartesian   -0.01
     32 y         11.177972     11.178698     0.000726    Cartesian    0.01
     32 z         -2.235594     -2.234154     0.001440    Cartesian   -0.06
     33 x          8.942377      8.966594     0.024217    Cartesian    0.27
     33 y          8.942377      8.966594     0.024217    Cartesian    0.27
     33 z          4.471189      4.466034    -0.005155    Cartesian   -0.12
     34 x          8.942377      8.939885    -0.002493    Cartesian   -0.03
     34 y          6.706783      6.722110     0.015327    Cartesian    0.23
     34 z          6.706783      6.677827    -0.028956    Cartesian   -0.43
     35 x          6.706783      6.715842     0.009059    Cartesian    0.14
     35 y          6.706783      6.715842     0.009059    Cartesian    0.14
     35 z          8.942377      8.935726    -0.006651    Cartesian   -0.07
     36 x          6.706783      6.655897    -0.050886    Cartesian   -0.76
     36 y         11.177972     11.198549     0.020578    Cartesian    0.18
     36 z          4.471189      4.470977    -0.000211    Cartesian   -0.00
     37 x          2.235594      2.235594     0.000000    Cartesian    0.00
     37 y          2.235594      2.235594     0.000000    Cartesian    0.00
     37 z         11.177972     11.188620     0.010648    Cartesian    0.10
     38 x          2.235594      2.235594     0.000000    Cartesian    0.00
     38 y         11.177972     11.188873     0.010902    Cartesian    0.10
     38 z          6.706783      6.684051    -0.022732    Cartesian   -0.34
     39 x          4.471189      4.445188    -0.026001    Cartesian   -0.58
     39 y         13.413566     13.478169     0.064603    Cartesian    0.48
     39 z          0.000000      0.000000     0.000000    Cartesian    0.00
     40 x          4.471189      4.478492     0.007303    Cartesian    0.16
     40 y          2.235594      2.235594     0.000000    Cartesian    0.00
     40 z         11.177972     11.154059    -0.023913    Cartesian   -0.21
     41 x         13.413566     13.390549    -0.023017    Cartesian   -0.17
     41 y          2.235594      2.235594     0.000000    Cartesian    0.00
     41 z         -2.235594     -2.049965     0.185629    Cartesian   -8.30
     42 x          4.471189      4.476905     0.005716    Cartesian    0.13
     42 y          8.942377      8.954990     0.012613    Cartesian    0.14
     42 z          8.942377      8.982287     0.039910    Cartesian    0.45
     43 x          4.471189      4.465087    -0.006102    Cartesian   -0.14
     43 y         11.177972     11.127009    -0.050963    Cartesian   -0.46
     43 z          6.706783      6.718154     0.011371    Cartesian    0.17
     44 x          8.942377      8.939567    -0.002811    Cartesian   -0.03
     44 y         11.177972     11.162156    -0.015815    Cartesian   -0.14
     44 z         -2.235594     -2.263608    -0.028014    Cartesian    1.25
     45 x          2.235594      2.235594     0.000000    Cartesian    0.00
     45 y          2.235594      2.235594     0.000000    Cartesian    0.00
     45 z         -2.235594     -2.303587    -0.067993    Cartesian    3.04
     46 x          4.471189      4.569554     0.098366    Cartesian    2.20
     46 y          4.471189      4.569554     0.098366    Cartesian    2.20
     46 z          0.000000      0.000000     0.000000    Cartesian    0.00
     47 x          2.235594      2.235594     0.000000    Cartesian    0.00
     47 y          6.706783      6.681072    -0.025711    Cartesian   -0.38
     47 z         -2.235594     -2.215448     0.020146    Cartesian   -0.90
     48 x          4.471189      4.576138     0.104949    Cartesian    2.35
     48 y          4.471189      4.576138     0.104949    Cartesian    2.35
     48 z          4.471189      4.587274     0.116085    Cartesian    2.60
     49 x          2.235594      2.235594     0.000000    Cartesian    0.00
     49 y          2.235594      2.235594     0.000000    Cartesian    0.00
     49 z          6.706783      6.763280     0.056497    Cartesian    0.84
     50 x          6.706783      6.709845     0.003062    Cartesian    0.05
     50 y          6.706783      6.709845     0.003062    Cartesian    0.05
     50 z         -2.235594     -2.242805    -0.007211    Cartesian    0.32
     51 x          4.471189      4.496860     0.025672    Cartesian    0.57
     51 y          8.942377      8.957528     0.015151    Cartesian    0.17
     51 z          0.000000      0.000000     0.000000    Cartesian    0.00
     52 x          2.235594      2.235594     0.000000    Cartesian    0.00
     52 y          6.706783      6.692525    -0.014258    Cartesian   -0.21
     52 z          6.706783      6.682369    -0.024414    Cartesian   -0.36
     53 x          4.471189      4.503424     0.032235    Cartesian    0.72
     53 y          8.942377      8.995579     0.053202    Cartesian    0.59
     53 z          4.471189      4.484486     0.013297    Cartesian    0.30
     54 x          2.235594      2.235594     0.000000    Cartesian    0.00
     54 y         11.177972     11.139675    -0.038297    Cartesian   -0.34
     54 z         -2.235594     -2.235829    -0.000234    Cartesian    0.01
     55 x          6.706783      6.715962     0.009179    Cartesian    0.14
     55 y          6.706783      6.715962     0.009179    Cartesian    0.14
     55 z          6.706783      6.710703     0.003920    Cartesian    0.06
     56 x          4.471189      4.443920    -0.027269    Cartesian   -0.61
     56 y          4.471189      4.443920    -0.027269    Cartesian   -0.61
     56 z          8.942377      8.946706     0.004329    Cartesian    0.05
     57 x          8.942377      8.952830     0.010453    Cartesian    0.12
     57 y          8.942377      8.952830     0.010453    Cartesian    0.12
     57 z          0.000000      0.000000     0.000000    Cartesian    0.00
     58 x          6.706783      6.705883    -0.000900    Cartesian   -0.01
     58 y         11.177972     11.178692     0.000720    Cartesian    0.01
     58 z         -2.235594     -2.234161     0.001433    Cartesian   -0.06
     59 x          8.942377      8.969151     0.026774    Cartesian    0.30
     59 y          8.942377      8.969151     0.026774    Cartesian    0.30
     59 z          4.471189      4.464274    -0.006915    Cartesian   -0.15
     60 x          2.235594      2.235594     0.000000    Cartesian    0.00
     60 y          2.235594      2.235594     0.000000    Cartesian    0.00
     60 z         11.177972     11.188561     0.010589    Cartesian    0.09
     61 x          2.235594      2.235594     0.000000    Cartesian    0.00
     61 y         11.177972     11.188938     0.010966    Cartesian    0.10
     61 z          6.706783      6.684020    -0.022763    Cartesian   -0.34
     62 x          4.471189      4.437987    -0.033202    Cartesian   -0.74
     62 y         13.413566     13.486668     0.073102    Cartesian    0.54
     62 z          0.000000      0.000000     0.000000    Cartesian    0.00
     63 x          4.471189      4.477161     0.005973    Cartesian    0.13
     63 y          8.942377      8.955772     0.013395    Cartesian    0.15
     63 z          8.942377      8.987638     0.045261    Cartesian    0.51
--------------------------------------------------------------------------------


  Time to end of optimisation  =       28.3502 seconds


  Peak dynamic memory used =      53.68 MB 


  Timing analysis for GULP :

--------------------------------------------------------------------------------
  Task / Subroutine                                          Time (Seconds)
--------------------------------------------------------------------------------
  Calculation of reciprocal space energy and derivatives          0.0002
  Calculation of reciprocal space energy using symmetry           0.0003
  Calculation of real space energy and derivatives                0.0013
  Calculation of real space energy using symmetry                 0.0031
  Calculation for region 1 energy and derivatives (2-b)           7.5311
  Calculation for region 2a energy                               20.3012
  Calculation for region 2b energy                                0.0013
  Calculation and manipulation of Hessian matrix                  0.3141
  Calculation of matrix inversion                                 0.0110
  Symmetry generation of equivalent positions                     0.0017
--------------------------------------------------------------------------------
  Total CPU time                                                 28.3503
--------------------------------------------------------------------------------


  Dump file written as Na3OCl.grs


  Job Finished at 14:14.15  3rd January    2021                               

