********************************************************************************
*                       GENERAL UTILITY LATTICE PROGRAM                        *
*                                 Julian Gale                                  *
*                       Curtin Institute for Computation                       *
*                    School of Molecular and Life Sciences                     *
*                    Curtin University, Western Australia                      *
********************************************************************************
* Version = 5.2.0 * Last modified =  10th September 2020                       *
********************************************************************************
*  optimise     - perform optimisation run                                     *
*  conp         - constant pressure calculation                                *
*  property     - calculate properties for final geometry                      *
*  defect       - perform defect calculation after bulk run                    *
*  compare      - compare initial and final structures                         *
********************************************************************************

  Job Started  at 14:13.45  3rd January    2021                               

  Number of CPUs =     1


  Total number of configurations input =      1

********************************************************************************
*  Input for Configuration =   1                                               *
********************************************************************************

  Formula = ClONa3                                                      

  Number of irreducible atoms/shells =       5


  Total number atoms/shells =       7

  Dimensionality = 3               :  Bulk   


  Symmetry :

  Crystal family                   :  Cubic       
  Crystal class  (Groth - 1921)    :  Cubic Hexakisoctahedral              

  Space group (centrosymmetric)    :  P M 3 M         

  Patterson group                  :  P m -3 m 

  Cartesian lattice vectors (Angstroms) :

        4.504000    0.000000    0.000000
        0.000000    4.504000    0.000000
        0.000000    0.000000    4.504000

  Cell parameters (Angstroms/Degrees):

  a =       4.5040    alpha =  90.0000
  b =       4.5040    beta  =  90.0000
  c =       4.5040    gamma =  90.0000

  Initial cell volume =          91.368216 Angs**3

  Temperature of configuration =   0.00     K 

  Pressure of configuration =         0.000 GPa 

  Fractional coordinates of asymmetric unit :

--------------------------------------------------------------------------------
   No.  Atomic       x           y          z         Charge      Occupancy
        Label      (Frac)      (Frac)     (Frac)        (e)         (Frac)  
--------------------------------------------------------------------------------
      1 Cl    c    0.000000    0.000000    0.000000     1.48500    1.000000    
      2 O     c    0.500000    0.500000    0.500000     0.18300    1.000000    
      3 Na    c    0.500000    0.500000    0.000000     1.00000    1.000000    
      4 Cl    s    0.000000    0.000000    0.000000    -2.48500    1.000000    
      5 O     s    0.500000    0.500000    0.500000    -2.18300    1.000000    
--------------------------------------------------------------------------------


  Constraints : 

--------------------------------------------------------------------------------
  Constraint no.      Unconstrained     Constrained    Coefficient    Offset
                         Variable         Variable
--------------------------------------------------------------------------------
           1              Strain 1        Strain 2       1.00000      0.0000
           2              Strain 1        Strain 3       1.00000      0.0000
--------------------------------------------------------------------------------


********************************************************************************
*  General input information                                                   *
********************************************************************************

  Species output for all configurations : 

--------------------------------------------------------------------------------
  Species    Type    Atomic    Atomic    Charge       Radii (Angs)     Library
                     Number     Mass       (e)     Cova   Ionic  VDW   Symbol
--------------------------------------------------------------------------------
    Na       Core       11      22.99   1.000000   0.970  0.000  2.300          
    O        Core        8      16.00   0.183000   0.730  0.000  1.360          
    O        Shell       8       0.00  -2.183000   0.730  0.000  1.360          
    Cl       Core       17      35.45   1.485000   0.990  0.000  1.650          
    Cl       Shell      17       0.00  -2.485000   0.990  0.000  1.650          
    Mg       Core       12      24.31   0.415000   1.100  0.000  0.000          
    Mg       Shell      12       0.00   1.585000   1.100  0.000  0.000          
    Ca       Core       20      40.08  -1.135000   0.990  0.000  0.000          
    Ca       Shell      20       0.00   3.135000   0.990  0.000  0.000          
    Sr       Core       38      87.62  -1.251000   1.120  0.000  0.000          
    Sr       Shell      38       0.00   3.251000   1.120  0.000  0.000          
    Ba       Core       56     137.33  -7.203000   1.340  0.000  0.000          
    Ba       Shell      56       0.00   9.203000   1.340  0.000  0.000          
--------------------------------------------------------------------------------


  Lattice summation method               =    Ewald          (3-D)
                                         =    Parry          (2-D)
                                         =    Saunders et al (1-D)
  Accuracy factor for lattice sums       =   12.000


  Analytic derivatives to be used

  Time limit = Infinity

  Maximum range for interatomic potentials =    100000.000000 Angstroms

  General interatomic potentials :

--------------------------------------------------------------------------------
Atom  Types   Potential      Parameter       Value         Units   Cutoffs(Ang)
  1     2                                                            Min /  Max 
--------------------------------------------------------------------------------
O    c O    s Spring (c-s)  Spring k 2       593.71600    eV*Ang^-2 0.000  0.800
                            Spring k 4       0.0000000    eV*Ang^-4 
--------------------------------------------------------------------------------
Cl   c Cl   s Spring (c-s)  Spring k 2       29.380000    eV*Ang^-2 0.000  0.800
                            Spring k 4       0.0000000    eV*Ang^-4 
--------------------------------------------------------------------------------
Mg   c Mg   s Spring (c-s)  Spring k 2       361.60000    eV*Ang^-2 0.000  0.800
                            Spring k 4       0.0000000    eV*Ang^-4 
--------------------------------------------------------------------------------
Ca   c Ca   s Spring (c-s)  Spring k 2       110.20000    eV*Ang^-2 0.000  0.800
                            Spring k 4       0.0000000    eV*Ang^-4 
--------------------------------------------------------------------------------
Sr   c Sr   s Spring (c-s)  Spring k 2       71.700000    eV*Ang^-2 0.000  0.800
                            Spring k 4       0.0000000    eV*Ang^-4 
--------------------------------------------------------------------------------
Ba   c Ba   s Spring (c-s)  Spring k 2       495.20000    eV*Ang^-2 0.000  0.800
                            Spring k 4       0.0000000    eV*Ang^-4 
--------------------------------------------------------------------------------
Na   c Na   c Buckingham    Buckingham A     1788.1900    eV        0.000 12.000
                            Buckingham rho  0.15900000    Ang       
                            Buckingham C     0.0000000    eV*Ang^6  
--------------------------------------------------------------------------------
Na   c O    s Buckingham    Buckingham A     322.01000    eV        0.000 12.000
                            Buckingham rho  0.38800000    Ang       
                            Buckingham C     0.0000000    eV*Ang^6  
--------------------------------------------------------------------------------
Na   c Cl   s Buckingham    Buckingham A     1727.8700    eV        0.000 12.000
                            Buckingham rho  0.29700000    Ang       
                            Buckingham C     0.0000000    eV*Ang^6  
--------------------------------------------------------------------------------
O    s O    s Buckingham    Buckingham A     22764.300    eV        0.000 12.000
                            Buckingham rho  0.14900000    Ang       
                            Buckingham C     13.190000    eV*Ang^6  
--------------------------------------------------------------------------------
O    s Cl   s Buckingham    Buckingham A     8286.9100    eV        0.000 12.000
                            Buckingham rho  0.25900000    Ang       
                            Buckingham C     62.200000    eV*Ang^6  
--------------------------------------------------------------------------------
Cl   s Cl   s Buckingham    Buckingham A     1227.2000    eV        0.000 12.000
                            Buckingham rho  0.32100000    Ang       
                            Buckingham C     14.530000    eV*Ang^6  
--------------------------------------------------------------------------------
O    s Mg   s Buckingham    Buckingham A     1428.5000    eV        0.000 12.000
                            Buckingham rho  0.29450000    Ang       
                            Buckingham C     0.0000000    eV*Ang^6  
--------------------------------------------------------------------------------
Mg   s Cl   s Buckingham    Buckingham A     4914.5400    eV        0.000 12.000
                            Buckingham rho  0.25700000    Ang       
                            Buckingham C     0.0000000    eV*Ang^6  
--------------------------------------------------------------------------------
O    s Ca   s Buckingham    Buckingham A     1090.4000    eV        0.000 12.000
                            Buckingham rho  0.34370000    Ang       
                            Buckingham C     0.0000000    eV*Ang^6  
--------------------------------------------------------------------------------
Cl   s Ca   s Buckingham    Buckingham A     2302.0000    eV        0.000 12.000
                            Buckingham rho  0.34020000    Ang       
                            Buckingham C     0.0000000    eV*Ang^6  
--------------------------------------------------------------------------------
O    s Sr   s Buckingham    Buckingham A     959.10000    eV        0.000 12.000
                            Buckingham rho  0.37210000    Ang       
                            Buckingham C     0.0000000    eV*Ang^6  
--------------------------------------------------------------------------------
Cl   s Sr   s Buckingham    Buckingham A     2191.0900    eV        0.000 12.000
                            Buckingham rho  0.34570000    Ang       
                            Buckingham C     0.0000000    eV*Ang^6  
--------------------------------------------------------------------------------
O    s Ba   s Buckingham    Buckingham A     905.70000    eV        0.000 12.000
                            Buckingham rho  0.39760000    Ang       
                            Buckingham C     0.0000000    eV*Ang^6  
--------------------------------------------------------------------------------
Cl   s Ba   s Buckingham    Buckingham A     2704.5500    eV        0.000 12.000
                            Buckingham rho  0.35280000    Ang       
                            Buckingham C     0.0000000    eV*Ang^6  
--------------------------------------------------------------------------------

********************************************************************************
*  Output for configuration   1                                                *
********************************************************************************


  Components of energy : 

--------------------------------------------------------------------------------
  Interatomic potentials     =           6.15672400 eV    
  Monopole - monopole (real) =         -10.03624526 eV    
  Monopole - monopole (recip)=         -29.53581274 eV    
  Monopole - monopole (total)=         -39.57205800 eV    
--------------------------------------------------------------------------------
  Total lattice energy       =         -33.41533400 eV    
--------------------------------------------------------------------------------
  Total lattice energy       =           -3224.0689 kJ/(mole unit cells)
--------------------------------------------------------------------------------


  Number of variables =        1

  Maximum number of calculations  =          1000
  Maximum Hessian update interval =            10
  Maximum step size               =   1.000000000
  Maximum parameter tolerance     =   0.000010000
  Maximum function  tolerance     =   0.000010000
  Maximum gradient  tolerance     =   0.001000000
  Maximum gradient  component     =   0.010000000

  Symmetry constrained optimisation

  Symmetry used for second derivatives

  Cell parameters to be optimised using strains

  Newton-Raphson optimiser to be used

  BFGS hessian update to be used

  Lower half triangular hessian to be used

  Start of bulk optimisation :

  Cycle:      0 Energy:       -33.415334  Gnorm:      1.285717  CPU:    0.008
  ** Hessian calculated **
  Cycle:      1 Energy:       -33.420068  Gnorm:      0.004892  CPU:    0.010


  **** Optimisation achieved ****


  Final energy =     -33.42006833 eV
  Final Gnorm  =       0.00012371

  Components of energy : 

--------------------------------------------------------------------------------
  Interatomic potentials     =           6.44238503 eV    
  Monopole - monopole (real) =         -10.10989518 eV    
  Monopole - monopole (recip)=         -29.75255817 eV    
  Monopole - monopole (total)=         -39.86245335 eV    
--------------------------------------------------------------------------------
  Total lattice energy       =         -33.42006833 eV    
--------------------------------------------------------------------------------
  Total lattice energy       =           -3224.5257 kJ/(mole unit cells)
--------------------------------------------------------------------------------

  Final asymmetric unit coordinates :

--------------------------------------------------------------------------------
   No.  Atomic        x           y           z         Radius
        Label       (Frac)      (Frac)      (Frac)       (Angs) 
--------------------------------------------------------------------------------
     1  Cl    c     0.000000    0.000000    0.000000    0.000000
     2  O     c     0.500000    0.500000    0.500000    0.000000
     3  Na    c     0.500000    0.500000    0.000000    0.000000
     4  Cl    s     0.000000    0.000000    0.000000    0.000000
     5  O     s     0.500000    0.500000    0.500000    0.000000
--------------------------------------------------------------------------------

  Final Cartesian lattice vectors (Angstroms) :

        4.471189    0.000000    0.000000
        0.000000    4.471189    0.000000
        0.000000    0.000000    4.471189


  Final cell parameters and derivatives :

--------------------------------------------------------------------------------
       a            4.471189 Angstrom     dE/de1(xx)     0.000124 eV/strain
       b            4.471189 Angstrom     dE/de2(yy)     0.000000 eV/strain
       c            4.471189 Angstrom     dE/de3(zz)     0.000000 eV/strain
       alpha       90.000000 Degrees      dE/de4(yz)     0.000000 eV/strain
       beta        90.000000 Degrees      dE/de5(xz)     0.000000 eV/strain
       gamma       90.000000 Degrees      dE/de6(xy)     0.000000 eV/strain
--------------------------------------------------------------------------------

  Primitive cell volume =            89.385893 Angs**3

  Density of cell =      2.237101 g/cm**3

  Non-primitive cell volume =            89.385893 Angs**3


  Final internal derivatives :

--------------------------------------------------------------------------------
   No.  Atomic          a             b             c           Radius
        Label          (eV)          (eV)          (eV)        (eV/Angs)
--------------------------------------------------------------------------------
      1 Cl    c       0.000000      0.000000      0.000000      0.000000
      2 O     c       0.000000      0.000000      0.000000      0.000000
      3 Na    c       0.000000      0.000000      0.000000      0.000000
      4 Cl    s       0.000000      0.000000      0.000000      0.000000
      5 O     s       0.000000      0.000000      0.000000      0.000000
--------------------------------------------------------------------------------
  Maximum abs         0.000000      0.000000      0.000000      0.000000
--------------------------------------------------------------------------------

  Comparison of initial and final structures : 

--------------------------------------------------------------------------------
  Parameter   Initial value   Final value   Difference    Units      Percent
--------------------------------------------------------------------------------
    Volume        91.368216     89.385893    -1.982323    Angs**3     -2.17
    a              4.504000      4.471189    -0.032811    Angstroms   -0.73
    b              4.504000      4.471189    -0.032811    Angstroms   -0.73
    c              4.504000      4.471189    -0.032811    Angstroms   -0.73
    alpha         90.000000     90.000000     0.000000    Degrees      0.00
    beta          90.000000     90.000000     0.000000    Degrees      0.00
    gamma         90.000000     90.000000     0.000000    Degrees      0.00
      1 x          0.000000      0.000000     0.000000    Fractional   0.00
      1 y          0.000000      0.000000     0.000000    Fractional   0.00
      1 z          0.000000      0.000000     0.000000    Fractional   0.00
      2 x          0.500000      0.500000     0.000000    Fractional   0.00
      2 y          0.500000      0.500000     0.000000    Fractional   0.00
      2 z          0.500000      0.500000     0.000000    Fractional   0.00
      3 x          0.500000      0.500000     0.000000    Fractional   0.00
      3 y          0.500000      0.500000     0.000000    Fractional   0.00
      3 z          0.000000      0.000000     0.000000    Fractional   0.00
      4 x          0.000000      0.000000     0.000000    Fractional   0.00
      4 y          0.000000      0.000000     0.000000    Fractional   0.00
      4 z          0.000000      0.000000     0.000000    Fractional   0.00
      5 x          0.500000      0.500000     0.000000    Fractional   0.00
      5 y          0.500000      0.500000     0.000000    Fractional   0.00
      5 z          0.500000      0.500000     0.000000    Fractional   0.00
--------------------------------------------------------------------------------


  Born effective charge tensors : 

-------------------------------------------------------------------------------
  Atom             x           y             z
-------------------------------------------------------------------------------
    1 Cl    x      -1.0219     -0.0000      0.0000
            y      -0.0000     -1.0219      0.0000
            z       0.0000      0.0000     -1.0219
-------------------------------------------------------------------------------
    2 O     x      -2.2883      0.0000     -0.0000
            y       0.0000     -2.2883     -0.0000
            z      -0.0000     -0.0000     -2.2883
-------------------------------------------------------------------------------
    3 Na    x       1.2338      0.0000     -0.0000
            y       0.0000      1.2338     -0.0000
            z      -0.0000     -0.0000      0.8426
-------------------------------------------------------------------------------




  Elastic Constant Matrix: (Units=GPa)

-------------------------------------------------------------------------------
  Indices      1         2         3         4         5         6    
-------------------------------------------------------------------------------
       1     65.4709   20.9237   20.9237   -0.0000   -0.0000   -0.0000
       2     20.9237   65.4709   20.9237   -0.0000   -0.0000    0.0000
       3     20.9237   20.9237   65.4709   -0.0000   -0.0000   -0.0000
       4     -0.0000   -0.0000   -0.0000   20.9238    0.0000   -0.0000
       5     -0.0000   -0.0000   -0.0000    0.0000   20.9238   -0.0000
       6     -0.0000    0.0000   -0.0000   -0.0000   -0.0000   20.9238
-------------------------------------------------------------------------------


  Elastic Compliance Matrix: (Units=1/GPa)

-------------------------------------------------------------------------------
  Indices      1         2         3         4         5         6    
-------------------------------------------------------------------------------
       1    0.018071 -0.004377 -0.004377 -0.000000  0.000000  0.000000
       2   -0.004377  0.018071 -0.004377  0.000000 -0.000000 -0.000000
       3   -0.004377 -0.004377  0.018071  0.000000  0.000000  0.000000
       4   -0.000000  0.000000  0.000000  0.047793 -0.000000  0.000000
       5    0.000000 -0.000000  0.000000 -0.000000  0.047793  0.000000
       6    0.000000 -0.000000  0.000000  0.000000  0.000000  0.047793
-------------------------------------------------------------------------------

  Mechanical properties :

-------------------------------------------------------------------------------
  Convention :                    Reuss         Voigt         Hill
-------------------------------------------------------------------------------
  Bulk  Modulus (GPa)     =      35.77277      35.77277      35.77277
  Shear Modulus (GPa)     =      21.44358      21.46371      21.45365
-------------------------------------------------------------------------------
  Velocity S-wave (km/s)  =       3.09604       3.09749       3.09676
  Velocity P-wave (km/s)  =       5.36388       5.36500       5.36444
-------------------------------------------------------------------------------
  Compressibility (1/GPa) =    0.02795422
-------------------------------------------------------------------------------
  Stress axis :                     x             y             z
-------------------------------------------------------------------------------
  Youngs Moduli (GPa)     =      55.33598      55.33598      55.33598
-------------------------------------------------------------------------------
  Poissons Ratio (x)      =                     0.24219       0.24219
  Poissons Ratio (y)      =       0.24219                     0.24219
  Poissons Ratio (z)      =       0.24219       0.24219
-------------------------------------------------------------------------------


  Piezoelectric Strain Matrix: (Units=C/m**2)

-------------------------------------------------------------------------------
  Indices      1         2         3         4         5         6    
-------------------------------------------------------------------------------
       x     0.00000   0.00000   0.00000   0.00000  -0.00000  -0.00000
       y    -0.00000   0.00000  -0.00000  -0.00000   0.00000  -0.00000
       z    -0.00000  -0.00000   0.00000  -0.00000  -0.00000   0.00000
-------------------------------------------------------------------------------


  Piezoelectric Stress Matrix: (Units=10**-11 C/N)

-------------------------------------------------------------------------------
  Indices      1         2         3         4         5         6    
-------------------------------------------------------------------------------
       x     0.00000   0.00000   0.00000   0.00000  -0.00000  -0.00000
       y    -0.00000   0.00000  -0.00000  -0.00000   0.00000  -0.00000
       z    -0.00000  -0.00000   0.00000  -0.00000  -0.00000   0.00000
-------------------------------------------------------------------------------


  Static dielectric constant tensor : 

-------------------------------------------------------------------------------
              x         y         z
-------------------------------------------------------------------------------
       x    31.81300   0.00000  -0.00000
       y     0.00000  31.81300  -0.00000
       z    -0.00000  -0.00000  31.81300
--------------------------------------------------------------------------------

  High frequency dielectric constant tensor : 

-------------------------------------------------------------------------------
              x         y         z
-------------------------------------------------------------------------------
       x     1.48935   0.00000  -0.00000
       y     0.00000   1.48935  -0.00000
       z    -0.00000  -0.00000   1.48935
-------------------------------------------------------------------------------

  Static refractive indices : 

-------------------------------------------------------------------------------
    1 =    5.64030      2 =    5.64030      3 =    5.64030
-------------------------------------------------------------------------------

  High frequency refractive indices : 

-------------------------------------------------------------------------------
    1 =    1.22039      2 =    1.22039      3 =    1.22039
-------------------------------------------------------------------------------


  Time to end of optimisation =       0.0154 seconds

********************************************************************************
*  Defect calculation for configuration   1 :                                  *
********************************************************************************

  Total number of defects =      1

  Total charge on defect  =  -1.00

  Defect centre is at   0.5000   0.5000   0.0000  Frac

  Region 1 radius =  14.0000      Number of ions =    902

  Number of symmetry inequivalent region 1 ions  =     97

  Region 2 radius =  24.0000      Number of ions =   3624

  Number of symmetry inequivalent region 2a ions =    297

  Region 2a mode = 4 : screened electrostatics due to region 1 
                       neglect correction to region 1 forces from 2a
                       region 2a displacements based on defects only

  Region 2a ions will only interact with defects in region 1

  Vacancies:

--------------------------------------------------------------------------------
    Specification type     Symbol/Number         x          y          z
--------------------------------------------------------------------------------
    Fractional                               0.500000   0.500000   0.000000
--------------------------------------------------------------------------------


  Symmetry reduced region 1 (Relative to defect centre) :

--------------------------------------------------------------------------------
   No.   Atomic       x            y             z       Radius  Multiplicity   
         Label      (Angs)       (Angs)        (Angs)    (Angs)     
--------------------------------------------------------------------------------
     1  O     c      0.0000       0.0000      -2.2356 *  0.0000     2          
     2  Cl    c      2.2356 *     2.2356       0.0000    0.0000     4          
     3  Na    c      2.2356 *     0.0000      -2.2356 *  0.0000     8          
     4  Na    c      0.0000       0.0000       4.4712 *  0.0000     2          
     5  Na    c      0.0000       4.4712 *     0.0000    0.0000     4          
     6  O     c      0.0000       4.4712 *    -2.2356 *  0.0000     8          
     7  Cl    c      2.2356 *     2.2356       4.4712 *  0.0000     8          
     8  Na    c      2.2356 *     4.4712 *    -2.2356 *  0.0000    16          
     9  Na    c      0.0000       4.4712 *     4.4712 *  0.0000     8          
    10  Na    c      4.4712 *     4.4712       0.0000    0.0000     4          
    11  O     c      0.0000       0.0000       6.7068 *  0.0000     2          
    12  O     c      4.4712 *     4.4712      -2.2356 *  0.0000     8          
    13  Cl    c      2.2356 *     6.7068 *     0.0000    0.0000     8          
    14  Na    c      2.2356 *     0.0000       6.7068 *  0.0000     8          
    15  Na    c      6.7068 *     0.0000      -2.2356 *  0.0000     8          
    16  Na    c      4.4712 *     4.4712       4.4712 *  0.0000     8          
    17  O     c      0.0000       4.4712 *     6.7068 *  0.0000     8          
    18  Cl    c      2.2356 *     6.7068 *     4.4712 *  0.0000    16          
    19  Na    c      2.2356 *     4.4712 *     6.7068 *  0.0000    16          
    20  Na    c      6.7068 *     4.4712 *    -2.2356 *  0.0000    16          
    21  Na    c      0.0000       0.0000       8.9424 *  0.0000     2          
    22  Na    c      0.0000       8.9424 *     0.0000    0.0000     4          
    23  O     c      0.0000       8.9424 *    -2.2356 *  0.0000     8          
    24  O     c      4.4712 *     4.4712       6.7068 *  0.0000     8          
    25  Cl    c      2.2356 *     2.2356       8.9424 *  0.0000     8          
    26  Cl    c      6.7068 *     6.7068       0.0000    0.0000     4          
    27  Na    c      2.2356 *     8.9424 *    -2.2356 *  0.0000    16          
    28  Na    c      6.7068 *     0.0000       6.7068 *  0.0000     8          
    29  Na    c      0.0000       4.4712 *     8.9424 *  0.0000     8          
    30  Na    c      0.0000       8.9424 *     4.4712 *  0.0000     8          
    31  Na    c      4.4712 *     8.9424 *     0.0000    0.0000     8          
    32  O     c      4.4712 *     8.9424 *    -2.2356 *  0.0000    16          
    33  Cl    c      6.7068 *     6.7068       4.4712 *  0.0000     8          
    34  Na    c      6.7068 *     4.4712 *     6.7068 *  0.0000    16          
    35  Na    c      4.4712 *     4.4712       8.9424 *  0.0000     8          
    36  Na    c      4.4712 *     8.9424 *     4.4712 *  0.0000    16          
    37  O     c      0.0000       0.0000      11.1780 *  0.0000     2          
    38  O     c      0.0000       8.9424 *     6.7068 *  0.0000     8          
    39  Cl    c      2.2356 *    11.1780 *     0.0000    0.0000     8          
    40  Na    c      2.2356 *     0.0000      11.1780 *  0.0000     8          
    41  Na    c     11.1780 *     0.0000      -2.2356 *  0.0000     8          
    42  Cl    c      2.2356 *     6.7068 *     8.9424 *  0.0000    16          
    43  Na    c      2.2356 *     8.9424 *     6.7068 *  0.0000    16          
    44  Na    c      6.7068 *     8.9424 *    -2.2356 *  0.0000    16          
    45  O     c      0.0000       4.4712 *    11.1780 *  0.0000     8          
    46  O     c      4.4712 *     8.9424 *     6.7068 *  0.0000    16          
    47  Cl    c      2.2356 *    11.1780 *     4.4712 *  0.0000    16          
    48  Na    c      2.2356 *     4.4712 *    11.1780 *  0.0000    16          
    49  Na    c     11.1780 *     4.4712 *    -2.2356 *  0.0000    16          
    50  Na    c      0.0000       8.9424 *     8.9424 *  0.0000     8          
    51  Na    c      8.9424 *     8.9424       0.0000    0.0000     4          
    52  O     c      4.4712 *     4.4712      11.1780 *  0.0000     8          
    53  O     c      8.9424 *     8.9424      -2.2356 *  0.0000     8          
    54  Cl    c      6.7068 *    11.1780 *     0.0000    0.0000     8          
    55  Na    c      6.7068 *     0.0000      11.1780 *  0.0000     8          
    56  Na    c     11.1780 *     0.0000       6.7068 *  0.0000     8          
    57  Cl    c      6.7068 *     6.7068       8.9424 *  0.0000     8          
    58  Na    c      6.7068 *     8.9424 *     6.7068 *  0.0000    16          
    59  Na    c      0.0000     -13.4136 *     0.0000    0.0000     4          
    60  Na    c      0.0000       0.0000      13.4136 *  0.0000     2          
    61  Na    c      4.4712 *     8.9424 *     8.9424 *  0.0000    16          
    62  Na    c      8.9424 *     8.9424       4.4712 *  0.0000     8          
    63  O     c      0.0000     -13.4136 *    -2.2356 *  0.0000     8          
    64  Na    c      2.2356 *   -13.4136 *    -2.2356 *  0.0000    16          
    65  Cl    c      6.7068 *    11.1780 *     4.4712 *  0.0000    16          
    66  Na    c      6.7068 *     4.4712 *    11.1780 *  0.0000    16          
    67  Na    c     11.1780 *     4.4712 *     6.7068 *  0.0000    16          
    68  Cl    c      2.2356 *     2.2356      13.4136 *  0.0000     8          
    69  O     s      0.0000       0.0000      -2.2356 *  0.0000     2          
    70  Cl    s      2.2356 *     2.2356       0.0000    0.0000     4          
    71  O     s      0.0000       4.4712 *    -2.2356 *  0.0000     8          
    72  Cl    s      2.2356 *     2.2356       4.4712 *  0.0000     8          
    73  O     s      0.0000       0.0000       6.7068 *  0.0000     2          
    74  O     s      4.4712 *     4.4712      -2.2356 *  0.0000     8          
    75  Cl    s      2.2356 *     6.7068 *     0.0000    0.0000     8          
    76  O     s      0.0000       4.4712 *     6.7068 *  0.0000     8          
    77  Cl    s      2.2356 *     6.7068 *     4.4712 *  0.0000    16          
    78  O     s      0.0000       8.9424 *    -2.2356 *  0.0000     8          
    79  O     s      4.4712 *     4.4712       6.7068 *  0.0000     8          
    80  Cl    s      2.2356 *     2.2356       8.9424 *  0.0000     8          
    81  Cl    s      6.7068 *     6.7068       0.0000    0.0000     4          
    82  O     s      4.4712 *     8.9424 *    -2.2356 *  0.0000    16          
    83  Cl    s      6.7068 *     6.7068       4.4712 *  0.0000     8          
    84  O     s      0.0000       0.0000      11.1780 *  0.0000     2          
    85  O     s      0.0000       8.9424 *     6.7068 *  0.0000     8          
    86  Cl    s      2.2356 *    11.1780 *     0.0000    0.0000     8          
    87  Cl    s      2.2356 *     6.7068 *     8.9424 *  0.0000    16          
    88  O     s      0.0000       4.4712 *    11.1780 *  0.0000     8          
    89  O     s      4.4712 *     8.9424 *     6.7068 *  0.0000    16          
    90  Cl    s      2.2356 *    11.1780 *     4.4712 *  0.0000    16          
    91  O     s      4.4712 *     4.4712      11.1780 *  0.0000     8          
    92  O     s      8.9424 *     8.9424      -2.2356 *  0.0000     8          
    93  Cl    s      6.7068 *    11.1780 *     0.0000    0.0000     8          
    94  Cl    s      6.7068 *     6.7068       8.9424 *  0.0000     8          
    95  O     s      0.0000     -13.4136 *    -2.2356 *  0.0000     8          
    96  Cl    s      6.7068 *    11.1780 *     4.4712 *  0.0000    16          
    97  Cl    s      2.2356 *     2.2356      13.4136 *  0.0000     8          
--------------------------------------------------------------------------------


  Constraints on symmetry reduced coordinates :

--------------------------------------------------------------------------------
  Constraint no.      Unconstrained     Constrained    Coefficient    
                         Variable         Variable
--------------------------------------------------------------------------------
           1                 2 x             2 y         1.00000
           2                 7 x             7 y         1.00000
           3                10 x            10 y         1.00000
           4                12 x            12 y         1.00000
           5                16 x            16 y         1.00000
           6                24 x            24 y         1.00000
           7                25 x            25 y         1.00000
           8                26 x            26 y         1.00000
           9                33 x            33 y         1.00000
          10                35 x            35 y         1.00000
          11                51 x            51 y         1.00000
          12                52 x            52 y         1.00000
          13                53 x            53 y         1.00000
          14                57 x            57 y         1.00000
          15                62 x            62 y         1.00000
          16                68 x            68 y         1.00000
          17                70 x            70 y         1.00000
          18                72 x            72 y         1.00000
          19                74 x            74 y         1.00000
          20                79 x            79 y         1.00000
          21                80 x            80 y         1.00000
          22                81 x            81 y         1.00000
          23                83 x            83 y         1.00000
          24                91 x            91 y         1.00000
          25                92 x            92 y         1.00000
          26                94 x            94 y         1.00000
          27                97 x            97 y         1.00000
--------------------------------------------------------------------------------


  Components of defect energy : 

--------------------------------------------------------------------------------
  Region 1 - region 1                   =    -15.21185712 eV
  Region 1 - region 2a (unrelaxed)      =     23.41063380 eV
  Region 1 - 2a (relaxed - correction)  =     -0.40562726 eV
  Region 1 (Total)                      =      7.79314942 eV
  Region 2a                             =      0.20277282 eV
  Region 2b                             =     -0.29024768 eV
--------------------------------------------------------------------------------
  Total defect energy                   =      7.70567456 eV
--------------------------------------------------------------------------------

  Largest displacement in region 2 =   0.0137 Angstroms


  Number of variables =      203

  Maximum number of calculations  =        1000
  Maximum Hessian update interval =          10
  Maximum step size               =   1.0000000
  Maximum parameter tolerance     =   0.0000100
  Maximum function  tolerance     =   0.0000100
  Maximum gradient  tolerance     =   0.0010000

  Symmetry adapted optimisation

  Symmetry to be used for second derivatives

  Newton-Raphson optimiser to be used

  BFGS hessian update to be used

  Lower half triangular hessian to be used

  Start of defect optimisation :

  Cycle:      0 Defect Energy:   7.705675  Gnorm:     0.193825  CPU:    7.277
  ** Hessian calculated **
  Cycle:      1 Defect Energy:   5.326847  Gnorm:     0.105871  CPU:   11.954
  Cycle:      2 Defect Energy:   4.444785  Gnorm:     0.022605  CPU:   15.542
  ** Hessian calculated **
  Cycle:      3 Defect Energy:   4.415053  Gnorm:     0.009701  CPU:   19.160
  Cycle:      4 Defect Energy:   4.408362  Gnorm:     0.006271  CPU:   19.877
  Cycle:      5 Defect Energy:   4.400604  Gnorm:     0.005330  CPU:   20.852
  Cycle:      6 Defect Energy:   4.390680  Gnorm:     0.003948  CPU:   21.557
  Cycle:      7 Defect Energy:   4.379653  Gnorm:     0.003581  CPU:   22.262
  Cycle:      8 Defect Energy:   4.371550  Gnorm:     0.003499  CPU:   22.958
  Cycle:      9 Defect Energy:   4.365188  Gnorm:     0.004093  CPU:   23.656
  Cycle:     10 Defect Energy:   4.358817  Gnorm:     0.004643  CPU:   24.347
  Cycle:     11 Defect Energy:   4.351396  Gnorm:     0.005124  CPU:   25.037
  Cycle:     12 Defect Energy:   4.340393  Gnorm:     0.006391  CPU:   25.917
  ** Hessian calculated **
  Cycle:     13 Defect Energy:   4.337548  Gnorm:     0.005183  CPU:   27.448
  Cycle:     14 Defect Energy:   4.333510  Gnorm:     0.005010  CPU:   28.173
  Cycle:     15 Defect Energy:   4.328179  Gnorm:     0.004710  CPU:   28.873
  Cycle:     16 Defect Energy:   4.320950  Gnorm:     0.004584  CPU:   29.558
  Cycle:     17 Defect Energy:   4.311513  Gnorm:     0.004652  CPU:   30.325
  Cycle:     18 Defect Energy:   4.298811  Gnorm:     0.005111  CPU:   31.003
  Cycle:     19 Defect Energy:   4.281446  Gnorm:     0.006196  CPU:   31.653
  Cycle:     20 Defect Energy:   4.255720  Gnorm:     0.008277  CPU:   32.297
  Cycle:     21 Defect Energy:   4.217062  Gnorm:     0.011893  CPU:   32.944
  Cycle:     22 Defect Energy:   4.171746  Gnorm:     0.018009  CPU:   33.596
  ** Hessian calculated **
  Cycle:     23 Defect Energy:   4.138746  Gnorm:     0.014457  CPU:   35.124
  Cycle:     24 Defect Energy:   4.097432  Gnorm:     0.013777  CPU:   35.692
  Cycle:     25 Defect Energy:   4.046174  Gnorm:     0.011947  CPU:   37.070
  Cycle:     26 Defect Energy:   3.989725  Gnorm:     0.011616  CPU:   40.484
  Cycle:     27 Defect Energy:   3.955920  Gnorm:     0.011127  CPU:   41.900
  Cycle:     28 Defect Energy:   3.933168  Gnorm:     0.011056  CPU:   42.509
  Cycle:     29 Defect Energy:   3.914528  Gnorm:     0.011188  CPU:   42.932
  Cycle:     30 Defect Energy:   3.895194  Gnorm:     0.011691  CPU:   43.359
  Cycle:     31 Defect Energy:   3.872448  Gnorm:     0.012107  CPU:   43.792
  Cycle:     32 Defect Energy:   3.849815  Gnorm:     0.012421  CPU:   44.220
  ** Hessian calculated **
  Cycle:     33 Defect Energy:   3.843060  Gnorm:     0.011970  CPU:   45.222
  Cycle:     34 Defect Energy:   3.833790  Gnorm:     0.011933  CPU:   45.675
  Cycle:     35 Defect Energy:   3.821238  Gnorm:     0.011517  CPU:   46.107
  Cycle:     36 Defect Energy:   3.805187  Gnorm:     0.011324  CPU:   46.529
  Cycle:     37 Defect Energy:   3.791711  Gnorm:     0.011334  CPU:   47.134
  Cycle:     38 Defect Energy:   3.780098  Gnorm:     0.011340  CPU:   47.655
  Cycle:     39 Defect Energy:   3.770295  Gnorm:     0.011261  CPU:   48.084
  Cycle:     40 Defect Energy:   3.761032  Gnorm:     0.011211  CPU:   48.488
  Cycle:     41 Defect Energy:   3.751031  Gnorm:     0.011295  CPU:   48.898
  Cycle:     42 Defect Energy:   3.739106  Gnorm:     0.011271  CPU:   49.302
  ** Hessian calculated **
  Cycle:     43 Defect Energy:   3.691703  Gnorm:     0.009950  CPU:   50.265
  Cycle:     44 Defect Energy:   3.629261  Gnorm:     0.007832  CPU:   50.847
  Cycle:     45 Defect Energy:   3.579809  Gnorm:     0.005449  CPU:   51.693
  Cycle:     46 Defect Energy:   3.556773  Gnorm:     0.003808  CPU:   52.419
  Cycle:     47 Defect Energy:   3.545669  Gnorm:     0.002661  CPU:   53.148
  Cycle:     48 Defect Energy:   3.540224  Gnorm:     0.001864  CPU:   53.925
  Cycle:     49 Defect Energy:   3.537546  Gnorm:     0.001300  CPU:   54.678
  Cycle:     50 Defect Energy:   3.536198  Gnorm:     0.000917  CPU:   55.397
  Cycle:     51 Defect Energy:   3.535552  Gnorm:     0.000625  CPU:   56.117
  Cycle:     52 Defect Energy:   3.535161  Gnorm:     0.000446  CPU:   56.931
  ** Hessian calculated **
  Cycle:     53 Defect Energy:   3.535010  Gnorm:     0.000312  CPU:   58.484
  Cycle:     54 Defect Energy:   3.534934  Gnorm:     0.000219  CPU:   59.191
  Cycle:     55 Defect Energy:   3.534895  Gnorm:     0.000153  CPU:   59.891
  Cycle:     56 Defect Energy:   3.534874  Gnorm:     0.000107  CPU:   60.614
  Cycle:     57 Defect Energy:   3.534864  Gnorm:     0.000075  CPU:   61.326


  **** Optimisation achieved ****


  Final defect energy  =        3.53485780
  Final defect Gnorm   =        0.00005251

  Components of defect energy : 

--------------------------------------------------------------------------------
  Region 1 - region 1                   =    -16.89212470 eV
  Region 1 - region 2a (unrelaxed)      =     20.91089994 eV
  Region 1 - 2a (relaxed - correction)  =     -0.38721032 eV
  Region 1 (Total)                      =      3.63156492 eV
  Region 2a                             =      0.19354056 eV
  Region 2b                             =     -0.29024768 eV
--------------------------------------------------------------------------------
  Total defect energy                   =      3.53485780 eV
--------------------------------------------------------------------------------

  Largest displacement in region 2 =   0.0137 Angstroms

  Final coordinates of region 1 :

--------------------------------------------------------------------------------
   No.  Atomic        x           y           z          Radius      Charge
        Label       (Angs)      (Angs)      (Angs)       (Angs)       (e) 
--------------------------------------------------------------------------------
     1  O     c     2.235594    2.235594   -2.305261    0.000000    0.183000
     2  O     c     2.235594    2.235594    2.305261    0.000000    0.183000
     3  Cl    c     4.576144    4.576144    0.000000    0.000000    1.485000
     4  Cl    c     4.576144   -0.104955    0.000000    0.000000    1.485000
     5  Cl    c    -0.104955    4.576144    0.000000    0.000000    1.485000
     6  Cl    c    -0.104955   -0.104955    0.000000    0.000000    1.485000
     7  Na    c     4.374671    2.235594   -1.812609    0.000000    1.000000
     8  Na    c     4.374671    2.235594    1.812609    0.000000    1.000000
     9  Na    c     0.096518    2.235594   -1.812609    0.000000    1.000000
    10  Na    c     0.096518    2.235594    1.812609    0.000000    1.000000
    11  Na    c     2.235594    4.374671   -1.812609    0.000000    1.000000
    12  Na    c     2.235594    4.374671    1.812609    0.000000    1.000000
    13  Na    c     2.235594    0.096518   -1.812609    0.000000    1.000000
    14  Na    c     2.235594    0.096518    1.812609    0.000000    1.000000
    15  Na    c     2.235594    2.235594    4.464772    0.000000    1.000000
    16  Na    c     2.235594    2.235594   -4.464772    0.000000    1.000000
    17  Na    c     2.235594    7.114036    0.000000    0.000000    1.000000
    18  Na    c     2.235594   -2.642848    0.000000    0.000000    1.000000
    19  Na    c     7.114036    2.235594    0.000000    0.000000    1.000000
    20  Na    c    -2.642848    2.235594    0.000000    0.000000    1.000000
    21  O     c     2.235594    6.691869   -2.201540    0.000000    0.183000
    22  O     c     2.235594    6.691869    2.201540    0.000000    0.183000
    23  O     c     2.235594   -2.220680   -2.201540    0.000000    0.183000
    24  O     c     2.235594   -2.220680    2.201540    0.000000    0.183000
    25  O     c     6.691869    2.235594   -2.201540    0.000000    0.183000
    26  O     c     6.691869    2.235594    2.201540    0.000000    0.183000
    27  O     c    -2.220680    2.235594   -2.201540    0.000000    0.183000
    28  O     c    -2.220680    2.235594    2.201540    0.000000    0.183000
    29  Cl    c     4.512167    4.512167    4.630008    0.000000    1.485000
    30  Cl    c     4.512167    4.512167   -4.630008    0.000000    1.485000
    31  Cl    c     4.512167   -0.040978    4.630008    0.000000    1.485000
    32  Cl    c     4.512167   -0.040978   -4.630008    0.000000    1.485000
    33  Cl    c    -0.040978    4.512167    4.630008    0.000000    1.485000
    34  Cl    c    -0.040978    4.512167   -4.630008    0.000000    1.485000
    35  Cl    c    -0.040978   -0.040978    4.630008    0.000000    1.485000
    36  Cl    c    -0.040978   -0.040978   -4.630008    0.000000    1.485000
    37  Na    c     4.470907    6.702424   -2.068410    0.000000    1.000000
    38  Na    c     4.470907    6.702424    2.068410    0.000000    1.000000
    39  Na    c     4.470907   -2.231235   -2.068410    0.000000    1.000000
    40  Na    c     4.470907   -2.231235    2.068410    0.000000    1.000000
    41  Na    c     0.000282    6.702424   -2.068410    0.000000    1.000000
    42  Na    c     0.000282    6.702424    2.068410    0.000000    1.000000
    43  Na    c     0.000282   -2.231235   -2.068410    0.000000    1.000000
    44  Na    c     0.000282   -2.231235    2.068410    0.000000    1.000000
    45  Na    c     6.702424    4.470907   -2.068410    0.000000    1.000000
    46  Na    c     6.702424    4.470907    2.068410    0.000000    1.000000
    47  Na    c     6.702424    0.000282   -2.068410    0.000000    1.000000
    48  Na    c     6.702424    0.000282    2.068410    0.000000    1.000000
    49  Na    c    -2.231235    4.470907   -2.068410    0.000000    1.000000
    50  Na    c    -2.231235    4.470907    2.068410    0.000000    1.000000
    51  Na    c    -2.231235    0.000282   -2.068410    0.000000    1.000000
    52  Na    c    -2.231235    0.000282    2.068410    0.000000    1.000000
    53  Na    c     2.235594    6.268585    4.425973    0.000000    1.000000
    54  Na    c     2.235594    6.268585   -4.425973    0.000000    1.000000
    55  Na    c     2.235594   -1.797396    4.425973    0.000000    1.000000
    56  Na    c     2.235594   -1.797396   -4.425973    0.000000    1.000000
    57  Na    c     6.268585    2.235594    4.425973    0.000000    1.000000
    58  Na    c     6.268585    2.235594   -4.425973    0.000000    1.000000
    59  Na    c    -1.797396    2.235594    4.425973    0.000000    1.000000
    60  Na    c    -1.797396    2.235594   -4.425973    0.000000    1.000000
    61  Na    c     6.921207    6.921207    0.000000    0.000000    1.000000
    62  Na    c     6.921207   -2.450018    0.000000    0.000000    1.000000
    63  Na    c    -2.450018    6.921207    0.000000    0.000000    1.000000
    64  Na    c    -2.450018   -2.450018    0.000000    0.000000    1.000000
    65  O     c     2.235594    2.235594    6.786873    0.000000    0.183000
    66  O     c     2.235594    2.235594   -6.786873    0.000000    0.183000
    67  O     c     6.715862    6.715862   -2.260328    0.000000    0.183000
    68  O     c     6.715862    6.715862    2.260328    0.000000    0.183000
    69  O     c     6.715862   -2.244674   -2.260328    0.000000    0.183000
    70  O     c     6.715862   -2.244674    2.260328    0.000000    0.183000
    71  O     c    -2.244674    6.715862   -2.260328    0.000000    0.183000
    72  O     c    -2.244674    6.715862    2.260328    0.000000    0.183000
    73  O     c    -2.244674   -2.244674   -2.260328    0.000000    0.183000
    74  O     c    -2.244674   -2.244674    2.260328    0.000000    0.183000
    75  Cl    c     4.488200    8.945232    0.000000    0.000000    1.485000
    76  Cl    c     4.488200   -4.474043    0.000000    0.000000    1.485000
    77  Cl    c     8.945232    4.488200    0.000000    0.000000    1.485000
    78  Cl    c     8.945232   -0.017012    0.000000    0.000000    1.485000
    79  Cl    c    -0.017012    8.945232    0.000000    0.000000    1.485000
    80  Cl    c    -0.017012   -4.474043    0.000000    0.000000    1.485000
    81  Cl    c    -4.474043    4.488200    0.000000    0.000000    1.485000
    82  Cl    c    -4.474043   -0.017012    0.000000    0.000000    1.485000
    83  Na    c     4.463703    2.235594    6.855977    0.000000    1.000000
    84  Na    c     4.463703    2.235594   -6.855977    0.000000    1.000000
    85  Na    c     0.007486    2.235594    6.855977    0.000000    1.000000
    86  Na    c     0.007486    2.235594   -6.855977    0.000000    1.000000
    87  Na    c     2.235594    4.463703    6.855977    0.000000    1.000000
    88  Na    c     2.235594    4.463703   -6.855977    0.000000    1.000000
    89  Na    c     2.235594    0.007486    6.855977    0.000000    1.000000
    90  Na    c     2.235594    0.007486   -6.855977    0.000000    1.000000
    91  Na    c     8.914441    2.235594   -2.671215    0.000000    1.000000
    92  Na    c     8.914441    2.235594    2.671215    0.000000    1.000000
    93  Na    c    -4.443252    2.235594   -2.671215    0.000000    1.000000
    94  Na    c    -4.443252    2.235594    2.671215    0.000000    1.000000
    95  Na    c     2.235594    8.914441   -2.671215    0.000000    1.000000
    96  Na    c     2.235594    8.914441    2.671215    0.000000    1.000000
    97  Na    c     2.235594   -4.443252   -2.671215    0.000000    1.000000
    98  Na    c     2.235594   -4.443252    2.671215    0.000000    1.000000
    99  Na    c     6.477253    6.477253    4.470773    0.000000    1.000000
   100  Na    c     6.477253    6.477253   -4.470773    0.000000    1.000000
   101  Na    c     6.477253   -2.006064    4.470773    0.000000    1.000000
   102  Na    c     6.477253   -2.006064   -4.470773    0.000000    1.000000
   103  Na    c    -2.006064    6.477253    4.470773    0.000000    1.000000
   104  Na    c    -2.006064    6.477253   -4.470773    0.000000    1.000000
   105  Na    c    -2.006064   -2.006064    4.470773    0.000000    1.000000
   106  Na    c    -2.006064   -2.006064   -4.470773    0.000000    1.000000
   107  O     c     2.235594    6.709372    6.693241    0.000000    0.183000
   108  O     c     2.235594    6.709372   -6.693241    0.000000    0.183000
   109  O     c     2.235594   -2.238184    6.693241    0.000000    0.183000
   110  O     c     2.235594   -2.238184   -6.693241    0.000000    0.183000
   111  O     c     6.709372    2.235594    6.693241    0.000000    0.183000
   112  O     c     6.709372    2.235594   -6.693241    0.000000    0.183000
   113  O     c    -2.238184    2.235594    6.693241    0.000000    0.183000
   114  O     c    -2.238184    2.235594   -6.693241    0.000000    0.183000
   115  Cl    c     4.508950    8.973518    4.471881    0.000000    1.485000
   116  Cl    c     4.508950    8.973518   -4.471881    0.000000    1.485000
   117  Cl    c     4.508950   -4.502329    4.471881    0.000000    1.485000
   118  Cl    c     4.508950   -4.502329   -4.471881    0.000000    1.485000
   119  Cl    c     8.973518    4.508950    4.471881    0.000000    1.485000
   120  Cl    c     8.973518    4.508950   -4.471881    0.000000    1.485000
   121  Cl    c     8.973518   -0.037761    4.471881    0.000000    1.485000
   122  Cl    c     8.973518   -0.037761   -4.471881    0.000000    1.485000
   123  Cl    c    -0.037761    8.973518    4.471881    0.000000    1.485000
   124  Cl    c    -0.037761    8.973518   -4.471881    0.000000    1.485000
   125  Cl    c    -0.037761   -4.502329    4.471881    0.000000    1.485000
   126  Cl    c    -0.037761   -4.502329   -4.471881    0.000000    1.485000
   127  Cl    c    -4.502329    4.508950    4.471881    0.000000    1.485000
   128  Cl    c    -4.502329    4.508950   -4.471881    0.000000    1.485000
   129  Cl    c    -4.502329   -0.037761    4.471881    0.000000    1.485000
   130  Cl    c    -4.502329   -0.037761   -4.471881    0.000000    1.485000
   131  Na    c     4.464949    6.694285    6.771805    0.000000    1.000000
   132  Na    c     4.464949    6.694285   -6.771805    0.000000    1.000000
   133  Na    c     4.464949   -2.223097    6.771805    0.000000    1.000000
   134  Na    c     4.464949   -2.223097   -6.771805    0.000000    1.000000
   135  Na    c     0.006240    6.694285    6.771805    0.000000    1.000000
   136  Na    c     0.006240    6.694285   -6.771805    0.000000    1.000000
   137  Na    c     0.006240   -2.223097    6.771805    0.000000    1.000000
   138  Na    c     0.006240   -2.223097   -6.771805    0.000000    1.000000
   139  Na    c     6.694285    4.464949    6.771805    0.000000    1.000000
   140  Na    c     6.694285    4.464949   -6.771805    0.000000    1.000000
   141  Na    c     6.694285    0.006240    6.771805    0.000000    1.000000
   142  Na    c     6.694285    0.006240   -6.771805    0.000000    1.000000
   143  Na    c    -2.223097    4.464949    6.771805    0.000000    1.000000
   144  Na    c    -2.223097    4.464949   -6.771805    0.000000    1.000000
   145  Na    c    -2.223097    0.006240    6.771805    0.000000    1.000000
   146  Na    c    -2.223097    0.006240   -6.771805    0.000000    1.000000
   147  Na    c     8.937128    6.701356   -2.524149    0.000000    1.000000
   148  Na    c     8.937128    6.701356    2.524149    0.000000    1.000000
   149  Na    c     8.937128   -2.230168   -2.524149    0.000000    1.000000
   150  Na    c     8.937128   -2.230168    2.524149    0.000000    1.000000
   151  Na    c    -4.465939    6.701356   -2.524149    0.000000    1.000000
   152  Na    c    -4.465939    6.701356    2.524149    0.000000    1.000000
   153  Na    c    -4.465939   -2.230168   -2.524149    0.000000    1.000000
   154  Na    c    -4.465939   -2.230168    2.524149    0.000000    1.000000
   155  Na    c     6.701356    8.937128   -2.524149    0.000000    1.000000
   156  Na    c     6.701356    8.937128    2.524149    0.000000    1.000000
   157  Na    c     6.701356   -4.465939   -2.524149    0.000000    1.000000
   158  Na    c     6.701356   -4.465939    2.524149    0.000000    1.000000
   159  Na    c    -2.230168    8.937128   -2.524149    0.000000    1.000000
   160  Na    c    -2.230168    8.937128    2.524149    0.000000    1.000000
   161  Na    c    -2.230168   -4.465939   -2.524149    0.000000    1.000000
   162  Na    c    -2.230168   -4.465939    2.524149    0.000000    1.000000
   163  Na    c     2.235594    2.235594    8.993799    0.000000    1.000000
   164  Na    c     2.235594    2.235594   -8.993799    0.000000    1.000000
   165  Na    c     2.235594   10.767431    0.000000    0.000000    1.000000
   166  Na    c     2.235594   -6.296243    0.000000    0.000000    1.000000
   167  Na    c    10.767431    2.235594    0.000000    0.000000    1.000000
   168  Na    c    -6.296243    2.235594    0.000000    0.000000    1.000000
   169  O     c     2.235594   11.155851   -2.230033    0.000000    0.183000
   170  O     c     2.235594   11.155851    2.230033    0.000000    0.183000
   171  O     c     2.235594   -6.684662   -2.230033    0.000000    0.183000
   172  O     c     2.235594   -6.684662    2.230033    0.000000    0.183000
   173  O     c    11.155851    2.235594   -2.230033    0.000000    0.183000
   174  O     c    11.155851    2.235594    2.230033    0.000000    0.183000
   175  O     c    -6.684662    2.235594   -2.230033    0.000000    0.183000
   176  O     c    -6.684662    2.235594    2.230033    0.000000    0.183000
   177  O     c     6.718568    6.718568    6.684385    0.000000    0.183000
   178  O     c     6.718568    6.718568   -6.684385    0.000000    0.183000
   179  O     c     6.718568   -2.247379    6.684385    0.000000    0.183000
   180  O     c     6.718568   -2.247379   -6.684385    0.000000    0.183000
   181  O     c    -2.247379    6.718568    6.684385    0.000000    0.183000
   182  O     c    -2.247379    6.718568   -6.684385    0.000000    0.183000
   183  O     c    -2.247379   -2.247379    6.684385    0.000000    0.183000
   184  O     c    -2.247379   -2.247379   -6.684385    0.000000    0.183000
   185  Cl    c     4.464262    4.464262    8.970168    0.000000    1.485000
   186  Cl    c     4.464262    4.464262   -8.970168    0.000000    1.485000
   187  Cl    c     4.464262    0.006927    8.970168    0.000000    1.485000
   188  Cl    c     4.464262    0.006927   -8.970168    0.000000    1.485000
   189  Cl    c     0.006927    4.464262    8.970168    0.000000    1.485000
   190  Cl    c     0.006927    4.464262   -8.970168    0.000000    1.485000
   191  Cl    c     0.006927    0.006927    8.970168    0.000000    1.485000
   192  Cl    c     0.006927    0.006927   -8.970168    0.000000    1.485000
   193  Cl    c     8.995380    8.995380    0.000000    0.000000    1.485000
   194  Cl    c     8.995380   -4.524191    0.000000    0.000000    1.485000
   195  Cl    c    -4.524191    8.995380    0.000000    0.000000    1.485000
   196  Cl    c    -4.524191   -4.524191    0.000000    0.000000    1.485000
   197  Na    c     4.468407   11.134299   -2.194832    0.000000    1.000000
   198  Na    c     4.468407   11.134299    2.194832    0.000000    1.000000
   199  Na    c     4.468407   -6.663110   -2.194832    0.000000    1.000000
   200  Na    c     4.468407   -6.663110    2.194832    0.000000    1.000000
   201  Na    c     0.002782   11.134299   -2.194832    0.000000    1.000000
   202  Na    c     0.002782   11.134299    2.194832    0.000000    1.000000
   203  Na    c     0.002782   -6.663110   -2.194832    0.000000    1.000000
   204  Na    c     0.002782   -6.663110    2.194832    0.000000    1.000000
   205  Na    c    11.134299    4.468407   -2.194832    0.000000    1.000000
   206  Na    c    11.134299    4.468407    2.194832    0.000000    1.000000
   207  Na    c    11.134299    0.002782   -2.194832    0.000000    1.000000
   208  Na    c    11.134299    0.002782    2.194832    0.000000    1.000000
   209  Na    c    -6.663110    4.468407   -2.194832    0.000000    1.000000
   210  Na    c    -6.663110    4.468407    2.194832    0.000000    1.000000
   211  Na    c    -6.663110    0.002782   -2.194832    0.000000    1.000000
   212  Na    c    -6.663110    0.002782    2.194832    0.000000    1.000000
   213  Na    c     8.925150    2.235594    6.367165    0.000000    1.000000
   214  Na    c     8.925150    2.235594   -6.367165    0.000000    1.000000
   215  Na    c    -4.453962    2.235594    6.367165    0.000000    1.000000
   216  Na    c    -4.453962    2.235594   -6.367165    0.000000    1.000000
   217  Na    c     2.235594    8.925150    6.367165    0.000000    1.000000
   218  Na    c     2.235594    8.925150   -6.367165    0.000000    1.000000
   219  Na    c     2.235594   -4.453962    6.367165    0.000000    1.000000
   220  Na    c     2.235594   -4.453962   -6.367165    0.000000    1.000000
   221  Na    c     2.235594    6.906686    8.927136    0.000000    1.000000
   222  Na    c     2.235594    6.906686   -8.927136    0.000000    1.000000
   223  Na    c     2.235594   -2.435497    8.927136    0.000000    1.000000
   224  Na    c     2.235594   -2.435497   -8.927136    0.000000    1.000000
   225  Na    c     6.906686    2.235594    8.927136    0.000000    1.000000
   226  Na    c     6.906686    2.235594   -8.927136    0.000000    1.000000
   227  Na    c    -2.435497    2.235594    8.927136    0.000000    1.000000
   228  Na    c    -2.435497    2.235594   -8.927136    0.000000    1.000000
   229  Na    c     2.235594   11.536004    4.449815    0.000000    1.000000
   230  Na    c     2.235594   11.536004   -4.449815    0.000000    1.000000
   231  Na    c     2.235594   -7.064815    4.449815    0.000000    1.000000
   232  Na    c     2.235594   -7.064815   -4.449815    0.000000    1.000000
   233  Na    c    11.536004    2.235594    4.449815    0.000000    1.000000
   234  Na    c    11.536004    2.235594   -4.449815    0.000000    1.000000
   235  Na    c    -7.064815    2.235594    4.449815    0.000000    1.000000
   236  Na    c    -7.064815    2.235594   -4.449815    0.000000    1.000000
   237  Na    c     6.764230   10.900527    0.000000    0.000000    1.000000
   238  Na    c     6.764230   -6.429339    0.000000    0.000000    1.000000
   239  Na    c    10.900527    6.764230    0.000000    0.000000    1.000000
   240  Na    c    10.900527   -2.293041    0.000000    0.000000    1.000000
   241  Na    c    -2.293041   10.900527    0.000000    0.000000    1.000000
   242  Na    c    -2.293041   -6.429339    0.000000    0.000000    1.000000
   243  Na    c    -6.429339    6.764230    0.000000    0.000000    1.000000
   244  Na    c    -6.429339   -2.293041    0.000000    0.000000    1.000000
   245  O     c     6.707703   11.171362   -2.236576    0.000000    0.183000
   246  O     c     6.707703   11.171362    2.236576    0.000000    0.183000
   247  O     c     6.707703   -6.700174   -2.236576    0.000000    0.183000
   248  O     c     6.707703   -6.700174    2.236576    0.000000    0.183000
   249  O     c    11.171362    6.707703   -2.236576    0.000000    0.183000
   250  O     c    11.171362    6.707703    2.236576    0.000000    0.183000
   251  O     c    11.171362   -2.236514   -2.236576    0.000000    0.183000
   252  O     c    11.171362   -2.236514    2.236576    0.000000    0.183000
   253  O     c    -2.236514   11.171362   -2.236576    0.000000    0.183000
   254  O     c    -2.236514   11.171362    2.236576    0.000000    0.183000
   255  O     c    -2.236514   -6.700174   -2.236576    0.000000    0.183000
   256  O     c    -2.236514   -6.700174    2.236576    0.000000    0.183000
   257  O     c    -6.700174    6.707703   -2.236576    0.000000    0.183000
   258  O     c    -6.700174    6.707703    2.236576    0.000000    0.183000
   259  O     c    -6.700174   -2.236514   -2.236576    0.000000    0.183000
   260  O     c    -6.700174   -2.236514    2.236576    0.000000    0.183000
   261  Cl    c     8.970186    8.970186    4.465873    0.000000    1.485000
   262  Cl    c     8.970186    8.970186   -4.465873    0.000000    1.485000
   263  Cl    c     8.970186   -4.498998    4.465873    0.000000    1.485000
   264  Cl    c     8.970186   -4.498998   -4.465873    0.000000    1.485000
   265  Cl    c    -4.498998    8.970186    4.465873    0.000000    1.485000
   266  Cl    c    -4.498998    8.970186   -4.465873    0.000000    1.485000
   267  Cl    c    -4.498998   -4.498998    4.465873    0.000000    1.485000
   268  Cl    c    -4.498998   -4.498998   -4.465873    0.000000    1.485000
   269  Na    c     8.947182    6.721650    6.488911    0.000000    1.000000
   270  Na    c     8.947182    6.721650   -6.488911    0.000000    1.000000
   271  Na    c     8.947182   -2.250461    6.488911    0.000000    1.000000
   272  Na    c     8.947182   -2.250461   -6.488911    0.000000    1.000000
   273  Na    c    -4.475994    6.721650    6.488911    0.000000    1.000000
   274  Na    c    -4.475994    6.721650   -6.488911    0.000000    1.000000
   275  Na    c    -4.475994   -2.250461    6.488911    0.000000    1.000000
   276  Na    c    -4.475994   -2.250461   -6.488911    0.000000    1.000000
   277  Na    c     6.721650    8.947182    6.488911    0.000000    1.000000
   278  Na    c     6.721650    8.947182   -6.488911    0.000000    1.000000
   279  Na    c     6.721650   -4.475994    6.488911    0.000000    1.000000
   280  Na    c     6.721650   -4.475994   -6.488911    0.000000    1.000000
   281  Na    c    -2.250461    8.947182    6.488911    0.000000    1.000000
   282  Na    c    -2.250461    8.947182   -6.488911    0.000000    1.000000
   283  Na    c    -2.250461   -4.475994    6.488911    0.000000    1.000000
   284  Na    c    -2.250461   -4.475994   -6.488911    0.000000    1.000000
   285  Na    c     6.835508    6.835508    8.911135    0.000000    1.000000
   286  Na    c     6.835508    6.835508   -8.911135    0.000000    1.000000
   287  Na    c     6.835508   -2.364319    8.911135    0.000000    1.000000
   288  Na    c     6.835508   -2.364319   -8.911135    0.000000    1.000000
   289  Na    c    -2.364319    6.835508    8.911135    0.000000    1.000000
   290  Na    c    -2.364319    6.835508   -8.911135    0.000000    1.000000
   291  Na    c    -2.364319   -2.364319    8.911135    0.000000    1.000000
   292  Na    c    -2.364319   -2.364319   -8.911135    0.000000    1.000000
   293  Na    c     6.654100   11.421402    4.465022    0.000000    1.000000
   294  Na    c     6.654100   11.421402   -4.465022    0.000000    1.000000
   295  Na    c     6.654100   -6.950213    4.465022    0.000000    1.000000
   296  Na    c     6.654100   -6.950213   -4.465022    0.000000    1.000000
   297  Na    c    11.421402    6.654100    4.465022    0.000000    1.000000
   298  Na    c    11.421402    6.654100   -4.465022    0.000000    1.000000
   299  Na    c    11.421402   -2.182911    4.465022    0.000000    1.000000
   300  Na    c    11.421402   -2.182911   -4.465022    0.000000    1.000000
   301  Na    c    -2.182911   11.421402    4.465022    0.000000    1.000000
   302  Na    c    -2.182911   11.421402   -4.465022    0.000000    1.000000
   303  Na    c    -2.182911   -6.950213    4.465022    0.000000    1.000000
   304  Na    c    -2.182911   -6.950213   -4.465022    0.000000    1.000000
   305  Na    c    -6.950213    6.654100    4.465022    0.000000    1.000000
   306  Na    c    -6.950213    6.654100   -4.465022    0.000000    1.000000
   307  Na    c    -6.950213   -2.182911    4.465022    0.000000    1.000000
   308  Na    c    -6.950213   -2.182911   -4.465022    0.000000    1.000000
   309  O     c     2.235594    2.235594   11.186760    0.000000    0.183000
   310  O     c     2.235594    2.235594  -11.186760    0.000000    0.183000
   311  O     c     2.235594   11.174645    6.674464    0.000000    0.183000
   312  O     c     2.235594   11.174645   -6.674464    0.000000    0.183000
   313  O     c     2.235594   -6.703456    6.674464    0.000000    0.183000
   314  O     c     2.235594   -6.703456   -6.674464    0.000000    0.183000
   315  O     c    11.174645    2.235594    6.674464    0.000000    0.183000
   316  O     c    11.174645    2.235594   -6.674464    0.000000    0.183000
   317  O     c    -6.703456    2.235594    6.674464    0.000000    0.183000
   318  O     c    -6.703456    2.235594   -6.674464    0.000000    0.183000
   319  Cl    c     4.477621   13.480770    0.000000    0.000000    1.485000
   320  Cl    c     4.477621   -9.009581    0.000000    0.000000    1.485000
   321  Cl    c    13.480770    4.477621    0.000000    0.000000    1.485000
   322  Cl    c    13.480770   -0.006433    0.000000    0.000000    1.485000
   323  Cl    c    -0.006433   13.480770    0.000000    0.000000    1.485000
   324  Cl    c    -0.006433   -9.009581    0.000000    0.000000    1.485000
   325  Cl    c    -9.009581    4.477621    0.000000    0.000000    1.485000
   326  Cl    c    -9.009581   -0.006433    0.000000    0.000000    1.485000
   327  Na    c     4.490049    2.235594   11.139158    0.000000    1.000000
   328  Na    c     4.490049    2.235594  -11.139158    0.000000    1.000000
   329  Na    c    -0.018861    2.235594   11.139158    0.000000    1.000000
   330  Na    c    -0.018861    2.235594  -11.139158    0.000000    1.000000
   331  Na    c     2.235594    4.490049   11.139158    0.000000    1.000000
   332  Na    c     2.235594    4.490049  -11.139158    0.000000    1.000000
   333  Na    c     2.235594   -0.018861   11.139158    0.000000    1.000000
   334  Na    c     2.235594   -0.018861  -11.139158    0.000000    1.000000
   335  Na    c    13.400135    2.235594   -1.960993    0.000000    1.000000
   336  Na    c    13.400135    2.235594    1.960993    0.000000    1.000000
   337  Na    c    -8.928947    2.235594   -1.960993    0.000000    1.000000
   338  Na    c    -8.928947    2.235594    1.960993    0.000000    1.000000
   339  Na    c     2.235594   13.400135   -1.960993    0.000000    1.000000
   340  Na    c     2.235594   13.400135    1.960993    0.000000    1.000000
   341  Na    c     2.235594   -8.928947   -1.960993    0.000000    1.000000
   342  Na    c     2.235594   -8.928947    1.960993    0.000000    1.000000
   343  Cl    c     4.472954    8.953641    8.983950    0.000000    1.485000
   344  Cl    c     4.472954    8.953641   -8.983950    0.000000    1.485000
   345  Cl    c     4.472954   -4.482452    8.983950    0.000000    1.485000
   346  Cl    c     4.472954   -4.482452   -8.983950    0.000000    1.485000
   347  Cl    c     8.953641    4.472954    8.983950    0.000000    1.485000
   348  Cl    c     8.953641    4.472954   -8.983950    0.000000    1.485000
   349  Cl    c     8.953641   -0.001766    8.983950    0.000000    1.485000
   350  Cl    c     8.953641   -0.001766   -8.983950    0.000000    1.485000
   351  Cl    c    -0.001766    8.953641    8.983950    0.000000    1.485000
   352  Cl    c    -0.001766    8.953641   -8.983950    0.000000    1.485000
   353  Cl    c    -0.001766   -4.482452    8.983950    0.000000    1.485000
   354  Cl    c    -0.001766   -4.482452   -8.983950    0.000000    1.485000
   355  Cl    c    -4.482452    4.472954    8.983950    0.000000    1.485000
   356  Cl    c    -4.482452    4.472954   -8.983950    0.000000    1.485000
   357  Cl    c    -4.482452   -0.001766    8.983950    0.000000    1.485000
   358  Cl    c    -4.482452   -0.001766   -8.983950    0.000000    1.485000
   359  Na    c     4.463687   11.123281    6.709588    0.000000    1.000000
   360  Na    c     4.463687   11.123281   -6.709588    0.000000    1.000000
   361  Na    c     4.463687   -6.652092    6.709588    0.000000    1.000000
   362  Na    c     4.463687   -6.652092   -6.709588    0.000000    1.000000
   363  Na    c     0.007501   11.123281    6.709588    0.000000    1.000000
   364  Na    c     0.007501   11.123281   -6.709588    0.000000    1.000000
   365  Na    c     0.007501   -6.652092    6.709588    0.000000    1.000000
   366  Na    c     0.007501   -6.652092   -6.709588    0.000000    1.000000
   367  Na    c    11.123281    4.463687    6.709588    0.000000    1.000000
   368  Na    c    11.123281    4.463687   -6.709588    0.000000    1.000000
   369  Na    c    11.123281    0.007501    6.709588    0.000000    1.000000
   370  Na    c    11.123281    0.007501   -6.709588    0.000000    1.000000
   371  Na    c    -6.652092    4.463687    6.709588    0.000000    1.000000
   372  Na    c    -6.652092    4.463687   -6.709588    0.000000    1.000000
   373  Na    c    -6.652092    0.007501    6.709588    0.000000    1.000000
   374  Na    c    -6.652092    0.007501   -6.709588    0.000000    1.000000
   375  Na    c     8.940499   11.163262   -2.274121    0.000000    1.000000
   376  Na    c     8.940499   11.163262    2.274121    0.000000    1.000000
   377  Na    c     8.940499   -6.692074   -2.274121    0.000000    1.000000
   378  Na    c     8.940499   -6.692074    2.274121    0.000000    1.000000
   379  Na    c    -4.469310   11.163262   -2.274121    0.000000    1.000000
   380  Na    c    -4.469310   11.163262    2.274121    0.000000    1.000000
   381  Na    c    -4.469310   -6.692074   -2.274121    0.000000    1.000000
   382  Na    c    -4.469310   -6.692074    2.274121    0.000000    1.000000
   383  Na    c    11.163262    8.940499   -2.274121    0.000000    1.000000
   384  Na    c    11.163262    8.940499    2.274121    0.000000    1.000000
   385  Na    c    11.163262   -4.469310   -2.274121    0.000000    1.000000
   386  Na    c    11.163262   -4.469310    2.274121    0.000000    1.000000
   387  Na    c    -6.692074    8.940499   -2.274121    0.000000    1.000000
   388  Na    c    -6.692074    8.940499    2.274121    0.000000    1.000000
   389  Na    c    -6.692074   -4.469310   -2.274121    0.000000    1.000000
   390  Na    c    -6.692074   -4.469310    2.274121    0.000000    1.000000
   391  O     c     2.235594    6.727899   11.170524    0.000000    0.183000
   392  O     c     2.235594    6.727899  -11.170524    0.000000    0.183000
   393  O     c     2.235594   -2.256710   11.170524    0.000000    0.183000
   394  O     c     2.235594   -2.256710  -11.170524    0.000000    0.183000
   395  O     c     6.727899    2.235594   11.170524    0.000000    0.183000
   396  O     c     6.727899    2.235594  -11.170524    0.000000    0.183000
   397  O     c    -2.256710    2.235594   11.170524    0.000000    0.183000
   398  O     c    -2.256710    2.235594  -11.170524    0.000000    0.183000
   399  O     c     6.704299   11.184868    6.691986    0.000000    0.183000
   400  O     c     6.704299   11.184868   -6.691986    0.000000    0.183000
   401  O     c     6.704299   -6.713679    6.691986    0.000000    0.183000
   402  O     c     6.704299   -6.713679   -6.691986    0.000000    0.183000
   403  O     c    11.184868    6.704299    6.691986    0.000000    0.183000
   404  O     c    11.184868    6.704299   -6.691986    0.000000    0.183000
   405  O     c    11.184868   -2.233111    6.691986    0.000000    0.183000
   406  O     c    11.184868   -2.233111   -6.691986    0.000000    0.183000
   407  O     c    -2.233111   11.184868    6.691986    0.000000    0.183000
   408  O     c    -2.233111   11.184868   -6.691986    0.000000    0.183000
   409  O     c    -2.233111   -6.713679    6.691986    0.000000    0.183000
   410  O     c    -2.233111   -6.713679   -6.691986    0.000000    0.183000
   411  O     c    -6.713679    6.704299    6.691986    0.000000    0.183000
   412  O     c    -6.713679    6.704299   -6.691986    0.000000    0.183000
   413  O     c    -6.713679   -2.233111    6.691986    0.000000    0.183000
   414  O     c    -6.713679   -2.233111   -6.691986    0.000000    0.183000
   415  Cl    c     4.486418   13.423255    4.484488    0.000000    1.485000
   416  Cl    c     4.486418   13.423255   -4.484488    0.000000    1.485000
   417  Cl    c     4.486418   -8.952067    4.484488    0.000000    1.485000
   418  Cl    c     4.486418   -8.952067   -4.484488    0.000000    1.485000
   419  Cl    c    13.423255    4.486418    4.484488    0.000000    1.485000
   420  Cl    c    13.423255    4.486418   -4.484488    0.000000    1.485000
   421  Cl    c    13.423255   -0.015229    4.484488    0.000000    1.485000
   422  Cl    c    13.423255   -0.015229   -4.484488    0.000000    1.485000
   423  Cl    c    -0.015229   13.423255    4.484488    0.000000    1.485000
   424  Cl    c    -0.015229   13.423255   -4.484488    0.000000    1.485000
   425  Cl    c    -0.015229   -8.952067    4.484488    0.000000    1.485000
   426  Cl    c    -0.015229   -8.952067   -4.484488    0.000000    1.485000
   427  Cl    c    -8.952067    4.486418    4.484488    0.000000    1.485000
   428  Cl    c    -8.952067    4.486418   -4.484488    0.000000    1.485000
   429  Cl    c    -8.952067   -0.015229    4.484488    0.000000    1.485000
   430  Cl    c    -8.952067   -0.015229   -4.484488    0.000000    1.485000
   431  Na    c     4.481142    6.693222   11.117060    0.000000    1.000000
   432  Na    c     4.481142    6.693222  -11.117060    0.000000    1.000000
   433  Na    c     4.481142   -2.222033   11.117060    0.000000    1.000000
   434  Na    c     4.481142   -2.222033  -11.117060    0.000000    1.000000
   435  Na    c    -0.009954    6.693222   11.117060    0.000000    1.000000
   436  Na    c    -0.009954    6.693222  -11.117060    0.000000    1.000000
   437  Na    c    -0.009954   -2.222033   11.117060    0.000000    1.000000
   438  Na    c    -0.009954   -2.222033  -11.117060    0.000000    1.000000
   439  Na    c     6.693222    4.481142   11.117060    0.000000    1.000000
   440  Na    c     6.693222    4.481142  -11.117060    0.000000    1.000000
   441  Na    c     6.693222   -0.009954   11.117060    0.000000    1.000000
   442  Na    c     6.693222   -0.009954  -11.117060    0.000000    1.000000
   443  Na    c    -2.222033    4.481142   11.117060    0.000000    1.000000
   444  Na    c    -2.222033    4.481142  -11.117060    0.000000    1.000000
   445  Na    c    -2.222033   -0.009954   11.117060    0.000000    1.000000
   446  Na    c    -2.222033   -0.009954  -11.117060    0.000000    1.000000
   447  Na    c    13.401952    6.715587   -2.073669    0.000000    1.000000
   448  Na    c    13.401952    6.715587    2.073669    0.000000    1.000000
   449  Na    c    13.401952   -2.244398   -2.073669    0.000000    1.000000
   450  Na    c    13.401952   -2.244398    2.073669    0.000000    1.000000
   451  Na    c    -8.930763    6.715587   -2.073669    0.000000    1.000000
   452  Na    c    -8.930763    6.715587    2.073669    0.000000    1.000000
   453  Na    c    -8.930763   -2.244398   -2.073669    0.000000    1.000000
   454  Na    c    -8.930763   -2.244398    2.073669    0.000000    1.000000
   455  Na    c     6.715587   13.401952   -2.073669    0.000000    1.000000
   456  Na    c     6.715587   13.401952    2.073669    0.000000    1.000000
   457  Na    c     6.715587   -8.930763   -2.073669    0.000000    1.000000
[...]
     17 y          6.706783      6.709372     0.002589    Cartesian    0.04
     17 z          6.706783      6.693241    -0.013542    Cartesian   -0.20
     18 x          4.471189      4.508950     0.037761    Cartesian    0.84
     18 y          8.942377      8.973518     0.031140    Cartesian    0.35
     18 z          4.471189      4.471881     0.000692    Cartesian    0.02
     19 x          4.471189      4.464949    -0.006240    Cartesian   -0.14
     19 y          6.706783      6.694285    -0.012498    Cartesian   -0.19
     19 z          6.706783      6.771805     0.065022    Cartesian    0.97
     20 x          8.942377      8.937128    -0.005250    Cartesian   -0.06
     20 y          6.706783      6.701356    -0.005427    Cartesian   -0.08
     20 z         -2.235594     -2.524149    -0.288555    Cartesian   12.91
     21 x          2.235594      2.235594     0.000000    Cartesian    0.00
     21 y          2.235594      2.235594     0.000000    Cartesian    0.00
     21 z          8.942377      8.993799     0.051422    Cartesian    0.58
     22 x          2.235594      2.235594     0.000000    Cartesian    0.00
     22 y         11.177972     10.767431    -0.410540    Cartesian   -3.67
     22 z          0.000000      0.000000     0.000000    Cartesian    0.00
     23 x          2.235594      2.235594     0.000000    Cartesian    0.00
     23 y         11.177972     11.155851    -0.022121    Cartesian   -0.20
     23 z         -2.235594     -2.230033     0.005561    Cartesian   -0.25
     24 x          6.706783      6.718568     0.011785    Cartesian    0.18
     24 y          6.706783      6.718568     0.011785    Cartesian    0.18
     24 z          6.706783      6.684385    -0.022398    Cartesian   -0.33
     25 x          4.471189      4.464262    -0.006927    Cartesian   -0.15
     25 y          4.471189      4.464262    -0.006927    Cartesian   -0.15
     25 z          8.942377      8.970168     0.027791    Cartesian    0.31
     26 x          8.942377      8.995380     0.053002    Cartesian    0.59
     26 y          8.942377      8.995380     0.053002    Cartesian    0.59
     26 z          0.000000      0.000000     0.000000    Cartesian    0.00
     27 x          4.471189      4.468407    -0.002782    Cartesian   -0.06
     27 y         11.177972     11.134299    -0.043673    Cartesian   -0.39
     27 z         -2.235594     -2.194832     0.040762    Cartesian   -1.82
     28 x          8.942377      8.925150    -0.017227    Cartesian   -0.19
     28 y          2.235594      2.235594     0.000000    Cartesian    0.00
     28 z          6.706783      6.367165    -0.339618    Cartesian   -5.06
     29 x          2.235594      2.235594     0.000000    Cartesian    0.00
     29 y          6.706783      6.906686     0.199903    Cartesian    2.98
     29 z          8.942377      8.927136    -0.015242    Cartesian   -0.17
     30 x          2.235594      2.235594     0.000000    Cartesian    0.00
     30 y         11.177972     11.536004     0.358032    Cartesian    3.20
     30 z          4.471189      4.449815    -0.021374    Cartesian   -0.48
     31 x          6.706783      6.764230     0.057447    Cartesian    0.86
     31 y         11.177972     10.900527    -0.277444    Cartesian   -2.48
     31 z          0.000000      0.000000     0.000000    Cartesian    0.00
     32 x          6.706783      6.707703     0.000920    Cartesian    0.01
     32 y         11.177972     11.171362    -0.006609    Cartesian   -0.06
     32 z         -2.235594     -2.236576    -0.000982    Cartesian    0.04
     33 x          8.942377      8.970186     0.027809    Cartesian    0.31
     33 y          8.942377      8.970186     0.027809    Cartesian    0.31
     33 z          4.471189      4.465873    -0.005316    Cartesian   -0.12
     34 x          8.942377      8.947182     0.004805    Cartesian    0.05
     34 y          6.706783      6.721650     0.014867    Cartesian    0.22
     34 z          6.706783      6.488911    -0.217872    Cartesian   -3.25
     35 x          6.706783      6.835508     0.128725    Cartesian    1.92
     35 y          6.706783      6.835508     0.128725    Cartesian    1.92
     35 z          8.942377      8.911135    -0.031242    Cartesian   -0.35
     36 x          6.706783      6.654100    -0.052683    Cartesian   -0.79
     36 y         11.177972     11.421402     0.243430    Cartesian    2.18
     36 z          4.471189      4.465022    -0.006167    Cartesian   -0.14
     37 x          2.235594      2.235594     0.000000    Cartesian    0.00
     37 y          2.235594      2.235594     0.000000    Cartesian    0.00
     37 z         11.177972     11.186760     0.008788    Cartesian    0.08
     38 x          2.235594      2.235594     0.000000    Cartesian    0.00
     38 y         11.177972     11.174645    -0.003327    Cartesian   -0.03
     38 z          6.706783      6.674464    -0.032319    Cartesian   -0.48
     39 x          4.471189      4.477621     0.006433    Cartesian    0.14
     39 y         13.413566     13.480770     0.067204    Cartesian    0.50
     39 z          0.000000      0.000000     0.000000    Cartesian    0.00
     40 x          4.471189      4.490049     0.018861    Cartesian    0.42
     40 y          2.235594      2.235594     0.000000    Cartesian    0.00
     40 z         11.177972     11.139158    -0.038813    Cartesian   -0.35
     41 x         13.413566     13.400135    -0.013431    Cartesian   -0.10
     41 y          2.235594      2.235594     0.000000    Cartesian    0.00
     41 z         -2.235594     -1.960993     0.274601    Cartesian  -12.28
     42 x          4.471189      4.472954     0.001766    Cartesian    0.04
     42 y          8.942377      8.953641     0.011264    Cartesian    0.13
     42 z          8.942377      8.983950     0.041573    Cartesian    0.46
     43 x          4.471189      4.463687    -0.007501    Cartesian   -0.17
     43 y         11.177972     11.123281    -0.054691    Cartesian   -0.49
     43 z          6.706783      6.709588     0.002805    Cartesian    0.04
     44 x          8.942377      8.940499    -0.001879    Cartesian   -0.02
     44 y         11.177972     11.163262    -0.014709    Cartesian   -0.13
     44 z         -2.235594     -2.274121    -0.038527    Cartesian    1.72
     45 x          2.235594      2.235594     0.000000    Cartesian    0.00
     45 y          6.706783      6.727899     0.021116    Cartesian    0.31
     45 z         11.177972     11.170524    -0.007448    Cartesian   -0.07
     46 x          6.706783      6.704299    -0.002484    Cartesian   -0.04
     46 y         11.177972     11.184868     0.006896    Cartesian    0.06
     46 z          6.706783      6.691986    -0.014797    Cartesian   -0.22
     47 x          4.471189      4.486418     0.015229    Cartesian    0.34
     47 y         13.413566     13.423255     0.009689    Cartesian    0.07
     47 z          4.471189      4.484488     0.013300    Cartesian    0.30
     48 x          4.471189      4.481142     0.009954    Cartesian    0.22
     48 y          6.706783      6.693222    -0.013561    Cartesian   -0.20
     48 z         11.177972     11.117060    -0.060912    Cartesian   -0.54
     49 x         13.413566     13.401952    -0.011614    Cartesian   -0.09
     49 y          6.706783      6.715587     0.008804    Cartesian    0.13
     49 z         -2.235594     -2.073669     0.161926    Cartesian   -7.24
     50 x          2.235594      2.235594     0.000000    Cartesian    0.00
     50 y         11.177972     11.005721    -0.172251    Cartesian   -1.54
     50 z          8.942377      8.927518    -0.014859    Cartesian   -0.17
     51 x         11.177972     11.149645    -0.028326    Cartesian   -0.25
     51 y         11.177972     11.149645    -0.028326    Cartesian   -0.25
     51 z          0.000000      0.000000     0.000000    Cartesian    0.00
     52 x          6.706783      6.720767     0.013984    Cartesian    0.21
     52 y          6.706783      6.720767     0.013984    Cartesian    0.21
     52 z         11.177972     11.170019    -0.007953    Cartesian   -0.07
     53 x         11.177972     11.180464     0.002492    Cartesian    0.02
     53 y         11.177972     11.180464     0.002492    Cartesian    0.02
     53 z         -2.235594     -2.234938     0.000656    Cartesian   -0.03
     54 x          8.942377      8.921983    -0.020395    Cartesian   -0.23
     54 y         13.413566     13.471684     0.058118    Cartesian    0.43
     54 z          0.000000      0.000000     0.000000    Cartesian    0.00
     55 x          8.942377      8.943281     0.000904    Cartesian    0.01
     55 y          2.235594      2.235594     0.000000    Cartesian    0.00
     55 z         11.177972     11.259721     0.081750    Cartesian    0.73
     56 x         13.413566     13.403672    -0.009894    Cartesian   -0.07
     56 y          2.235594      2.235594     0.000000    Cartesian    0.00
     56 z          6.706783      6.852306     0.145523    Cartesian    2.17
     57 x          8.942377      8.957247     0.014870    Cartesian    0.17
     57 y          8.942377      8.957247     0.014870    Cartesian    0.17
     57 z          8.942377      8.975424     0.033047    Cartesian    0.37
     58 x          8.942377      8.939004    -0.003373    Cartesian   -0.04
     58 y         11.177972     11.183432     0.005460    Cartesian    0.05
     58 z          6.706783      6.689167    -0.017616    Cartesian   -0.26
     59 x          2.235594      2.235594     0.000000    Cartesian    0.00
     59 y        -11.177972    -11.327879    -0.149908    Cartesian    1.34
     59 z          0.000000      0.000000     0.000000    Cartesian    0.00
     60 x          2.235594      2.235594     0.000000    Cartesian    0.00
     60 y          2.235594      2.235594     0.000000    Cartesian    0.00
     60 z         13.413566     13.403320    -0.010246    Cartesian   -0.08
     61 x          6.706783      6.710671     0.003888    Cartesian    0.06
     61 y         11.177972     11.072350    -0.105622    Cartesian   -0.94
     61 z          8.942377      8.932777    -0.009600    Cartesian   -0.11
     62 x         11.177972     11.187941     0.009970    Cartesian    0.09
     62 y         11.177972     11.187941     0.009970    Cartesian    0.09
     62 z          4.471189      4.473328     0.002139    Cartesian    0.05
     63 x          2.235594      2.235594     0.000000    Cartesian    0.00
     63 y        -11.177972    -11.182394    -0.004423    Cartesian    0.04
     63 z         -2.235594     -2.220399     0.015196    Cartesian   -0.68
     64 x          4.471189      4.471396     0.000207    Cartesian    0.00
     64 y        -11.177972    -11.135123     0.042849    Cartesian   -0.38
     64 z         -2.235594     -2.258984    -0.023390    Cartesian    1.05
     65 x          8.942377      8.972927     0.030550    Cartesian    0.34
     65 y         13.413566     13.411228    -0.002338    Cartesian   -0.02
     65 z          4.471189      4.475422     0.004233    Cartesian    0.09
     66 x          8.942377      8.942175    -0.000202    Cartesian   -0.00
     66 y          6.706783      6.692272    -0.014511    Cartesian   -0.22
     66 z         11.177972     11.209308     0.031337    Cartesian    0.28
     67 x         13.413566     13.411408    -0.002158    Cartesian   -0.02
     67 y          6.706783      6.681926    -0.024857    Cartesian   -0.37
     67 z          6.706783      6.804174     0.097391    Cartesian    1.45
     68 x          4.471189      4.485862     0.014674    Cartesian    0.33
     68 y          4.471189      4.485862     0.014674    Cartesian    0.33
     68 z         13.413566     13.436895     0.023329    Cartesian    0.17
     69 x          2.235594      2.235594     0.000000    Cartesian    0.00
     69 y          2.235594      2.235594     0.000000    Cartesian    0.00
     69 z         -2.235594     -2.305348    -0.069754    Cartesian    3.12
     70 x          4.471189      4.574214     0.103025    Cartesian    2.30
     70 y          4.471189      4.574214     0.103025    Cartesian    2.30
     70 z          0.000000      0.000000     0.000000    Cartesian    0.00
     71 x          2.235594      2.235594     0.000000    Cartesian    0.00
     71 y          6.706783      6.691940    -0.014843    Cartesian   -0.22
     71 z         -2.235594     -2.201497     0.034098    Cartesian   -1.53
     72 x          4.471189      4.527776     0.056587    Cartesian    1.27
     72 y          4.471189      4.527776     0.056587    Cartesian    1.27
     72 z          4.471189      4.642966     0.171777    Cartesian    3.84
     73 x          2.235594      2.235594     0.000000    Cartesian    0.00
     73 y          2.235594      2.235594     0.000000    Cartesian    0.00
     73 z          6.706783      6.787036     0.080253    Cartesian    1.20
     74 x          6.706783      6.715862     0.009080    Cartesian    0.14
     74 y          6.706783      6.715862     0.009080    Cartesian    0.14
     74 z         -2.235594     -2.260398    -0.024804    Cartesian    1.11
     75 x          4.471189      4.477052     0.005864    Cartesian    0.13
     75 y          8.942377      8.946042     0.003665    Cartesian    0.04
     75 z          0.000000      0.000000     0.000000    Cartesian    0.00
     76 x          2.235594      2.235594     0.000000    Cartesian    0.00
     76 y          6.706783      6.709348     0.002565    Cartesian    0.04
     76 z          6.706783      6.693307    -0.013476    Cartesian   -0.20
     77 x          4.471189      4.509522     0.038333    Cartesian    0.86
     77 y          8.942377      8.976591     0.034213    Cartesian    0.38
     77 z          4.471189      4.469619    -0.001570    Cartesian   -0.04
     78 x          2.235594      2.235594     0.000000    Cartesian    0.00
     78 y         11.177972     11.155870    -0.022102    Cartesian   -0.20
     78 z         -2.235594     -2.230055     0.005539    Cartesian   -0.25
     79 x          6.706783      6.718560     0.011777    Cartesian    0.18
     79 y          6.706783      6.718560     0.011777    Cartesian    0.18
     79 z          6.706783      6.684355    -0.022428    Cartesian   -0.33
     80 x          4.471189      4.460865    -0.010324    Cartesian   -0.23
     80 y          4.471189      4.460865    -0.010324    Cartesian   -0.23
     80 z          8.942377      8.969813     0.027436    Cartesian    0.31
     81 x          8.942377      8.996265     0.053887    Cartesian    0.60
     81 y          8.942377      8.996265     0.053887    Cartesian    0.60
     81 z          0.000000      0.000000     0.000000    Cartesian    0.00
     82 x          6.706783      6.707710     0.000927    Cartesian    0.01
     82 y         11.177972     11.171370    -0.006601    Cartesian   -0.06
     82 z         -2.235594     -2.236606    -0.001012    Cartesian    0.05
     83 x          8.942377      8.967227     0.024849    Cartesian    0.28
     83 y          8.942377      8.967227     0.024849    Cartesian    0.28
     83 z          4.471189      4.462672    -0.008517    Cartesian   -0.19
     84 x          2.235594      2.235594     0.000000    Cartesian    0.00
     84 y          2.235594      2.235594     0.000000    Cartesian    0.00
     84 z         11.177972     11.186701     0.008729    Cartesian    0.08
     85 x          2.235594      2.235594     0.000000    Cartesian    0.00
     85 y         11.177972     11.174695    -0.003276    Cartesian   -0.03
     85 z          6.706783      6.674457    -0.032326    Cartesian   -0.48
     86 x          4.471189      4.475245     0.004056    Cartesian    0.09
     86 y         13.413566     13.489895     0.076329    Cartesian    0.57
     86 z          0.000000      0.000000     0.000000    Cartesian    0.00
     87 x          4.471189      4.469979    -0.001209    Cartesian   -0.03
     87 y          8.942377      8.955122     0.012744    Cartesian    0.14
     87 z          8.942377      8.989877     0.047500    Cartesian    0.53
     88 x          2.235594      2.235594     0.000000    Cartesian    0.00
     88 y          6.706783      6.727936     0.021153    Cartesian    0.32
     88 z         11.177972     11.170525    -0.007447    Cartesian   -0.07
     89 x          6.706783      6.704298    -0.002485    Cartesian   -0.04
     89 y         11.177972     11.184898     0.006926    Cartesian    0.06
     89 z          6.706783      6.691972    -0.014811    Cartesian   -0.22
     90 x          4.471189      4.487616     0.016427    Cartesian    0.37
     90 y         13.413566     13.416145     0.002579    Cartesian    0.02
     90 z          4.471189      4.486412     0.015224    Cartesian    0.34
     91 x          6.706783      6.720793     0.014010    Cartesian    0.21
     91 y          6.706783      6.720793     0.014010    Cartesian    0.21
     91 z         11.177972     11.170036    -0.007935    Cartesian   -0.07
     92 x         11.177972     11.180463     0.002492    Cartesian    0.02
     92 y         11.177972     11.180463     0.002492    Cartesian    0.02
     92 z         -2.235594     -2.234949     0.000645    Cartesian   -0.03
     93 x          8.942377      8.916416    -0.025962    Cartesian   -0.29
     93 y         13.413566     13.479401     0.065835    Cartesian    0.49
     93 z          0.000000      0.000000     0.000000    Cartesian    0.00
     94 x          8.942377      8.956308     0.013930    Cartesian    0.16
     94 y          8.942377      8.956308     0.013930    Cartesian    0.16
     94 z          8.942377      8.980833     0.038455    Cartesian    0.43
     95 x          2.235594      2.235594     0.000000    Cartesian    0.00
     95 y        -11.177972    -11.182443    -0.004472    Cartesian    0.04
     95 z         -2.235594     -2.220347     0.015248    Cartesian   -0.68
     96 x          8.942377      8.975324     0.032947    Cartesian    0.37
     96 y         13.413566     13.408239    -0.005327    Cartesian   -0.04
     96 z          4.471189      4.475998     0.004810    Cartesian    0.11
     97 x          4.471189      4.486994     0.015805    Cartesian    0.35
     97 y          4.471189      4.486994     0.015805    Cartesian    0.35
     97 z         13.413566     13.440571     0.027005    Cartesian    0.20
--------------------------------------------------------------------------------


  Time to end of optimisation  =       62.0367 seconds


  Peak dynamic memory used =     141.21 MB 


  Timing analysis for GULP :

--------------------------------------------------------------------------------
  Task / Subroutine                                          Time (Seconds)
--------------------------------------------------------------------------------
  Calculation of reciprocal space energy and derivatives          0.0004
  Calculation of reciprocal space energy using symmetry           0.0005
  Calculation of real space energy and derivatives                0.0021
  Calculation of real space energy using symmetry                 0.0048
  Calculation for region 1 energy and derivatives (2-b)          26.1431
  Calculation for region 2a energy                               35.0244
  Calculation for region 2b energy                                0.0003
  Calculation and manipulation of Hessian matrix                  0.6092
  Calculation of matrix inversion                                 0.0350
  Symmetry generation of equivalent positions                     0.0026
--------------------------------------------------------------------------------
  Total CPU time                                                 62.0368
--------------------------------------------------------------------------------


  Dump file written as Na3OCl.grs


  Job Finished at 14:14.48  3rd January    2021                               

