********************************************************************************
*                       GENERAL UTILITY LATTICE PROGRAM                        *
*                                 Julian Gale                                  *
*                       Curtin Institute for Computation                       *
*                    School of Molecular and Life Sciences                     *
*                    Curtin University, Western Australia                      *
********************************************************************************
* Version = 5.2.0 * Last modified =  10th September 2020                       *
********************************************************************************
*  optimise     - perform optimisation run                                     *
*  conp         - constant pressure calculation                                *
*  property     - calculate properties for final geometry                      *
*  defect       - perform defect calculation after bulk run                    *
*  compare      - compare initial and final structures                         *
********************************************************************************

  Job Started  at 16:52.46  4th February   2021                               

  Number of CPUs =     1


  Total number of configurations input =      1

********************************************************************************
*  Input for Configuration =   1                                               *
********************************************************************************

  Formula = O8Cl8Na24                                                   

  Number of irreducible atoms/shells =      56


  Total number atoms/shells =      56

  Dimensionality = 3               :  Bulk   



  Supercell dimensions :  x =   2  y =   2  z =   2

  Cartesian lattice vectors (Angstroms) :

        9.008000    0.000000    0.000000
        0.000000    9.008000    0.000000
        0.000000    0.000000    9.008000

  Cell parameters (Angstroms/Degrees):

  a =       9.0080    alpha =  90.0000
  b =       9.0080    beta  =  90.0000
  c =       9.0080    gamma =  90.0000

  Initial cell volume =         730.945729 Angs**3

  Temperature of configuration =   0.00     K 

  Pressure of configuration =         0.000 GPa 

  Fractional coordinates of asymmetric unit :

--------------------------------------------------------------------------------
   No.  Atomic       x           y          z         Charge      Occupancy
        Label      (Frac)      (Frac)     (Frac)        (e)         (Frac)  
--------------------------------------------------------------------------------
      1 O     c    0.000000    0.000000    0.000000     0.18300    1.000000    
      2 O     c    0.000000 *  0.000000 *  0.500000 *   0.18300    1.000000    
      3 O     c    0.000000 *  0.500000 *  0.000000 *   0.18300    1.000000    
      4 O     c    0.000000 *  0.500000 *  0.500000 *   0.18300    1.000000    
      5 O     c    0.500000 *  0.000000 *  0.000000 *   0.18300    1.000000    
      6 O     c    0.500000 *  0.000000 *  0.500000 *   0.18300    1.000000    
      7 O     c    0.500000 *  0.500000 *  0.000000 *   0.18300    1.000000    
      8 O     c    0.500000 *  0.500000 *  0.500000 *   0.18300    1.000000    
      9 Cl    c    0.250000 *  0.250000 *  0.250000 *   1.48500    1.000000    
     10 Cl    c    0.250000 *  0.250000 *  0.750000 *   1.48500    1.000000    
     11 Cl    c    0.250000 *  0.750000 *  0.250000 *   1.48500    1.000000    
     12 Cl    c    0.250000 *  0.750000 *  0.750000 *   1.48500    1.000000    
     13 Cl    c    0.750000 *  0.250000 *  0.250000 *   1.48500    1.000000    
     14 Cl    c    0.750000 *  0.250000 *  0.750000 *   1.48500    1.000000    
     15 Cl    c    0.750000 *  0.750000 *  0.250000 *   1.48500    1.000000    
     16 Cl    c    0.750000 *  0.750000 *  0.750000 *   1.48500    1.000000    
     17 Na    c    0.250000 *  0.000000 *  0.000000 *   1.00000    1.000000    
     18 Na    c    0.250000 *  0.000000 *  0.500000 *   1.00000    1.000000    
     19 Na    c    0.250000 *  0.500000 *  0.000000 *   1.00000    1.000000    
     20 Na    c    0.250000 *  0.500000 *  0.500000 *   1.00000    1.000000    
     21 Na    c    0.750000 *  0.000000 *  0.000000 *   1.00000    1.000000    
     22 Na    c    0.750000 *  0.000000 *  0.500000 *   1.00000    1.000000    
     23 Na    c    0.750000 *  0.500000 *  0.000000 *   1.00000    1.000000    
     24 Na    c    0.750000 *  0.500000 *  0.500000 *   1.00000    1.000000    
     25 Na    c    0.000000 *  0.250000 *  0.000000 *   1.00000    1.000000    
     26 Na    c    0.000000 *  0.250000 *  0.500000 *   1.00000    1.000000    
     27 Na    c    0.000000 *  0.750000 *  0.000000 *   1.00000    1.000000    
     28 Na    c    0.000000 *  0.750000 *  0.500000 *   1.00000    1.000000    
     29 Na    c    0.500000 *  0.250000 *  0.000000 *   1.00000    1.000000    
     30 Na    c    0.500000 *  0.250000 *  0.500000 *   1.00000    1.000000    
     31 Na    c    0.500000 *  0.750000 *  0.000000 *   1.00000    1.000000    
     32 Na    c    0.500000 *  0.750000 *  0.500000 *   1.00000    1.000000    
     33 Na    c    0.000000 *  0.000000 *  0.250000 *   1.00000    1.000000    
     34 Na    c    0.000000 *  0.000000 *  0.750000 *   1.00000    1.000000    
     35 Na    c    0.000000 *  0.500000 *  0.250000 *   1.00000    1.000000    
     36 Na    c    0.000000 *  0.500000 *  0.750000 *   1.00000    1.000000    
     37 Na    c    0.500000 *  0.000000 *  0.250000 *   1.00000    1.000000    
     38 Na    c    0.500000 *  0.000000 *  0.750000 *   1.00000    1.000000    
     39 Na    c    0.500000 *  0.500000 *  0.250000 *   1.00000    1.000000    
     40 Na    c    0.500000 *  0.500000 *  0.750000 *   1.00000    1.000000    
     41 O     s    0.000000 *  0.000000 *  0.000000 *  -2.18300    1.000000    
     42 O     s    0.000000 *  0.000000 *  0.500000 *  -2.18300    1.000000    
     43 O     s    0.000000 *  0.500000 *  0.000000 *  -2.18300    1.000000    
     44 O     s    0.000000 *  0.500000 *  0.500000 *  -2.18300    1.000000    
     45 O     s    0.500000 *  0.000000 *  0.000000 *  -2.18300    1.000000    
     46 O     s    0.500000 *  0.000000 *  0.500000 *  -2.18300    1.000000    
     47 O     s    0.500000 *  0.500000 *  0.000000 *  -2.18300    1.000000    
     48 O     s    0.500000 *  0.500000 *  0.500000 *  -2.18300    1.000000    
     49 Cl    s    0.250000 *  0.250000 *  0.250000 *  -2.48500    1.000000    
     50 Cl    s    0.250000 *  0.250000 *  0.750000 *  -2.48500    1.000000    
     51 Cl    s    0.250000 *  0.750000 *  0.250000 *  -2.48500    1.000000    
     52 Cl    s    0.250000 *  0.750000 *  0.750000 *  -2.48500    1.000000    
     53 Cl    s    0.750000 *  0.250000 *  0.250000 *  -2.48500    1.000000    
     54 Cl    s    0.750000 *  0.250000 *  0.750000 *  -2.48500    1.000000    
     55 Cl    s    0.750000 *  0.750000 *  0.250000 *  -2.48500    1.000000    
     56 Cl    s    0.750000 *  0.750000 *  0.750000 *  -2.48500    1.000000    
--------------------------------------------------------------------------------



********************************************************************************
*  General input information                                                   *
********************************************************************************

  Species output for all configurations : 

--------------------------------------------------------------------------------
  Species    Type    Atomic    Atomic    Charge       Radii (Angs)     Library
                     Number     Mass       (e)     Cova   Ionic  VDW   Symbol
--------------------------------------------------------------------------------
    Na       Core       11      22.99   1.000000   0.970  0.000  2.300          
    O        Core        8      16.00   0.183000   0.730  0.000  1.360          
    O        Shell       8       0.00  -2.183000   0.730  0.000  1.360          
    Cl       Core       17      35.45   1.485000   0.990  0.000  1.650          
    Cl       Shell      17       0.00  -2.485000   0.990  0.000  1.650          
    Mg       Core       12      24.31   0.415000   1.100  0.000  0.000          
    Mg       Shell      12       0.00   1.585000   1.100  0.000  0.000          
    Ca       Core       20      40.08  -1.135000   0.990  0.000  0.000          
    Ca       Shell      20       0.00   3.135000   0.990  0.000  0.000          
    Sr       Core       38      87.62  -1.251000   1.120  0.000  0.000          
    Sr       Shell      38       0.00   3.251000   1.120  0.000  0.000          
    Ba       Core       56     137.33  -7.203000   1.340  0.000  0.000          
    Ba       Shell      56       0.00   9.203000   1.340  0.000  0.000          
--------------------------------------------------------------------------------


  Lattice summation method               =    Ewald          (3-D)
                                         =    Parry          (2-D)
                                         =    Saunders et al (1-D)
  Accuracy factor for lattice sums       =   12.000


  Analytic derivatives to be used

  Time limit = Infinity

  Maximum range for interatomic potentials =    100000.000000 Angstroms

  General interatomic potentials :

--------------------------------------------------------------------------------
Atom  Types   Potential      Parameter       Value         Units   Cutoffs(Ang)
  1     2                                                            Min /  Max 
--------------------------------------------------------------------------------
O    c O    s Spring (c-s)  Spring k 2       593.71600    eV*Ang^-2 0.000  0.800
                            Spring k 4       0.0000000    eV*Ang^-4 
--------------------------------------------------------------------------------
Cl   c Cl   s Spring (c-s)  Spring k 2       29.380000    eV*Ang^-2 0.000  0.800
                            Spring k 4       0.0000000    eV*Ang^-4 
--------------------------------------------------------------------------------
Mg   c Mg   s Spring (c-s)  Spring k 2       361.60000    eV*Ang^-2 0.000  0.800
                            Spring k 4       0.0000000    eV*Ang^-4 
--------------------------------------------------------------------------------
Ca   c Ca   s Spring (c-s)  Spring k 2       110.20000    eV*Ang^-2 0.000  0.800
                            Spring k 4       0.0000000    eV*Ang^-4 
--------------------------------------------------------------------------------
Sr   c Sr   s Spring (c-s)  Spring k 2       71.700000    eV*Ang^-2 0.000  0.800
                            Spring k 4       0.0000000    eV*Ang^-4 
--------------------------------------------------------------------------------
Ba   c Ba   s Spring (c-s)  Spring k 2       495.20000    eV*Ang^-2 0.000  0.800
                            Spring k 4       0.0000000    eV*Ang^-4 
--------------------------------------------------------------------------------
Na   c Na   c Buckingham    Buckingham A     1788.1900    eV        0.000 12.000
                            Buckingham rho  0.15900000    Ang       
                            Buckingham C     0.0000000    eV*Ang^6  
--------------------------------------------------------------------------------
Na   c O    s Buckingham    Buckingham A     588.38000    eV        0.000 12.000
                            Buckingham rho  0.33800000    Ang       
                            Buckingham C     0.0000000    eV*Ang^6  
--------------------------------------------------------------------------------
Na   c Cl   s Buckingham    Buckingham A     1170.4100    eV        0.000 12.000
                            Buckingham rho  0.31500000    Ang       
                            Buckingham C     0.0000000    eV*Ang^6  
--------------------------------------------------------------------------------
O    s O    s Buckingham    Buckingham A     22764.300    eV        0.000 12.000
                            Buckingham rho  0.14900000    Ang       
                            Buckingham C     13.190000    eV*Ang^6  
--------------------------------------------------------------------------------
O    s Cl   s Buckingham    Buckingham A     8286.9100    eV        0.000 12.000
                            Buckingham rho  0.25900000    Ang       
                            Buckingham C     62.200000    eV*Ang^6  
--------------------------------------------------------------------------------
Cl   s Cl   s Buckingham    Buckingham A     1227.2000    eV        0.000 12.000
                            Buckingham rho  0.32100000    Ang       
                            Buckingham C     14.530000    eV*Ang^6  
--------------------------------------------------------------------------------
O    s Mg   s Buckingham    Buckingham A     1428.5000    eV        0.000 12.000
                            Buckingham rho  0.29450000    Ang       
                            Buckingham C     0.0000000    eV*Ang^6  
--------------------------------------------------------------------------------
Mg   s Cl   s Buckingham    Buckingham A     4914.5400    eV        0.000 12.000
                            Buckingham rho  0.25700000    Ang       
                            Buckingham C     0.0000000    eV*Ang^6  
--------------------------------------------------------------------------------
O    s Ca   s Buckingham    Buckingham A     1090.4000    eV        0.000 12.000
                            Buckingham rho  0.34370000    Ang       
                            Buckingham C     0.0000000    eV*Ang^6  
--------------------------------------------------------------------------------
Cl   s Ca   s Buckingham    Buckingham A     2302.0000    eV        0.000 12.000
                            Buckingham rho  0.34020000    Ang       
                            Buckingham C     0.0000000    eV*Ang^6  
--------------------------------------------------------------------------------
O    s Sr   s Buckingham    Buckingham A     959.10000    eV        0.000 12.000
                            Buckingham rho  0.37210000    Ang       
                            Buckingham C     0.0000000    eV*Ang^6  
--------------------------------------------------------------------------------
Cl   s Sr   s Buckingham    Buckingham A     2191.0900    eV        0.000 12.000
                            Buckingham rho  0.34570000    Ang       
                            Buckingham C     0.0000000    eV*Ang^6  
--------------------------------------------------------------------------------
O    s Ba   s Buckingham    Buckingham A     905.70000    eV        0.000 12.000
                            Buckingham rho  0.39760000    Ang       
                            Buckingham C     0.0000000    eV*Ang^6  
--------------------------------------------------------------------------------
Cl   s Ba   s Buckingham    Buckingham A     2704.5500    eV        0.000 12.000
                            Buckingham rho  0.35280000    Ang       
                            Buckingham C     0.0000000    eV*Ang^6  
--------------------------------------------------------------------------------

********************************************************************************
*  Output for configuration   1                                                *
********************************************************************************


  Components of energy : 

--------------------------------------------------------------------------------
  Interatomic potentials     =          39.54523045 eV    
  Monopole - monopole (real) =        -173.49412932 eV    
  Monopole - monopole (recip)=        -143.08233464 eV    
  Monopole - monopole (total)=        -316.57646396 eV    
--------------------------------------------------------------------------------
  Total lattice energy       =        -277.03123351 eV    
--------------------------------------------------------------------------------
  Total lattice energy       =          -26729.2792 kJ/(mole unit cells)
--------------------------------------------------------------------------------


  Number of variables =      171

  Maximum number of calculations  =          1000
  Maximum Hessian update interval =            10
  Maximum step size               =   1.000000000
  Maximum parameter tolerance     =   0.000010000
  Maximum function  tolerance     =   0.000010000
  Maximum gradient  tolerance     =   0.001000000
  Maximum gradient  component     =   0.010000000

  Cell parameters to be optimised using strains

  Newton-Raphson optimiser to be used

  BFGS hessian update to be used

  Lower half triangular hessian to be used

  Start of bulk optimisation :

  Cycle:      0 Energy:      -277.031234  Gnorm:      0.116908  CPU:    0.096
  ** Hessian calculated **
  Cycle:      1 Energy:      -277.421334  Gnorm:      0.001189  CPU:    0.188
  Cycle:      2 Energy:      -277.421371  Gnorm:      0.000099  CPU:    0.301


  **** Optimisation achieved ****


  Final energy =    -277.42137089 eV
  Final Gnorm  =       0.00000000

  Components of energy : 

--------------------------------------------------------------------------------
  Interatomic potentials     =          46.20368827 eV    
  Monopole - monopole (real) =        -177.35698719 eV    
  Monopole - monopole (recip)=        -146.26807197 eV    
  Monopole - monopole (total)=        -323.62505916 eV    
--------------------------------------------------------------------------------
  Total lattice energy       =        -277.42137089 eV    
--------------------------------------------------------------------------------
  Total lattice energy       =          -26766.9215 kJ/(mole unit cells)
--------------------------------------------------------------------------------

  Final fractional coordinates of atoms :

--------------------------------------------------------------------------------
   No.  Atomic        x           y          z          Radius
        Label       (Frac)      (Frac)     (Frac)       (Angs) 
--------------------------------------------------------------------------------
     1  O     c     0.000000    0.000000    0.000000    0.000000
     2  O     c     0.000000    0.000000    0.500000    0.000000
     3  O     c     1.000000    0.500000    1.000000    0.000000
     4  O     c     0.000000    0.500000    0.500000    0.000000
     5  O     c     0.500000    0.000000    1.000000    0.000000
     6  O     c     0.500000    0.000000    0.500000    0.000000
     7  O     c     0.500000    0.500000    1.000000    0.000000
     8  O     c     0.500000    0.500000    0.500000    0.000000
     9  Cl    c     0.250000    0.250000    0.250000    0.000000
    10  Cl    c     0.250000    0.250000    0.750000    0.000000
    11  Cl    c     0.250000    0.750000    0.250000    0.000000
    12  Cl    c     0.250000    0.750000    0.750000    0.000000
    13  Cl    c     0.750000    0.250000    0.250000    0.000000
    14  Cl    c     0.750000    0.250000    0.750000    0.000000
    15  Cl    c     0.750000    0.750000    0.250000    0.000000
    16  Cl    c     0.750000    0.750000    0.750000    0.000000
    17  Na    c     0.250000    0.000000    1.000000    0.000000
    18  Na    c     0.250000    0.000000    0.500000    0.000000
    19  Na    c     0.250000    0.500000    1.000000    0.000000
    20  Na    c     0.250000    0.500000    0.500000    0.000000
    21  Na    c     0.750000    1.000000    0.000000    0.000000
    22  Na    c     0.750000    1.000000    0.500000    0.000000
    23  Na    c     0.750000    0.500000    0.000000    0.000000
    24  Na    c     0.750000    0.500000    0.500000    0.000000
    25  Na    c     1.000000    0.250000    0.000000    0.000000
    26  Na    c     1.000000    0.250000    0.500000    0.000000
    27  Na    c     0.000000    0.750000    1.000000    0.000000
    28  Na    c     0.000000    0.750000    0.500000    0.000000
    29  Na    c     0.500000    0.250000    1.000000    0.000000
    30  Na    c     0.500000    0.250000    0.500000    0.000000
    31  Na    c     0.500000    0.750000    0.000000    0.000000
    32  Na    c     0.500000    0.750000    0.500000    0.000000
    33  Na    c     0.000000    1.000000    0.250000    0.000000
    34  Na    c     1.000000    0.000000    0.750000    0.000000
    35  Na    c     0.000000    0.500000    0.250000    0.000000
    36  Na    c     1.000000    0.500000    0.750000    0.000000
    37  Na    c     0.500000    0.000000    0.250000    0.000000
    38  Na    c     0.500000    1.000000    0.750000    0.000000
    39  Na    c     0.500000    0.500000    0.250000    0.000000
    40  Na    c     0.500000    0.500000    0.750000    0.000000
    41  O     s     0.000000    0.000000    0.000000    0.000000
    42  O     s     0.000000    0.000000    0.500000    0.000000
    43  O     s     1.000000    0.500000    1.000000    0.000000
    44  O     s     0.000000    0.500000    0.500000    0.000000
    45  O     s     0.500000    0.000000    1.000000    0.000000
    46  O     s     0.500000    0.000000    0.500000    0.000000
    47  O     s     0.500000    0.500000    1.000000    0.000000
    48  O     s     0.500000    0.500000    0.500000    0.000000
    49  Cl    s     0.250000    0.250000    0.250000    0.000000
    50  Cl    s     0.250000    0.250000    0.750000    0.000000
    51  Cl    s     0.250000    0.750000    0.250000    0.000000
    52  Cl    s     0.250000    0.750000    0.750000    0.000000
    53  Cl    s     0.750000    0.250000    0.250000    0.000000
    54  Cl    s     0.750000    0.250000    0.750000    0.000000
    55  Cl    s     0.750000    0.750000    0.250000    0.000000
    56  Cl    s     0.750000    0.750000    0.750000    0.000000
--------------------------------------------------------------------------------

  Final Cartesian lattice vectors (Angstroms) :

        8.811805   -0.000000    0.000000
       -0.000000    8.811805   -0.000000
        0.000000   -0.000000    8.811805


  Final cell parameters and derivatives :

--------------------------------------------------------------------------------
       a            8.811805 Angstrom     dE/de1(xx)     0.000000 eV/strain
       b            8.811805 Angstrom     dE/de2(yy)     0.000000 eV/strain
       c            8.811805 Angstrom     dE/de3(zz)     0.000000 eV/strain
       alpha       90.000000 Degrees      dE/de4(yz)    -0.000000 eV/strain
       beta        90.000000 Degrees      dE/de5(xz)     0.000000 eV/strain
       gamma       90.000000 Degrees      dE/de6(xy)    -0.000000 eV/strain
--------------------------------------------------------------------------------

  Primitive cell volume =           684.218127 Angs**3

  Density of cell =      2.338030 g/cm**3

  Non-primitive cell volume =           684.218127 Angs**3


  Final internal derivatives :

--------------------------------------------------------------------------------
   No.  Atomic          a             b             c           Radius
        Label          (eV)          (eV)          (eV)        (eV/Angs)
--------------------------------------------------------------------------------
      1 O     c       0.000000      0.000000      0.000000      0.000000
      2 O     c       0.000000     -0.000000     -0.000000      0.000000
      3 O     c      -0.000000      0.000000      0.000000      0.000000
      4 O     c       0.000000      0.000000      0.000000      0.000000
      5 O     c       0.000000     -0.000000     -0.000000      0.000000
      6 O     c      -0.000000     -0.000000     -0.000000      0.000000
      7 O     c       0.000000      0.000000     -0.000000      0.000000
      8 O     c      -0.000000      0.000000     -0.000000      0.000000
      9 Cl    c      -0.000000     -0.000000     -0.000000      0.000000
     10 Cl    c      -0.000000     -0.000000      0.000000      0.000000
     11 Cl    c      -0.000000      0.000000      0.000000      0.000000
     12 Cl    c      -0.000000      0.000000     -0.000000      0.000000
     13 Cl    c       0.000000      0.000000      0.000000      0.000000
     14 Cl    c       0.000000     -0.000000     -0.000000      0.000000
     15 Cl    c      -0.000000      0.000000     -0.000000      0.000000
     16 Cl    c      -0.000000      0.000000      0.000000      0.000000
     17 Na    c       0.000000     -0.000000      0.000000      0.000000
     18 Na    c      -0.000000     -0.000000     -0.000000      0.000000
     19 Na    c      -0.000000      0.000000      0.000000      0.000000
     20 Na    c      -0.000000      0.000000     -0.000000      0.000000
     21 Na    c      -0.000000      0.000000     -0.000000      0.000000
     22 Na    c      -0.000000      0.000000     -0.000000      0.000000
     23 Na    c      -0.000000     -0.000000      0.000000      0.000000
     24 Na    c       0.000000     -0.000000     -0.000000      0.000000
     25 Na    c       0.000000     -0.000000     -0.000000      0.000000
     26 Na    c       0.000000     -0.000000     -0.000000      0.000000
     27 Na    c      -0.000000     -0.000000      0.000000      0.000000
     28 Na    c      -0.000000      0.000000     -0.000000      0.000000
     29 Na    c      -0.000000     -0.000000     -0.000000      0.000000
     30 Na    c      -0.000000     -0.000000      0.000000      0.000000
     31 Na    c       0.000000      0.000000     -0.000000      0.000000
     32 Na    c       0.000000      0.000000     -0.000000      0.000000
     33 Na    c      -0.000000     -0.000000      0.000000      0.000000
     34 Na    c      -0.000000      0.000000     -0.000000      0.000000
     35 Na    c       0.000000      0.000000     -0.000000      0.000000
     36 Na    c       0.000000     -0.000000     -0.000000      0.000000
     37 Na    c      -0.000000     -0.000000      0.000000      0.000000
     38 Na    c       0.000000      0.000000     -0.000000      0.000000
     39 Na    c      -0.000000      0.000000      0.000000      0.000000
     40 Na    c      -0.000000     -0.000000     -0.000000      0.000000
     41 O     s      -0.000000      0.000000     -0.000000      0.000000
     42 O     s      -0.000000      0.000000      0.000000      0.000000
     43 O     s       0.000000     -0.000000     -0.000000      0.000000
     44 O     s      -0.000000      0.000000      0.000000      0.000000
     45 O     s       0.000000      0.000000     -0.000000      0.000000
     46 O     s       0.000000     -0.000000      0.000000      0.000000
     47 O     s       0.000000      0.000000     -0.000000      0.000000
     48 O     s       0.000000      0.000000     -0.000000      0.000000
     49 Cl    s       0.000000      0.000000     -0.000000      0.000000
     50 Cl    s      -0.000000     -0.000000     -0.000000      0.000000
     51 Cl    s       0.000000     -0.000000     -0.000000      0.000000
     52 Cl    s       0.000000     -0.000000      0.000000      0.000000
     53 Cl    s      -0.000000      0.000000     -0.000000      0.000000
     54 Cl    s      -0.000000      0.000000      0.000000      0.000000
     55 Cl    s      -0.000000     -0.000000      0.000000      0.000000
     56 Cl    s      -0.000000     -0.000000     -0.000000      0.000000
--------------------------------------------------------------------------------
  Maximum abs         0.000000      0.000000      0.000000      0.000000
--------------------------------------------------------------------------------

  Comparison of initial and final structures : 

--------------------------------------------------------------------------------
  Parameter   Initial value   Final value   Difference    Units      Percent
--------------------------------------------------------------------------------
    Volume       730.945729    684.218127   -46.727602    Angs**3     -6.39
    a              9.008000      8.811805    -0.196195    Angstroms   -2.18
    b              9.008000      8.811805    -0.196195    Angstroms   -2.18
    c              9.008000      8.811805    -0.196195    Angstroms   -2.18
    alpha         90.000000     90.000000     0.000000    Degrees      0.00
    beta          90.000000     90.000000     0.000000    Degrees      0.00
    gamma         90.000000     90.000000     0.000000    Degrees      0.00
      1 x          0.000000      0.000000     0.000000    Fractional   0.00
      1 y          0.000000      0.000000     0.000000    Fractional   0.00
      1 z          0.000000      0.000000     0.000000    Fractional   0.00
      2 x          0.000000      0.000000     0.000000    Fractional   0.00
      2 y          0.000000      0.000000     0.000000    Fractional   0.00
      2 z          0.500000      0.500000     0.000000    Fractional   0.00
      3 x          0.000000      1.000000     1.000000    Fractional   0.00
      3 y          0.500000      0.500000     0.000000    Fractional   0.00
      3 z          0.000000      1.000000     1.000000    Fractional   0.00
      4 x          0.000000      0.000000     0.000000    Fractional   0.00
      4 y          0.500000      0.500000     0.000000    Fractional   0.00
      4 z          0.500000      0.500000     0.000000    Fractional   0.00
      5 x          0.500000      0.500000     0.000000    Fractional   0.00
      5 y          0.000000      0.000000     0.000000    Fractional   0.00
      5 z          0.000000      1.000000     1.000000    Fractional   0.00
      6 x          0.500000      0.500000     0.000000    Fractional   0.00
      6 y          0.000000      0.000000     0.000000    Fractional   0.00
      6 z          0.500000      0.500000     0.000000    Fractional   0.00
      7 x          0.500000      0.500000     0.000000    Fractional   0.00
      7 y          0.500000      0.500000     0.000000    Fractional   0.00
      7 z          0.000000      1.000000     1.000000    Fractional   0.00
      8 x          0.500000      0.500000     0.000000    Fractional   0.00
      8 y          0.500000      0.500000     0.000000    Fractional   0.00
      8 z          0.500000      0.500000     0.000000    Fractional   0.00
      9 x          0.250000      0.250000     0.000000    Fractional   0.00
      9 y          0.250000      0.250000     0.000000    Fractional   0.00
      9 z          0.250000      0.250000     0.000000    Fractional   0.00
     10 x          0.250000      0.250000     0.000000    Fractional   0.00
     10 y          0.250000      0.250000     0.000000    Fractional   0.00
     10 z          0.750000      0.750000     0.000000    Fractional   0.00
     11 x          0.250000      0.250000     0.000000    Fractional   0.00
     11 y          0.750000      0.750000     0.000000    Fractional   0.00
     11 z          0.250000      0.250000     0.000000    Fractional   0.00
     12 x          0.250000      0.250000     0.000000    Fractional   0.00
     12 y          0.750000      0.750000     0.000000    Fractional   0.00
     12 z          0.750000      0.750000     0.000000    Fractional   0.00
     13 x          0.750000      0.750000     0.000000    Fractional   0.00
     13 y          0.250000      0.250000     0.000000    Fractional   0.00
     13 z          0.250000      0.250000     0.000000    Fractional   0.00
     14 x          0.750000      0.750000     0.000000    Fractional   0.00
     14 y          0.250000      0.250000     0.000000    Fractional   0.00
     14 z          0.750000      0.750000     0.000000    Fractional   0.00
     15 x          0.750000      0.750000     0.000000    Fractional   0.00
     15 y          0.750000      0.750000     0.000000    Fractional   0.00
     15 z          0.250000      0.250000     0.000000    Fractional   0.00
     16 x          0.750000      0.750000     0.000000    Fractional   0.00
     16 y          0.750000      0.750000     0.000000    Fractional   0.00
     16 z          0.750000      0.750000     0.000000    Fractional   0.00
     17 x          0.250000      0.250000     0.000000    Fractional   0.00
     17 y          0.000000      0.000000     0.000000    Fractional   0.00
     17 z          0.000000      1.000000     1.000000    Fractional   0.00
     18 x          0.250000      0.250000     0.000000    Fractional   0.00
     18 y          0.000000      0.000000     0.000000    Fractional   0.00
     18 z          0.500000      0.500000     0.000000    Fractional   0.00
     19 x          0.250000      0.250000     0.000000    Fractional   0.00
     19 y          0.500000      0.500000     0.000000    Fractional   0.00
     19 z          0.000000      1.000000     1.000000    Fractional   0.00
     20 x          0.250000      0.250000     0.000000    Fractional   0.00
     20 y          0.500000      0.500000     0.000000    Fractional   0.00
     20 z          0.500000      0.500000     0.000000    Fractional   0.00
     21 x          0.750000      0.750000     0.000000    Fractional   0.00
     21 y          0.000000      1.000000     1.000000    Fractional   0.00
     21 z          0.000000      0.000000     0.000000    Fractional   0.00
     22 x          0.750000      0.750000     0.000000    Fractional   0.00
     22 y          0.000000      1.000000     1.000000    Fractional   0.00
     22 z          0.500000      0.500000     0.000000    Fractional   0.00
     23 x          0.750000      0.750000     0.000000    Fractional   0.00
     23 y          0.500000      0.500000     0.000000    Fractional   0.00
     23 z          0.000000      0.000000     0.000000    Fractional   0.00
     24 x          0.750000      0.750000     0.000000    Fractional   0.00
     24 y          0.500000      0.500000     0.000000    Fractional   0.00
     24 z          0.500000      0.500000     0.000000    Fractional   0.00
     25 x          0.000000      1.000000     1.000000    Fractional   0.00
     25 y          0.250000      0.250000     0.000000    Fractional   0.00
     25 z          0.000000      0.000000     0.000000    Fractional   0.00
     26 x          0.000000      1.000000     1.000000    Fractional   0.00
     26 y          0.250000      0.250000     0.000000    Fractional   0.00
     26 z          0.500000      0.500000     0.000000    Fractional   0.00
     27 x          0.000000      0.000000     0.000000    Fractional   0.00
     27 y          0.750000      0.750000     0.000000    Fractional   0.00
     27 z          0.000000      1.000000     1.000000    Fractional   0.00
     28 x          0.000000      0.000000     0.000000    Fractional   0.00
     28 y          0.750000      0.750000     0.000000    Fractional   0.00
     28 z          0.500000      0.500000     0.000000    Fractional   0.00
     29 x          0.500000      0.500000     0.000000    Fractional   0.00
     29 y          0.250000      0.250000     0.000000    Fractional   0.00
     29 z          0.000000      1.000000     1.000000    Fractional   0.00
     30 x          0.500000      0.500000     0.000000    Fractional   0.00
     30 y          0.250000      0.250000     0.000000    Fractional   0.00
     30 z          0.500000      0.500000     0.000000    Fractional   0.00
     31 x          0.500000      0.500000     0.000000    Fractional   0.00
     31 y          0.750000      0.750000     0.000000    Fractional   0.00
     31 z          0.000000      0.000000     0.000000    Fractional   0.00
     32 x          0.500000      0.500000     0.000000    Fractional   0.00
     32 y          0.750000      0.750000     0.000000    Fractional   0.00
     32 z          0.500000      0.500000     0.000000    Fractional   0.00
     33 x          0.000000      0.000000     0.000000    Fractional   0.00
     33 y          0.000000      1.000000     1.000000    Fractional   0.00
     33 z          0.250000      0.250000     0.000000    Fractional   0.00
     34 x          0.000000      1.000000     1.000000    Fractional   0.00
     34 y          0.000000      0.000000     0.000000    Fractional   0.00
     34 z          0.750000      0.750000     0.000000    Fractional   0.00
     35 x          0.000000      0.000000     0.000000    Fractional   0.00
     35 y          0.500000      0.500000     0.000000    Fractional   0.00
     35 z          0.250000      0.250000     0.000000    Fractional   0.00
     36 x          0.000000      1.000000     1.000000    Fractional   0.00
     36 y          0.500000      0.500000     0.000000    Fractional   0.00
     36 z          0.750000      0.750000     0.000000    Fractional   0.00
     37 x          0.500000      0.500000     0.000000    Fractional   0.00
     37 y          0.000000      0.000000     0.000000    Fractional   0.00
     37 z          0.250000      0.250000     0.000000    Fractional   0.00
     38 x          0.500000      0.500000     0.000000    Fractional   0.00
     38 y          0.000000      1.000000     1.000000    Fractional   0.00
     38 z          0.750000      0.750000     0.000000    Fractional   0.00
     39 x          0.500000      0.500000     0.000000    Fractional   0.00
     39 y          0.500000      0.500000     0.000000    Fractional   0.00
     39 z          0.250000      0.250000     0.000000    Fractional   0.00
     40 x          0.500000      0.500000     0.000000    Fractional   0.00
     40 y          0.500000      0.500000     0.000000    Fractional   0.00
     40 z          0.750000      0.750000     0.000000    Fractional   0.00
     41 x          0.000000      0.000000     0.000000    Fractional   0.00
     41 y          0.000000      0.000000     0.000000    Fractional   0.00
     41 z          0.000000      0.000000     0.000000    Fractional   0.00
     42 x          0.000000      0.000000     0.000000    Fractional   0.00
     42 y          0.000000      0.000000     0.000000    Fractional   0.00
     42 z          0.500000      0.500000     0.000000    Fractional   0.00
     43 x          0.000000      1.000000     1.000000    Fractional   0.00
     43 y          0.500000      0.500000     0.000000    Fractional   0.00
     43 z          0.000000      1.000000     1.000000    Fractional   0.00
     44 x          0.000000      0.000000     0.000000    Fractional   0.00
     44 y          0.500000      0.500000     0.000000    Fractional   0.00
     44 z          0.500000      0.500000     0.000000    Fractional   0.00
     45 x          0.500000      0.500000     0.000000    Fractional   0.00
     45 y          0.000000      0.000000     0.000000    Fractional   0.00
     45 z          0.000000      1.000000     1.000000    Fractional   0.00
     46 x          0.500000      0.500000     0.000000    Fractional   0.00
     46 y          0.000000      0.000000     0.000000    Fractional   0.00
     46 z          0.500000      0.500000     0.000000    Fractional   0.00
     47 x          0.500000      0.500000     0.000000    Fractional   0.00
     47 y          0.500000      0.500000     0.000000    Fractional   0.00
     47 z          0.000000      1.000000     1.000000    Fractional   0.00
     48 x          0.500000      0.500000     0.000000    Fractional   0.00
     48 y          0.500000      0.500000     0.000000    Fractional   0.00
     48 z          0.500000      0.500000     0.000000    Fractional   0.00
     49 x          0.250000      0.250000     0.000000    Fractional   0.00
     49 y          0.250000      0.250000     0.000000    Fractional   0.00
     49 z          0.250000      0.250000     0.000000    Fractional   0.00
     50 x          0.250000      0.250000     0.000000    Fractional   0.00
     50 y          0.250000      0.250000     0.000000    Fractional   0.00
     50 z          0.750000      0.750000     0.000000    Fractional   0.00
     51 x          0.250000      0.250000     0.000000    Fractional   0.00
     51 y          0.750000      0.750000     0.000000    Fractional   0.00
     51 z          0.250000      0.250000     0.000000    Fractional   0.00
     52 x          0.250000      0.250000     0.000000    Fractional   0.00
     52 y          0.750000      0.750000     0.000000    Fractional   0.00
     52 z          0.750000      0.750000     0.000000    Fractional   0.00
     53 x          0.750000      0.750000     0.000000    Fractional   0.00
     53 y          0.250000      0.250000     0.000000    Fractional   0.00
     53 z          0.250000      0.250000     0.000000    Fractional   0.00
     54 x          0.750000      0.750000     0.000000    Fractional   0.00
     54 y          0.250000      0.250000     0.000000    Fractional   0.00
     54 z          0.750000      0.750000     0.000000    Fractional   0.00
     55 x          0.750000      0.750000     0.000000    Fractional   0.00
     55 y          0.750000      0.750000     0.000000    Fractional   0.00
     55 z          0.250000      0.250000     0.000000    Fractional   0.00
     56 x          0.750000      0.750000     0.000000    Fractional   0.00
     56 y          0.750000      0.750000     0.000000    Fractional   0.00
     56 z          0.750000      0.750000     0.000000    Fractional   0.00
--------------------------------------------------------------------------------


  Born effective charge tensors : 

-------------------------------------------------------------------------------
  Atom             x           y             z
-------------------------------------------------------------------------------
    1 O     x      -2.2939      0.0000     -0.0000
            y      -0.0000     -2.2939     -0.0000
            z      -0.0000     -0.0000     -2.2939
-------------------------------------------------------------------------------
    2 O     x      -2.2939      0.0000      0.0000
            y      -0.0000     -2.2939      0.0000
            z       0.0000      0.0000     -2.2939
-------------------------------------------------------------------------------
    3 O     x      -2.2939     -0.0000      0.0000
            y       0.0000     -2.2939      0.0000
            z       0.0000      0.0000     -2.2939
-------------------------------------------------------------------------------
    4 O     x      -2.2939     -0.0000      0.0000
            y       0.0000     -2.2939     -0.0000
            z       0.0000     -0.0000     -2.2939
-------------------------------------------------------------------------------
    5 O     x      -2.2939     -0.0000      0.0000
            y       0.0000     -2.2939     -0.0000
            z       0.0000     -0.0000     -2.2939
-------------------------------------------------------------------------------
    6 O     x      -2.2939     -0.0000      0.0000
            y       0.0000     -2.2939     -0.0000
            z       0.0000      0.0000     -2.2939
-------------------------------------------------------------------------------
    7 O     x      -2.2939      0.0000      0.0000
            y      -0.0000     -2.2939      0.0000
            z       0.0000     -0.0000     -2.2939
-------------------------------------------------------------------------------
    8 O     x      -2.2939      0.0000      0.0000
            y      -0.0000     -2.2939     -0.0000
            z       0.0000     -0.0000     -2.2939
-------------------------------------------------------------------------------
    9 Cl    x      -0.9918      0.0000     -0.0000
            y       0.0000     -0.9918     -0.0000
            z      -0.0000     -0.0000     -0.9918
-------------------------------------------------------------------------------
   10 Cl    x      -0.9918      0.0000      0.0000
            y       0.0000     -0.9918      0.0000
            z       0.0000      0.0000     -0.9918
-------------------------------------------------------------------------------
   11 Cl    x      -0.9918     -0.0000     -0.0000
            y      -0.0000     -0.9918     -0.0000
            z      -0.0000     -0.0000     -0.9918
-------------------------------------------------------------------------------
   12 Cl    x      -0.9918      0.0000      0.0000
            y       0.0000     -0.9918     -0.0000
            z       0.0000     -0.0000     -0.9918
-------------------------------------------------------------------------------
   13 Cl    x      -0.9918      0.0000     -0.0000
            y      -0.0000     -0.9918      0.0000
            z       0.0000      0.0000     -0.9918
-------------------------------------------------------------------------------
   14 Cl    x      -0.9918      0.0000     -0.0000
            y       0.0000     -0.9918      0.0000
            z      -0.0000      0.0000     -0.9918
-------------------------------------------------------------------------------
   15 Cl    x      -0.9918      0.0000     -0.0000
            y       0.0000     -0.9918     -0.0000
            z      -0.0000     -0.0000     -0.9918
-------------------------------------------------------------------------------
   16 Cl    x      -0.9918      0.0000      0.0000
            y       0.0000     -0.9918      0.0000
            z       0.0000      0.0000     -0.9918
-------------------------------------------------------------------------------
   17 Na    x       0.8372     -0.0000      0.0000
            y      -0.0000      1.2243      0.0000
            z       0.0000      0.0000      1.2243
-------------------------------------------------------------------------------
   18 Na    x       0.8372     -0.0000      0.0000
            y      -0.0000      1.2243     -0.0000
            z      -0.0000      0.0000      1.2243
-------------------------------------------------------------------------------
   19 Na    x       0.8372     -0.0000      0.0000
            y      -0.0000      1.2243     -0.0000
            z       0.0000     -0.0000      1.2243
-------------------------------------------------------------------------------
   20 Na    x       0.8372     -0.0000      0.0000
            y      -0.0000      1.2243      0.0000
            z       0.0000      0.0000      1.2243
-------------------------------------------------------------------------------
   21 Na    x       0.8372     -0.0000      0.0000
            y       0.0000      1.2243     -0.0000
            z       0.0000      0.0000      1.2243
-------------------------------------------------------------------------------
   22 Na    x       0.8372      0.0000      0.0000
            y       0.0000      1.2243      0.0000
            z       0.0000      0.0000      1.2243
-------------------------------------------------------------------------------
   23 Na    x       0.8372     -0.0000     -0.0000
            y      -0.0000      1.2243      0.0000
            z      -0.0000     -0.0000      1.2243
-------------------------------------------------------------------------------
   24 Na    x       0.8372     -0.0000      0.0000
            y      -0.0000      1.2243      0.0000
            z       0.0000      0.0000      1.2243
-------------------------------------------------------------------------------
   25 Na    x       1.2243     -0.0000     -0.0000
            y      -0.0000      0.8372     -0.0000
            z      -0.0000     -0.0000      1.2243
-------------------------------------------------------------------------------
   26 Na    x       1.2243     -0.0000     -0.0000
            y      -0.0000      0.8372     -0.0000
            z      -0.0000     -0.0000      1.2243
-------------------------------------------------------------------------------
   27 Na    x       1.2243      0.0000     -0.0000
            y       0.0000      0.8372      0.0000
            z      -0.0000      0.0000      1.2243
-------------------------------------------------------------------------------
   28 Na    x       1.2243      0.0000     -0.0000
            y       0.0000      0.8372     -0.0000
            z      -0.0000     -0.0000      1.2243
-------------------------------------------------------------------------------
   29 Na    x       1.2243      0.0000     -0.0000
            y      -0.0000      0.8372     -0.0000
            z      -0.0000     -0.0000      1.2243
-------------------------------------------------------------------------------
   30 Na    x       1.2243     -0.0000     -0.0000
            y      -0.0000      0.8372     -0.0000
            z      -0.0000     -0.0000      1.2243
-------------------------------------------------------------------------------
   31 Na    x       1.2243     -0.0000     -0.0000
            y      -0.0000      0.8372      0.0000
            z      -0.0000      0.0000      1.2243
-------------------------------------------------------------------------------
   32 Na    x       1.2243     -0.0000     -0.0000
            y      -0.0000      0.8372     -0.0000
            z      -0.0000     -0.0000      1.2243
-------------------------------------------------------------------------------
   33 Na    x       1.2243     -0.0000      0.0000
            y       0.0000      1.2243     -0.0000
            z       0.0000      0.0000      0.8372
-------------------------------------------------------------------------------
   34 Na    x       1.2243     -0.0000     -0.0000
            y       0.0000      1.2243     -0.0000
            z      -0.0000     -0.0000      0.8372
-------------------------------------------------------------------------------
   35 Na    x       1.2243      0.0000      0.0000
            y      -0.0000      1.2243     -0.0000
            z       0.0000      0.0000      0.8372
-------------------------------------------------------------------------------
   36 Na    x       1.2243      0.0000      0.0000
            y      -0.0000      1.2243      0.0000
            z       0.0000      0.0000      0.8372
-------------------------------------------------------------------------------
   37 Na    x       1.2243      0.0000      0.0000
            y      -0.0000      1.2243     -0.0000
            z       0.0000     -0.0000      0.8372
-------------------------------------------------------------------------------
   38 Na    x       1.2243      0.0000      0.0000
            y      -0.0000      1.2243     -0.0000
            z       0.0000     -0.0000      0.8372
-------------------------------------------------------------------------------
   39 Na    x       1.2243     -0.0000      0.0000
            y       0.0000      1.2243     -0.0000
            z       0.0000     -0.0000      0.8372
-------------------------------------------------------------------------------
   40 Na    x       1.2243     -0.0000      0.0000
            y       0.0000      1.2243      0.0000
            z       0.0000      0.0000      0.8372
-------------------------------------------------------------------------------




  Elastic Constant Matrix: (Units=GPa)

-------------------------------------------------------------------------------
  Indices      1         2         3         4         5         6    
-------------------------------------------------------------------------------
       1     82.7680   24.3534   24.3534   -0.0000    0.0000   -0.0000
       2     24.3534   82.7680   24.3534   -0.0000   -0.0000    0.0000
       3     24.3534   24.3534   82.7680   -0.0000    0.0000    0.0000
       4     -0.0000   -0.0000   -0.0000   24.3534    0.0000   -0.0000
       5      0.0000   -0.0000    0.0000    0.0000   24.3534   -0.0000
       6     -0.0000    0.0000    0.0000   -0.0000   -0.0000   24.3534
-------------------------------------------------------------------------------


  Elastic Compliance Matrix: (Units=1/GPa)

-------------------------------------------------------------------------------
  Indices      1         2         3         4         5         6    
-------------------------------------------------------------------------------
       1    0.013948 -0.003171 -0.003171 -0.000000 -0.000000  0.000000
       2   -0.003171  0.013948 -0.003171  0.000000  0.000000 -0.000000
       3   -0.003171 -0.003171  0.013948  0.000000 -0.000000 -0.000000
       4   -0.000000  0.000000  0.000000  0.041062 -0.000000  0.000000
       5   -0.000000  0.000000 -0.000000 -0.000000  0.041062  0.000000
       6    0.000000 -0.000000 -0.000000  0.000000  0.000000  0.041062
-------------------------------------------------------------------------------

  Mechanical properties :

-------------------------------------------------------------------------------
  Convention :                    Reuss         Voigt         Hill
-------------------------------------------------------------------------------
  Bulk  Modulus (GPa)     =      43.82493      43.82493      43.82493
  Shear Modulus (GPa)     =      26.08758      26.29496      26.19127
-------------------------------------------------------------------------------
  Velocity S-wave (km/s)  =       3.34035       3.35360       3.34698
  Velocity P-wave (km/s)  =       5.79842       5.80861       5.80351
-------------------------------------------------------------------------------
  Compressibility (1/GPa) =    0.02281806
-------------------------------------------------------------------------------
  Stress axis :                     x             y             z
-------------------------------------------------------------------------------
  Youngs Moduli (GPa)     =      71.69479      71.69479      71.69479
-------------------------------------------------------------------------------
  Poissons Ratio (x)      =                     0.22734       0.22734
  Poissons Ratio (y)      =       0.22734                     0.22734
  Poissons Ratio (z)      =       0.22734       0.22734
-------------------------------------------------------------------------------


  Piezoelectric Strain Matrix: (Units=C/m**2)

-------------------------------------------------------------------------------
  Indices      1         2         3         4         5         6    
-------------------------------------------------------------------------------
       x    -0.00000   0.00000   0.00000   0.00000   0.00000   0.00000
       y     0.00000   0.00000   0.00000   0.00000   0.00000   0.00000
       z     0.00000  -0.00000   0.00000   0.00000   0.00000   0.00000
-------------------------------------------------------------------------------


  Piezoelectric Stress Matrix: (Units=10**-11 C/N)

-------------------------------------------------------------------------------
  Indices      1         2         3         4         5         6    
-------------------------------------------------------------------------------
       x    -0.00000   0.00000   0.00000   0.00000   0.00000   0.00000
       y     0.00000   0.00000   0.00000   0.00000   0.00000   0.00000
       z     0.00000  -0.00000   0.00000   0.00000   0.00000   0.00000
-------------------------------------------------------------------------------


  Static dielectric constant tensor : 

-------------------------------------------------------------------------------
              x         y         z
-------------------------------------------------------------------------------
       x    11.08357  -0.00000  -0.00000
       y    -0.00000  11.08357  -0.00000
       z    -0.00000  -0.00000  11.08357
--------------------------------------------------------------------------------

  High frequency dielectric constant tensor : 

-------------------------------------------------------------------------------
              x         y         z
-------------------------------------------------------------------------------
       x     1.50771  -0.00000   0.00000
       y    -0.00000   1.50771  -0.00000
       z     0.00000  -0.00000   1.50771
-------------------------------------------------------------------------------

  Static refractive indices : 

-------------------------------------------------------------------------------
    1 =    3.32920      2 =    3.32920      3 =    3.32920
-------------------------------------------------------------------------------

  High frequency refractive indices : 

-------------------------------------------------------------------------------
    1 =    1.22789      2 =    1.22789      3 =    1.22789
-------------------------------------------------------------------------------


  Time to end of optimisation =       0.5895 seconds

********************************************************************************
*  Defect calculation for configuration   1 :                                  *
********************************************************************************

  Total number of defects =      2

  Total charge on defect  =   0.00

  Defect centre is at   0.6250   0.5000   0.3750  Frac

  Region 1 radius =  16.0000      Number of ions =   1426

  Number of symmetry inequivalent region 1 ions  =    795

  Region 2 radius =  24.0000      Number of ions =   3342

  Number of symmetry inequivalent region 2a ions =   1777

  Region 2a mode = 4 : screened electrostatics due to region 1 
                       neglect correction to region 1 forces from 2a
                       region 2a displacements based on defects only

  Region 2a ions will only interact with defects in region 1

  Vacancies:

--------------------------------------------------------------------------------
    Specification type     Symbol/Number         x          y          z
--------------------------------------------------------------------------------
    Fractional                               0.500000   0.500000   0.250000
--------------------------------------------------------------------------------

  Impurities:

--------------------------------------------------------------------------------
    Specification type     Symbol/Number         x          y          z
--------------------------------------------------------------------------------
    Frac/Symbol             Ca               0.750000   0.500000   0.500000
--------------------------------------------------------------------------------


  Symmetry reduced region 1 (Relative to defect centre) :

--------------------------------------------------------------------------------
   No.   Atomic       x            y             z       Radius  Multiplicity   
         Label      (Angs)       (Angs)        (Angs)    (Angs)     
--------------------------------------------------------------------------------
     1  O     c     -1.1015 *     0.0000       1.1015 *  0.0000     1          
     2  Ca    c      1.1015 *     0.0000       1.1015 *  0.0000     1    Defect
     3  Na    c     -1.1015 *    -2.2030 *     1.1015 *  0.0000     2          
     4  Cl    c      1.1015 *     2.2030 *    -1.1015 *  0.0000     2          
     5  Na    c      1.1015 *     0.0000      -3.3044 *  0.0000     1          
     6  Na    c     -1.1015 *     0.0000       3.3044 *  0.0000     1          
     7  O     c      3.3044 *     0.0000       1.1015 *  0.0000     1          
     8  O     c     -1.1015 *     0.0000      -3.3044 *  0.0000     1          
     9  Na    c     -3.3044 *    -0.0000       1.1015 *  0.0000     1          
    10  Na    c      3.3044 *     0.0000      -1.1015 *  0.0000     1          
    11  Na    c      3.3044 *    -2.2030 *     1.1015 *  0.0000     2          
    12  Na    c     -1.1015 *    -2.2030 *    -3.3044 *  0.0000     2          
    13  Cl    c      1.1015 *     2.2030 *     3.3044 *  0.0000     2          
    14  Cl    c     -3.3044 *    -2.2030 *    -1.1015 *  0.0000     2          
    15  Na    c      1.1015 *     4.4059 *     1.1015 *  0.0000     2          
    16  Na    c      3.3044 *    -0.0000       3.3044 *  0.0000     1          
    17  Na    c     -1.1015 *    -4.4059 *    -1.1015 *  0.0000     2          
    18  O     c      3.3044 *     0.0000      -3.3044 *  0.0000     1          
    19  O     c     -1.1015 *    -4.4059 *     1.1015 *  0.0000     2          
    20  Na    c     -3.3044 *    -0.0000      -3.3044 *  0.0000     1          
    21  Na    c      3.3044 *    -2.2030 *    -3.3044 *  0.0000     2          
    22  Cl    c     -3.3044 *    -2.2030 *     3.3044 *  0.0000     2          
    23  Na    c      1.1015 *     4.4059 *    -3.3044 *  0.0000     2          
    24  Na    c     -3.3044 *    -4.4059 *     1.1015 *  0.0000     2          
    25  Na    c     -5.5074 *     0.0000      -1.1015 *  0.0000     1          
    26  Na    c      3.3044 *     4.4059 *    -1.1015 *  0.0000     2          
    27  Na    c     -1.1015 *     4.4059 *     3.3044 *  0.0000     2          
    28  O     c     -1.1015 *     0.0000       5.5074 *  0.0000     1          
    29  O     c     -5.5074 *     0.0000       1.1015 *  0.0000     1          
    30  Na    c     -1.1015 *     0.0000      -5.5074 *  0.0000     1          
    31  Na    c      5.5074 *    -0.0000       1.1015 *  0.0000     1          
    32  O     c     -1.1015 *    -4.4059 *    -3.3044 *  0.0000     2          
    33  O     c      3.3044 *    -4.4059 *     1.1015 *  0.0000     2          
    34  Na    c      1.1015 *     0.0000       5.5074 *  0.0000     1          
    35  Na    c     -5.5074 *     2.2030 *     1.1015 *  0.0000     2          
    36  Na    c     -1.1015 *    -2.2030 *     5.5074 *  0.0000     2          
    37  Cl    c      5.5074 *     2.2030 *    -1.1015 *  0.0000     2          
    38  Cl    c      1.1015 *    -2.2030 *    -5.5074 *  0.0000     2          
    39  Na    c     -3.3044 *    -4.4059 *    -3.3044 *  0.0000     2          
    40  Na    c      3.3044 *    -4.4059 *     3.3044 *  0.0000     2          
    41  Na    c     -3.3044 *    -0.0000       5.5074 *  0.0000     1          
    42  Na    c      3.3044 *    -0.0000      -5.5074 *  0.0000     1          
    43  O     c      3.3044 *     0.0000       5.5074 *  0.0000     1          
    44  O     c     -5.5074 *     0.0000      -3.3044 *  0.0000     1          
    45  O     c      3.3044 *     4.4059 *    -3.3044 *  0.0000     2          
    46  Na    c      5.5074 *    -0.0000      -3.3044 *  0.0000     1          
    47  Na    c     -5.5074 *    -0.0000       3.3044 *  0.0000     1          
    48  Na    c     -5.5074 *     2.2030 *    -3.3044 *  0.0000     2          
    49  Na    c      3.3044 *    -2.2030 *     5.5074 *  0.0000     2          
    50  Na    c     -1.1015 *     6.6089 *     1.1015 *  0.0000     2          
    51  Cl    c     -3.3044 *    -2.2030 *    -5.5074 *  0.0000     2          
    52  Cl    c      5.5074 *    -2.2030 *     3.3044 *  0.0000     2          
    53  Cl    c      1.1015 *    -6.6089 *    -1.1015 *  0.0000     2          
    54  Na    c      5.5074 *    -4.4059 *     1.1015 *  0.0000     2          
    55  Na    c      1.1015 *     4.4059 *     5.5074 *  0.0000     2          
    56  Na    c     -5.5074 *     4.4059 *    -1.1015 *  0.0000     2          
    57  Na    c     -1.1015 *     4.4059 *    -5.5074 *  0.0000     2          
    58  O     c     -5.5074 *    -4.4059 *     1.1015 *  0.0000     2          
    59  O     c     -1.1015 *    -4.4059 *     5.5074 *  0.0000     2          
    60  Na    c      3.3044 *     6.6089 *     1.1015 *  0.0000     2          
    61  Na    c     -1.1015 *     6.6089 *    -3.3044 *  0.0000     2          
    62  Cl    c      1.1015 *    -6.6089 *     3.3044 *  0.0000     2          
    63  Cl    c     -3.3044 *    -6.6089 *    -1.1015 *  0.0000     2          
    64  Na    c     -3.3044 *    -4.4059 *     5.5074 *  0.0000     2          
    65  Na    c      5.5074 *    -4.4059 *    -3.3044 *  0.0000     2          
    66  Na    c      7.7103 *    -0.0000      -1.1015 *  0.0000     1          
    67  Na    c      3.3044 *    -4.4059 *    -5.5074 *  0.0000     2          
    68  Na    c      5.5074 *    -0.0000       5.5074 *  0.0000     1          
    69  Na    c     -5.5074 *    -4.4059 *     3.3044 *  0.0000     2          
    70  Na    c     -7.7103 *     0.0000       1.1015 *  0.0000     1          
    71  O     c      7.7103 *     0.0000       1.1015 *  0.0000     1          
    72  O     c     -5.5074 *     0.0000       5.5074 *  0.0000     1          
    73  Na    c     -1.1015 *    -0.0000       7.7103 *  0.0000     1          
    74  O     c     -1.1015 *     0.0000      -7.7103 *  0.0000     1          
    75  O     c      3.3044 *     4.4059 *     5.5074 *  0.0000     2          
    76  O     c     -5.5074 *    -4.4059 *    -3.3044 *  0.0000     2          
    77  Na    c     -5.5074 *    -0.0000      -5.5074 *  0.0000     1          
    78  Na    c      1.1015 *     0.0000      -7.7103 *  0.0000     1          
    79  Na    c      7.7103 *     2.2030 *     1.1015 *  0.0000     2          
    80  Na    c     -5.5074 *     2.2030 *     5.5074 *  0.0000     2          
    81  Na    c      3.3044 *     6.6089 *    -3.3044 *  0.0000     2          
    82  Na    c     -1.1015 *    -2.2030 *    -7.7103 *  0.0000     2          
    83  Cl    c      1.1015 *     2.2030 *     7.7103 *  0.0000     2          
    84  Cl    c      5.5074 *     2.2030 *    -5.5074 *  0.0000     2          
    85  Cl    c     -7.7103 *    -2.2030 *    -1.1015 *  0.0000     2          
    86  Cl    c     -3.3044 *    -6.6089 *     3.3044 *  0.0000     2          
    87  Na    c     -3.3044 *    -0.0000      -7.7103 *  0.0000     1          
    88  Na    c     -7.7103 *     0.0000      -3.3044 *  0.0000     1          
    89  O     c      3.3044 *     0.0000      -7.7103 *  0.0000     1          
    90  O     c      7.7103 *     0.0000      -3.3044 *  0.0000     1          
    91  Na    c      3.3044 *     0.0000       7.7103 *  0.0000     1          
    92  Na    c      7.7103 *     0.0000       3.3044 *  0.0000     1          
    93  Na    c      7.7103 *     2.2030 *    -3.3044 *  0.0000     2          
    94  Na    c     -5.5074 *    -6.6089 *     1.1015 *  0.0000     2          
    95  Na    c      3.3044 *    -2.2030 *    -7.7103 *  0.0000     2          
    96  Na    c     -1.1015 *     6.6089 *     5.5074 *  0.0000     2          
    97  Cl    c     -3.3044 *    -2.2030 *     7.7103 *  0.0000     2          
    98  Cl    c     -7.7103 *    -2.2030 *     3.3044 *  0.0000     2          
    99  Cl    c      5.5074 *    -6.6089 *    -1.1015 *  0.0000     2          
   100  Cl    c      1.1015 *    -6.6089 *    -5.5074 *  0.0000     2          
   101  Na    c      1.1015 *    -8.8118 *     1.1015 *  0.0000     2          
   102  Na    c      5.5074 *    -4.4059 *     5.5074 *  0.0000     2          
   103  Na    c     -7.7103 *     4.4059 *     1.1015 *  0.0000     2          
   104  Na    c      1.1015 *     4.4059 *    -7.7103 *  0.0000     2          
   105  Na    c      7.7103 *    -4.4059 *    -1.1015 *  0.0000     2          
   106  Na    c     -5.5074 *    -4.4059 *    -5.5074 *  0.0000     2          
   107  Na    c     -1.1015 *    -4.4059 *     7.7103 *  0.0000     2          
   108  O     c      7.7103 *    -4.4059 *     1.1015 *  0.0000     2          
   109  O     c     -5.5074 *     4.4059 *     5.5074 *  0.0000     2          
   110  O     c     -1.1015 *    -4.4059 *    -7.7103 *  0.0000     2          
   111  Na    c     -1.1015 *     8.8118 *    -1.1015 *  0.0000     2          
   112  O     c     -1.1015 *    -8.8118 *     1.1015 *  0.0000     2          
   113  Na    c     -5.5074 *    -6.6089 *    -3.3044 *  0.0000     2          
   114  Na    c      3.3044 *     6.6089 *     5.5074 *  0.0000     2          
   115  Cl    c     -3.3044 *    -6.6089 *    -5.5074 *  0.0000     2          
   116  Cl    c      5.5074 *    -6.6089 *     3.3044 *  0.0000     2          
   117  Na    c      1.1015 *    -8.8118 *    -3.3044 *  0.0000     2          
   118  Na    c     -3.3044 *     8.8118 *     1.1015 *  0.0000     2          
   119  Na    c     -7.7103 *     4.4059 *    -3.3044 *  0.0000     2          
   120  Na    c     -3.3044 *    -4.4059 *    -7.7103 *  0.0000     2          
   121  Na    c      5.5074 *    -0.0000      -7.7103 *  0.0000     1          
   122  Na    c     -5.5074 *     0.0000       7.7103 *  0.0000     1          
   123  Na    c      3.3044 *    -8.8118 *    -1.1015 *  0.0000     2          
   124  Na    c      3.3044 *     4.4059 *     7.7103 *  0.0000     2          
   125  O     c      7.7103 *     0.0000       5.5074 *  0.0000     1          
   126  Na    c     -1.1015 *    -8.8118 *     3.3044 *  0.0000     2          
   127  O     c     -5.5074 *     0.0000      -7.7103 *  0.0000     1          
   128  O     c      3.3044 *    -4.4059 *    -7.7103 *  0.0000     2          
   129  O     c      7.7103 *    -4.4059 *    -3.3044 *  0.0000     2          
   130  Na    c      7.7103 *     4.4059 *     3.3044 *  0.0000     2          
   131  Na    c     -7.7103 *     0.0000       5.5074 *  0.0000     1          
   132  O     c     -1.1015 *    -8.8118 *    -3.3044 *  0.0000     2          
   133  Na    c      7.7103 *     0.0000      -5.5074 *  0.0000     1          
   134  O     c      3.3044 *    -8.8118 *     1.1015 *  0.0000     2          
   135  Na    c      7.7103 *     2.2030 *     5.5074 *  0.0000     2          
   136  Na    c     -5.5074 *     2.2030 *    -7.7103 *  0.0000     2          
   137  Cl    c      5.5074 *     2.2030 *     7.7103 *  0.0000     2          
   138  Cl    c     -7.7103 *    -2.2030 *    -5.5074 *  0.0000     2          
   139  Na    c     -3.3044 *     8.8118 *    -3.3044 *  0.0000     2          
   140  Na    c      3.3044 *     8.8118 *     3.3044 *  0.0000     2          
   141  Na    c      1.1015 *     0.0000       9.9133 *  0.0000     1          
   142  Na    c      9.9133 *     0.0000       1.1015 *  0.0000     1          
   143  O     c     -1.1015 *     0.0000       9.9133 *  0.0000     1          
   144  O     c     -9.9133 *     0.0000       1.1015 *  0.0000     1          
   145  Na    c     -1.1015 *    -0.0000      -9.9133 *  0.0000     1          
   146  O     c      3.3044 *    -8.8118 *    -3.3044 *  0.0000     2          
   147  Na    c     -9.9133 *    -0.0000      -1.1015 *  0.0000     1          
   148  Na    c     -9.9133 *    -2.2030 *     1.1015 *  0.0000     2          
   149  Na    c      7.7103 *    -6.6089 *     1.1015 *  0.0000     2          
   150  Na    c     -5.5074 *    -6.6089 *     5.5074 *  0.0000     2          
   151  Na    c     -1.1015 *     6.6089 *    -7.7103 *  0.0000     2          
   152  Na    c     -1.1015 *    -2.2030 *     9.9133 *  0.0000     2          
   153  Cl    c      9.9133 *     2.2030 *    -1.1015 *  0.0000     2          
   154  Cl    c      5.5074 *    -6.6089 *    -5.5074 *  0.0000     2          
   155  Cl    c      1.1015 *     2.2030 *    -9.9133 *  0.0000     2          
   156  Cl    c      1.1015 *     6.6089 *     7.7103 *  0.0000     2          
   157  Cl    c     -7.7103 *     6.6089 *    -1.1015 *  0.0000     2          
   158  Na    c      1.1015 *    -8.8118 *     5.5074 *  0.0000     2          
   159  Na    c      5.5074 *     8.8118 *     1.1015 *  0.0000     2          
   160  Na    c      5.5074 *    -4.4059 *    -7.7103 *  0.0000     2          
   161  Na    c     -7.7103 *     4.4059 *     5.5074 *  0.0000     2          
   162  Na    c     -5.5074 *    -8.8118 *    -1.1015 *  0.0000     2          
   163  Na    c     -9.9133 *     0.0000       3.3044 *  0.0000     1          
   164  Na    c     -5.5074 *     4.4059 *     7.7103 *  0.0000     2          
   165  Na    c      9.9133 *     0.0000      -3.3044 *  0.0000     1          
   166  O     c     -9.9133 *     0.0000      -3.3044 *  0.0000     1          
   167  O     c      3.3044 *     0.0000       9.9133 *  0.0000     1          
   168  Na    c     -1.1015 *    -8.8118 *    -5.5074 *  0.0000     2          
   169  O     c     -5.5074 *    -4.4059 *    -7.7103 *  0.0000     2          
   170  O     c      7.7103 *    -4.4059 *     5.5074 *  0.0000     2          
   171  Na    c      3.3044 *     0.0000      -9.9133 *  0.0000     1          
   172  Na    c      7.7103 *     4.4059 *    -5.5074 *  0.0000     2          
   173  O     c     -1.1015 *    -8.8118 *     5.5074 *  0.0000     2          
   174  O     c     -5.5074 *    -8.8118 *     1.1015 *  0.0000     2          
   175  Na    c     -3.3044 *    -0.0000       9.9133 *  0.0000     1          
   176  Na    c     -9.9133 *    -2.2030 *    -3.3044 *  0.0000     2          
   177  Na    c      7.7103 *    -6.6089 *    -3.3044 *  0.0000     2          
   178  Na    c      3.3044 *    -2.2030 *     9.9133 *  0.0000     2          
   179  Na    c      3.3044 *     6.6089 *    -7.7103 *  0.0000     2          
   180  Cl    c      9.9133 *     2.2030 *     3.3044 *  0.0000     2          
   181  Cl    c     -3.3044 *    -6.6089 *     7.7103 *  0.0000     2          
   182  Cl    c     -3.3044 *    -2.2030 *    -9.9133 *  0.0000     2          
   183  Cl    c     -7.7103 *     6.6089 *     3.3044 *  0.0000     2          
   184  Na    c     -3.3044 *     8.8118 *     5.5074 *  0.0000     2          
   185  Na    c      5.5074 *     8.8118 *    -3.3044 *  0.0000     2          
   186  Na    c      1.1015 *     4.4059 *     9.9133 *  0.0000     2          
   187  Na    c      9.9133 *     4.4059 *     1.1015 *  0.0000     2          
   188  Na    c      3.3044 *     8.8118 *    -5.5074 *  0.0000     2          
   189  Na    c      7.7103 *    -0.0000       7.7103 *  0.0000     1          
   190  Na    c     -5.5074 *     8.8118 *     3.3044 *  0.0000     2          
   191  O     c     -1.1015 *    -4.4059 *     9.9133 *  0.0000     2          
   192  O     c      7.7103 *     0.0000      -7.7103 *  0.0000     1          
   193  Na    c     -1.1015 *    -4.4059 *    -9.9133 *  0.0000     2          
   194  O     c     -9.9133 *    -4.4059 *     1.1015 *  0.0000     2          
   195  Na    c     -9.9133 *    -4.4059 *    -1.1015 *  0.0000     2          
   196  O     c      3.3044 *    -8.8118 *     5.5074 *  0.0000     2          
   197  Na    c     -7.7103 *     0.0000      -7.7103 *  0.0000     1          
   198  O     c     -5.5074 *    -8.8118 *    -3.3044 *  0.0000     2          
   199  Na    c      7.7103 *     2.2030 *    -7.7103 *  0.0000     2          
   200  Na    c     -1.1015 *   -11.0148 *     1.1015 *  0.0000     2          
   201  Cl    c     -7.7103 *    -2.2030 *     7.7103 *  0.0000     2          
   202  Cl    c      1.1015 *    11.0148 *    -1.1015 *  0.0000     2          
   203  Na    c      9.9133 *     4.4059 *    -3.3044 *  0.0000     2          
   204  Na    c     -3.3044 *    -4.4059 *     9.9133 *  0.0000     2          
   205  Na    c     -9.9133 *     0.0000      -5.5074 *  0.0000     1          
   206  Na    c     -9.9133 *     4.4059 *     3.3044 *  0.0000     2          
   207  Na    c     -5.5074 *     0.0000      -9.9133 *  0.0000     1          
   208  Na    c      3.3044 *     4.4059 *    -9.9133 *  0.0000     2          
   209  O     c     -9.9133 *     0.0000       5.5074 *  0.0000     1          
   210  O     c     -5.5074 *     0.0000       9.9133 *  0.0000     1          
   211  O     c     -9.9133 *    -4.4059 *    -3.3044 *  0.0000     2          
   212  O     c      3.3044 *    -4.4059 *     9.9133 *  0.0000     2          
   213  Na    c      9.9133 *     0.0000       5.5074 *  0.0000     1          
   214  Na    c      5.5074 *    -0.0000       9.9133 *  0.0000     1          
   215  Na    c     -9.9133 *    -2.2030 *     5.5074 *  0.0000     2          
   216  Na    c      7.7103 *    -6.6089 *     5.5074 *  0.0000     2          
   217  Na    c     -5.5074 *    -6.6089 *    -7.7103 *  0.0000     2          
   218  Na    c     -5.5074 *     2.2030 *     9.9133 *  0.0000     2          
   219  Na    c      3.3044 *   -11.0148 *     1.1015 *  0.0000     2          
   220  Na    c     -1.1015 *   -11.0148 *    -3.3044 *  0.0000     2          
   221  Cl    c      9.9133 *     2.2030 *    -5.5074 *  0.0000     2          
   222  Cl    c      5.5074 *     2.2030 *    -9.9133 *  0.0000     2          
   223  Cl    c      5.5074 *    -6.6089 *     7.7103 *  0.0000     2          
   224  Cl    c      1.1015 *   -11.0148 *     3.3044 *  0.0000     2          
   225  Cl    c     -7.7103 *     6.6089 *    -5.5074 *  0.0000     2          
   226  Cl    c     -3.3044 *   -11.0148 *    -1.1015 *  0.0000     2          
   227  Na    c      5.5074 *     8.8118 *     5.5074 *  0.0000     2          
   228  Na    c     -7.7103 *    -8.8118 *     1.1015 *  0.0000     2          
   229  Na    c      1.1015 *    -8.8118 *    -7.7103 *  0.0000     2          
   230  Na    c     -7.7103 *     4.4059 *    -7.7103 *  0.0000     2          
   231  Na    c      7.7103 *    -4.4059 *     7.7103 *  0.0000     2          
   232  Na    c      7.7103 *     8.8118 *    -1.1015 *  0.0000     2          
   233  Na    c     -5.5074 *     8.8118 *    -5.5074 *  0.0000     2          
   234  O     c      7.7103 *    -4.4059 *    -7.7103 *  0.0000     2          
   235  Na    c     -1.1015 *     8.8118 *     7.7103 *  0.0000     2          
   236  O     c      7.7103 *    -8.8118 *     1.1015 *  0.0000     2          
   237  O     c     -5.5074 *    -8.8118 *     5.5074 *  0.0000     2          
   238  O     c     -1.1015 *    -8.8118 *    -7.7103 *  0.0000     2          
   239  Na    c     -9.9133 *     6.6089 *     1.1015 *  0.0000     2          
   240  Na    c      3.3044 *   -11.0148 *    -3.3044 *  0.0000     2          
   241  Na    c     -1.1015 *     6.6089 *     9.9133 *  0.0000     2          
   242  Cl    c      9.9133 *    -6.6089 *    -1.1015 *  0.0000     2          
   243  Cl    c      1.1015 *    -6.6089 *    -9.9133 *  0.0000     2          
   244  Cl    c     -3.3044 *   -11.0148 *     3.3044 *  0.0000     2          
   245  Na    c     -7.7103 *    -8.8118 *    -3.3044 *  0.0000     2          
   246  Na    c     -3.3044 *     8.8118 *    -7.7103 *  0.0000     2          
   247  Na    c      9.9133 *     4.4059 *     5.5074 *  0.0000     2          
   248  Na    c      5.5074 *    -4.4059 *     9.9133 *  0.0000     2          
   249  Na    c      1.1015 *     0.0000     -12.1162 *  0.0000     1          
   250  Na    c     -5.5074 *     4.4059 *    -9.9133 *  0.0000     2          
   251  Na    c     -9.9133 *     4.4059 *    -5.5074 *  0.0000     2          
   252  Na    c      3.3044 *    -8.8118 *     7.7103 *  0.0000     2          
   253  Na    c     -1.1015 *     0.0000      12.1162 *  0.0000     1          
   254  O     c     12.1162 *     0.0000       1.1015 *  0.0000     1          
   255  O     c     -9.9133 *    -4.4059 *     5.5074 *  0.0000     2          
   256  Na    c    -12.1162 *    -0.0000       1.1015 *  0.0000     1          
   257  O     c     -5.5074 *    -4.4059 *     9.9133 *  0.0000     2          
   258  O     c     -1.1015 *     0.0000     -12.1162 *  0.0000     1          
   259  O     c      7.7103 *    -8.8118 *    -3.3044 *  0.0000     2          
   260  O     c      3.3044 *    -8.8118 *    -7.7103 *  0.0000     2          
   261  Na    c      7.7103 *    -8.8118 *     3.3044 *  0.0000     2          
   262  Na    c     12.1162 *     0.0000      -1.1015 *  0.0000     1          
   263  Na    c     12.1162 *    -2.2030 *     1.1015 *  0.0000     2          
   264  Na    c     -9.9133 *     6.6089 *    -3.3044 *  0.0000     2          
   265  Na    c     -5.5074 *    11.0148 *     1.1015 *  0.0000     2          
   266  Na    c      3.3044 *     6.6089 *     9.9133 *  0.0000     2          
   267  Na    c     -1.1015 *   -11.0148 *     5.5074 *  0.0000     2          
[...]
    714 y         -8.811805     -8.813140    -0.001335    Cartesian    0.02
    714 z          4.405902      4.406185     0.000283    Cartesian    0.01
    715 x          6.608853      6.611730     0.002877    Cartesian    0.04
    715 y         -2.202951     -2.202307     0.000645    Cartesian   -0.03
    715 z         15.420658     15.421687     0.001029    Cartesian    0.01
    716 x         -6.608853     -6.609260    -0.000406    Cartesian    0.01
    716 y         11.014756     11.015808     0.001052    Cartesian    0.01
    716 z          2.202951      2.206854     0.003903    Cartesian    0.18
    717 x         -2.202951     -2.201895     0.001056    Cartesian   -0.05
    717 y         -6.608853     -6.610878    -0.002025    Cartesian    0.03
    717 z          6.608853      6.613337     0.004484    Cartesian    0.07
    718 x          2.202951      2.206802     0.003850    Cartesian    0.17
    718 y         -6.608853     -6.609055    -0.000202    Cartesian    0.00
    718 z         11.014756     11.017480     0.002724    Cartesian    0.02
    719 x         -4.405902     -4.400766     0.005137    Cartesian   -0.12
    719 y          4.405902      4.405902     0.000000    Cartesian    0.00
    719 z         13.217707     13.220657     0.002950    Cartesian    0.02
    720 x         17.623609     17.622836    -0.000773    Cartesian   -0.00
    720 y          8.811805      8.811133    -0.000672    Cartesian   -0.01
    720 z          8.811805      8.811764    -0.000041    Cartesian   -0.00
    721 x         -0.000000      0.000275     0.000275    Cartesian *******
    721 y          0.000000     -0.000108    -0.000108    Cartesian *******
    721 z         -8.811805     -8.811866    -0.000061    Cartesian    0.00
    722 x         13.217707     13.219312     0.001605    Cartesian    0.01
    722 y         -4.405902     -4.406794    -0.000892    Cartesian    0.02
    722 z         -4.405902     -4.404973     0.000930    Cartesian   -0.02
    723 x          8.811805      8.811096    -0.000709    Cartesian   -0.01
    723 y         17.623609     17.623834     0.000225    Cartesian    0.00
    723 z          0.000000     -0.000306    -0.000306    Cartesian *******
    724 x         15.420658     15.427288     0.006630    Cartesian    0.04
    724 y          6.608853      6.608847    -0.000007    Cartesian   -0.00
    724 z         -6.608853     -6.604507     0.004346    Cartesian   -0.07
    725 x         15.420658     15.418604    -0.002054    Cartesian   -0.01
    725 y         -2.202951     -2.196161     0.006790    Cartesian   -0.31
    725 z         11.014756     11.011884    -0.002871    Cartesian   -0.03
    726 x         -6.608853     -6.608348     0.000506    Cartesian   -0.01
    726 y         11.014756     11.015233     0.000477    Cartesian    0.00
    726 z          6.608853      6.613869     0.005015    Cartesian    0.08
    727 x          2.202951      2.207147     0.004196    Cartesian    0.19
    727 y         11.014756     11.014421    -0.000335    Cartesian   -0.00
    727 z         15.420658     15.422217     0.001559    Cartesian    0.01
    728 x         -2.202951     -2.207375    -0.004424    Cartesian    0.20
    728 y         11.014756     11.022246     0.007491    Cartesian    0.07
    728 z         -6.608853     -6.610535    -0.001681    Cartesian    0.03
    729 x         -8.811805     -8.806559     0.005246    Cartesian   -0.06
    729 y          4.405902      4.405902     0.000000    Cartesian    0.00
    729 z          4.405902      4.399615    -0.006287    Cartesian   -0.14
    730 x          4.405902      4.400227    -0.005676    Cartesian   -0.13
    730 y          4.405902      4.405902     0.000000    Cartesian    0.00
    730 z         17.623609     17.626591     0.002982    Cartesian    0.02
    731 x         17.623609     17.623423    -0.000186    Cartesian   -0.00
    731 y          4.405902      4.405902     0.000000    Cartesian    0.00
    731 z         -4.405902     -4.409511    -0.003609    Cartesian    0.08
    732 x         13.217707     13.215460    -0.002247    Cartesian   -0.02
    732 y          4.405902      4.405902     0.000000    Cartesian    0.00
    732 z         -8.811805     -8.812783    -0.000978    Cartesian    0.01
    733 x         -4.405902     -4.407403    -0.001501    Cartesian    0.03
    733 y         -4.405902     -4.406727    -0.000825    Cartesian    0.02
    733 z          8.811805      8.812221     0.000417    Cartesian    0.00
    734 x          0.000000     -0.000394    -0.000394    Cartesian *******
    734 y         -4.405902     -4.406500    -0.000598    Cartesian    0.01
    734 z         13.217707     13.217635    -0.000072    Cartesian   -0.00
    735 x          0.000000      0.003622     0.003622    Cartesian *******
    735 y         -8.811805     -8.813593    -0.001788    Cartesian    0.02
    735 z          4.405902      4.406759     0.000857    Cartesian    0.02
    736 x          4.405902      4.406405     0.000503    Cartesian    0.01
    736 y         -8.811805     -8.811306     0.000499    Cartesian   -0.01
    736 z          8.811805      8.815681     0.003877    Cartesian    0.04
    737 x         -2.202951     -2.200365     0.002586    Cartesian   -0.12
    737 y          2.202951      2.203643     0.000692    Cartesian    0.03
    737 z         15.420658     15.423175     0.002517    Cartesian    0.02
    738 x         19.826560     19.823040    -0.003521    Cartesian   -0.02
    738 y          6.608853      6.607017    -0.001837    Cartesian   -0.03
    738 z          2.202951      2.207314     0.004363    Cartesian    0.20
    739 x         -6.608853     -6.606269     0.002585    Cartesian   -0.04
    739 y          2.202951      2.204517     0.001566    Cartesian    0.07
    739 z         11.014756     11.017148     0.002392    Cartesian    0.02
    740 x         11.014756     11.016765     0.002009    Cartesian    0.02
    740 y         15.420658     15.418303    -0.002355    Cartesian   -0.02
    740 z         11.014756     11.016276     0.001520    Cartesian    0.01
    741 x          6.608853      6.613915     0.005062    Cartesian    0.08
    741 y          2.202951      2.199118    -0.003833    Cartesian   -0.17
    741 z        -11.014756    -11.017878    -0.003122    Cartesian    0.03
    742 x         -2.202951     -2.201759     0.001192    Cartesian   -0.05
    742 y         -6.608853     -6.612057    -0.003204    Cartesian    0.05
    742 z         -2.202951     -2.200617     0.002334    Cartesian   -0.11
    743 x         -4.405902     -4.406458    -0.000556    Cartesian    0.01
    743 y          0.000000      0.000094     0.000094    Cartesian *******
    743 z         13.217707     13.217237    -0.000470    Cartesian   -0.00
    744 x          8.811805      8.817167     0.005362    Cartesian    0.06
    744 y          4.405902      4.405902     0.000000    Cartesian    0.00
    744 z         17.623609     17.624673     0.001064    Cartesian    0.01
    745 x         -8.811805     -8.808203     0.003602    Cartesian   -0.04
    745 y          4.405902      4.405902     0.000000    Cartesian    0.00
    745 z         -0.000000      0.007143     0.007143    Cartesian *******
    746 x          8.811805      8.811799    -0.000005    Cartesian   -0.00
    746 y         17.623609     17.624825     0.001216    Cartesian    0.01
    746 z          8.811805      8.812245     0.000440    Cartesian    0.00
    747 x          0.000000     -0.000107    -0.000107    Cartesian *******
    747 y         -8.811805     -8.811193     0.000611    Cartesian   -0.01
    747 z          0.000000     -0.000810    -0.000810    Cartesian *******
    748 x         19.826560     19.823383    -0.003178    Cartesian   -0.02
    748 y          6.608853      6.606768    -0.002086    Cartesian   -0.03
    748 z          6.608853      6.609232     0.000378    Cartesian    0.01
    749 x          2.202951      2.202894    -0.000058    Cartesian   -0.00
    749 y          2.202951      2.201096    -0.001855    Cartesian   -0.08
    749 z        -11.014756    -11.019967    -0.005211    Cartesian    0.05
    750 x         -6.608853     -6.610578    -0.001724    Cartesian    0.03
    750 y         11.014756     11.015862     0.001106    Cartesian    0.01
    750 z         -2.202951     -2.200739     0.002212    Cartesian   -0.10
    751 x         11.014756     11.016846     0.002090    Cartesian    0.02
    751 y         -2.202951     -2.201505     0.001446    Cartesian   -0.07
    751 z         15.420658     15.419376    -0.001282    Cartesian   -0.01
    752 x         15.420658     15.424067     0.003409    Cartesian    0.02
    752 y         15.420658     15.419244    -0.001415    Cartesian   -0.01
    752 z          2.202951      2.207021     0.004070    Cartesian    0.18
    753 x          6.608853      6.613576     0.004722    Cartesian    0.07
    753 y         15.420658     15.422709     0.002051    Cartesian    0.01
    753 z         -6.608853     -6.605477     0.003377    Cartesian   -0.05
    754 x         -8.811805     -8.811045     0.000760    Cartesian   -0.01
    754 y          0.000000     -0.000668    -0.000668    Cartesian *******
    754 z          4.405902      4.406966     0.001064    Cartesian    0.02
    755 x          4.405902      4.406803     0.000900    Cartesian    0.02
    755 y          0.000000      0.000703     0.000703    Cartesian *******
    755 z         17.623609     17.624912     0.001303    Cartesian    0.01
    756 x         17.623609     17.624066     0.000457    Cartesian    0.00
    756 y          0.000000      0.000384     0.000384    Cartesian *******
    756 z         -4.405902     -4.404932     0.000971    Cartesian   -0.02
    757 x         13.217707     13.218942     0.001235    Cartesian    0.01
    757 y          0.000000     -0.000802    -0.000802    Cartesian *******
    757 z         -8.811805     -8.812275    -0.000470    Cartesian    0.01
    758 x         17.623609     17.622548    -0.001061    Cartesian   -0.01
    758 y         -4.405902     -4.407140    -0.001238    Cartesian    0.03
    758 z          4.405902      4.405664    -0.000239    Cartesian   -0.01
    759 x          4.405902      4.405705    -0.000197    Cartesian   -0.00
    759 y         -4.405902     -4.403459     0.002444    Cartesian   -0.06
    759 z         -8.811805     -8.811995    -0.000191    Cartesian    0.00
    760 x         15.420658     15.423339     0.002681    Cartesian    0.02
    760 y         15.420658     15.417925    -0.002733    Cartesian   -0.02
    760 z          6.608853      6.610419     0.001566    Cartesian    0.02
    761 x          2.202951      2.204565     0.001614    Cartesian    0.07
    761 y         -6.608853     -6.611718    -0.002864    Cartesian    0.04
    761 z         -6.608853     -6.605500     0.003353    Cartesian   -0.05
    762 x         -8.811805     -8.806603     0.005202    Cartesian   -0.06
    762 y          4.405902      4.405902     0.000000    Cartesian    0.00
    762 z          8.811805      8.815436     0.003631    Cartesian    0.04
    763 x         -0.000000      0.003699     0.003699    Cartesian *******
    763 y          4.405902      4.405902     0.000000    Cartesian    0.00
    763 z         17.623609     17.626060     0.002451    Cartesian    0.01
    764 x         -8.811805     -8.810956     0.000849    Cartesian   -0.01
    764 y          0.000000      0.000575     0.000575    Cartesian *******
    764 z         -0.000000     -0.000904    -0.000904    Cartesian *******
    765 x          8.811805      8.811035    -0.000769    Cartesian   -0.01
    765 y          8.811805      8.812029     0.000224    Cartesian    0.00
    765 z         17.623609     17.624531     0.000922    Cartesian    0.01
    766 x         13.217707     13.217897     0.000191    Cartesian    0.00
    766 y         -4.405902     -4.405034     0.000869    Cartesian   -0.02
    766 z         13.217707     13.217605    -0.000102    Cartesian   -0.00
    767 x         17.623609     17.623587    -0.000022    Cartesian   -0.00
    767 y         13.217707     13.216956    -0.000751    Cartesian   -0.01
    767 z         -0.000000      0.001723     0.001723    Cartesian *******
    768 x          8.811805      8.813065     0.001260    Cartesian    0.01
    768 y         -4.405902     -4.407032    -0.001130    Cartesian    0.03
    768 z         -8.811805     -8.812079    -0.000275    Cartesian    0.00
    769 x         -4.405902     -4.406501    -0.000599    Cartesian    0.01
    769 y         -4.405902     -4.407255    -0.001352    Cartesian    0.03
    769 z         -4.405902     -4.405492     0.000411    Cartesian   -0.01
    770 x         13.217707     13.215983    -0.001724    Cartesian   -0.01
    770 y         -8.811805     -8.814273    -0.002469    Cartesian    0.03
    770 z          4.405902      4.405851    -0.000052    Cartesian   -0.00
    771 x          0.000000     -0.000067    -0.000067    Cartesian *******
    771 y         -8.811805     -8.812503    -0.000698    Cartesian    0.01
    771 z          8.811805      8.811692    -0.000113    Cartesian   -0.00
    772 x          4.405902      4.405801    -0.000102    Cartesian   -0.00
    772 y         -8.811805     -8.807759     0.004046    Cartesian   -0.05
    772 z         -4.405902     -4.408422    -0.002520    Cartesian    0.06
    773 x         19.826560     19.827052     0.000491    Cartesian    0.00
    773 y          6.608853      6.609348     0.000495    Cartesian    0.01
    773 z         -2.202951     -2.199069     0.003882    Cartesian   -0.18
    774 x         11.014756     11.018581     0.003826    Cartesian    0.03
    774 y          6.608853      6.607665    -0.001189    Cartesian   -0.02
    774 z        -11.014756    -11.015851    -0.001095    Cartesian    0.01
    775 x         15.420658     15.425562     0.004904    Cartesian    0.03
    775 y         -2.202951     -2.202712     0.000240    Cartesian   -0.01
    775 z         -6.608853     -6.605059     0.003794    Cartesian   -0.06
    776 x         -2.202951     -2.200649     0.002302    Cartesian   -0.10
    776 y         -6.608853     -6.609365    -0.000511    Cartesian    0.01
    776 z         11.014756     11.017552     0.002796    Cartesian    0.03
    777 x          6.608853      6.611226     0.002372    Cartesian    0.04
    777 y         19.826560     19.826742     0.000181    Cartesian    0.00
    777 z          2.202951      2.205852     0.002901    Cartesian    0.13
    778 x         17.623609     17.622227    -0.001382    Cartesian   -0.01
    778 y          4.405902      4.405902     0.000000    Cartesian    0.00
    778 z         13.217707     13.218026     0.000319    Cartesian    0.00
    779 x         -4.405902     -4.403727     0.002175    Cartesian   -0.05
    779 y          4.405902      4.405902     0.000000    Cartesian    0.00
    779 z         -8.811805     -8.813020    -0.001215    Cartesian    0.01
    780 x          8.811805      8.812423     0.000619    Cartesian    0.01
    780 y         -8.811805     -8.812415    -0.000610    Cartesian    0.01
    780 z         -4.405902     -4.405066     0.000837    Cartesian   -0.02
    781 x         13.217707     13.218511     0.000804    Cartesian    0.01
    781 y         -8.811805     -8.811511     0.000293    Cartesian   -0.00
    781 z         -0.000000      0.000798     0.000798    Cartesian *******
    782 x         15.420658     15.421695     0.001037    Cartesian    0.01
    782 y          6.608853      6.609094     0.000241    Cartesian    0.00
    782 z         15.420658     15.417326    -0.003332    Cartesian   -0.02
    783 x         -2.202951     -2.201382     0.001569    Cartesian   -0.07
    783 y         11.014756     11.014653    -0.000102    Cartesian   -0.00
    783 z         15.420658     15.422599     0.001941    Cartesian    0.01
    784 x         19.826560     19.825354    -0.001206    Cartesian   -0.01
    784 y         -2.202951     -2.201753     0.001198    Cartesian   -0.05
    784 z          2.202951      2.204078     0.001127    Cartesian    0.05
    785 x         -6.608853     -6.607387     0.001466    Cartesian   -0.02
    785 y         11.014756     11.013829    -0.000927    Cartesian   -0.01
    785 z         11.014756     11.017451     0.002695    Cartesian    0.02
    786 x         -6.608853     -6.612976    -0.004123    Cartesian    0.06
    786 y          2.202951      2.202802    -0.000150    Cartesian   -0.01
    786 z         -6.608853     -6.606135     0.002718    Cartesian   -0.04
    787 x         15.420658     15.423110     0.002452    Cartesian    0.02
    787 y         15.420658     15.420120    -0.000538    Cartesian   -0.00
    787 z         -2.202951     -2.200040     0.002912    Cartesian   -0.13
    788 x         11.014756     11.017405     0.002649    Cartesian    0.02
    788 y         -6.608853     -6.610171    -0.001318    Cartesian    0.02
    788 z         -6.608853     -6.607049     0.001804    Cartesian   -0.03
    789 x          6.608853      6.608410    -0.000443    Cartesian   -0.01
    789 y         -2.202951     -2.204796    -0.001845    Cartesian    0.08
    789 z        -11.014756    -11.016413    -0.001657    Cartesian    0.02
    790 x          6.608853      6.610914     0.002060    Cartesian    0.03
    790 y        -11.014756    -11.016444    -0.001688    Cartesian    0.02
    790 z          6.608853      6.609929     0.001075    Cartesian    0.02
    791 x          2.202951      2.204626     0.001675    Cartesian    0.08
    791 y        -11.014756    -11.013791     0.000965    Cartesian   -0.01
    791 z          2.202951      2.205546     0.002595    Cartesian    0.12
    792 x         -8.811805     -8.811999    -0.000194    Cartesian    0.00
    792 y          0.000000      0.000322     0.000322    Cartesian    0.00
    792 z          8.811805      8.811347    -0.000458    Cartesian   -0.01
    793 x          0.000000     -0.000650    -0.000650    Cartesian *******
    793 y          8.811805      8.811853     0.000048    Cartesian    0.00
    793 z         17.623609     17.623346    -0.000263    Cartesian   -0.00
    794 x         17.623609     17.623115    -0.000495    Cartesian   -0.00
    794 y         13.217707     13.216451    -0.001256    Cartesian   -0.01
    794 z          8.811805      8.812325     0.000521    Cartesian    0.01
    795 x         -0.000000      0.000499     0.000499    Cartesian *******
    795 y         -4.405902     -4.407471    -0.001569    Cartesian    0.04
    795 z         -8.811805     -8.811845    -0.000040    Cartesian    0.00
--------------------------------------------------------------------------------


  Time to end of optimisation  =      492.4881 seconds


  Peak dynamic memory used =     607.81 MB 


  Timing analysis for GULP :

--------------------------------------------------------------------------------
  Task / Subroutine                                          Time (Seconds)
--------------------------------------------------------------------------------
  Calculation of reciprocal space energy and derivatives          0.0468
  Calculation of real space energy and derivatives                0.5172
  Calculation for region 1 energy and derivatives (2-b)         201.9511
  Calculation for region 2a energy                              250.4591
  Calculation and manipulation of Hessian matrix                  1.4508
  Calculation of matrix inversion                                36.6685
  Symmetry generation of equivalent positions                     0.0030
--------------------------------------------------------------------------------
  Total CPU time                                                492.4882
--------------------------------------------------------------------------------


  Dump file written as Na3OCl.grs


  Job Finished at 17:01.21  4th February   2021                               

