********************************************************************************
*                       GENERAL UTILITY LATTICE PROGRAM                        *
*                                 Julian Gale                                  *
*                       Curtin Institute for Computation                       *
*                    School of Molecular and Life Sciences                     *
*                    Curtin University, Western Australia                      *
********************************************************************************
* Version = 5.2.0 * Last modified =  10th September 2020                       *
********************************************************************************
*  optimise     - perform optimisation run                                     *
*  conp         - constant pressure calculation                                *
*  property     - calculate properties for final geometry                      *
*  defect       - perform defect calculation after bulk run                    *
*  compare      - compare initial and final structures                         *
********************************************************************************

  Job Started  at 17:04.24  4th February   2021                               

  Number of CPUs =     1


  Total number of configurations input =      1

********************************************************************************
*  Input for Configuration =   1                                               *
********************************************************************************

  Formula = ClONa3                                                      

  Number of irreducible atoms/shells =       5


  Total number atoms/shells =       7

  Dimensionality = 3               :  Bulk   


  Symmetry :

  Crystal family                   :  Cubic       
  Crystal class  (Groth - 1921)    :  Cubic Hexakisoctahedral              

  Space group (centrosymmetric)    :  P M 3 M         

  Patterson group                  :  P m -3 m 

  Cartesian lattice vectors (Angstroms) :

        4.504000    0.000000    0.000000
        0.000000    4.504000    0.000000
        0.000000    0.000000    4.504000

  Cell parameters (Angstroms/Degrees):

  a =       4.5040    alpha =  90.0000
  b =       4.5040    beta  =  90.0000
  c =       4.5040    gamma =  90.0000

  Initial cell volume =          91.368216 Angs**3

  Temperature of configuration =   0.00     K 

  Pressure of configuration =         0.000 GPa 

  Fractional coordinates of asymmetric unit :

--------------------------------------------------------------------------------
   No.  Atomic       x           y          z         Charge      Occupancy
        Label      (Frac)      (Frac)     (Frac)        (e)         (Frac)  
--------------------------------------------------------------------------------
      1 Cl    c    0.000000    0.000000    0.000000     1.48500    1.000000    
      2 O     c    0.500000    0.500000    0.500000     0.18300    1.000000    
      3 Na    c    0.500000    0.500000    0.000000     1.00000    1.000000    
      4 Cl    s    0.000000    0.000000    0.000000    -2.48500    1.000000    
      5 O     s    0.500000    0.500000    0.500000    -2.18300    1.000000    
--------------------------------------------------------------------------------


  Constraints : 

--------------------------------------------------------------------------------
  Constraint no.      Unconstrained     Constrained    Coefficient    Offset
                         Variable         Variable
--------------------------------------------------------------------------------
           1              Strain 1        Strain 2       1.00000      0.0000
           2              Strain 1        Strain 3       1.00000      0.0000
--------------------------------------------------------------------------------


********************************************************************************
*  General input information                                                   *
********************************************************************************

  Species output for all configurations : 

--------------------------------------------------------------------------------
  Species    Type    Atomic    Atomic    Charge       Radii (Angs)     Library
                     Number     Mass       (e)     Cova   Ionic  VDW   Symbol
--------------------------------------------------------------------------------
    Na       Core       11      22.99   1.000000   0.970  0.000  2.300          
    O        Core        8      16.00   0.183000   0.730  0.000  1.360          
    O        Shell       8       0.00  -2.183000   0.730  0.000  1.360          
    Cl       Core       17      35.45   1.485000   0.990  0.000  1.650          
    Cl       Shell      17       0.00  -2.485000   0.990  0.000  1.650          
    Mg       Core       12      24.31   0.415000   1.100  0.000  0.000          
    Mg       Shell      12       0.00   1.585000   1.100  0.000  0.000          
    Ca       Core       20      40.08  -1.135000   0.990  0.000  0.000          
    Ca       Shell      20       0.00   3.135000   0.990  0.000  0.000          
    Sr       Core       38      87.62  -1.251000   1.120  0.000  0.000          
    Sr       Shell      38       0.00   3.251000   1.120  0.000  0.000          
    Ba       Core       56     137.33  -7.203000   1.340  0.000  0.000          
    Ba       Shell      56       0.00   9.203000   1.340  0.000  0.000          
--------------------------------------------------------------------------------


  Lattice summation method               =    Ewald          (3-D)
                                         =    Parry          (2-D)
                                         =    Saunders et al (1-D)
  Accuracy factor for lattice sums       =   12.000


  Analytic derivatives to be used

  Time limit = Infinity

  Maximum range for interatomic potentials =    100000.000000 Angstroms

  General interatomic potentials :

--------------------------------------------------------------------------------
Atom  Types   Potential      Parameter       Value         Units   Cutoffs(Ang)
  1     2                                                            Min /  Max 
--------------------------------------------------------------------------------
O    c O    s Spring (c-s)  Spring k 2       593.71600    eV*Ang^-2 0.000  0.800
                            Spring k 4       0.0000000    eV*Ang^-4 
--------------------------------------------------------------------------------
Cl   c Cl   s Spring (c-s)  Spring k 2       29.380000    eV*Ang^-2 0.000  0.800
                            Spring k 4       0.0000000    eV*Ang^-4 
--------------------------------------------------------------------------------
Mg   c Mg   s Spring (c-s)  Spring k 2       361.60000    eV*Ang^-2 0.000  0.800
                            Spring k 4       0.0000000    eV*Ang^-4 
--------------------------------------------------------------------------------
Ca   c Ca   s Spring (c-s)  Spring k 2       110.20000    eV*Ang^-2 0.000  0.800
                            Spring k 4       0.0000000    eV*Ang^-4 
--------------------------------------------------------------------------------
Sr   c Sr   s Spring (c-s)  Spring k 2       71.700000    eV*Ang^-2 0.000  0.800
                            Spring k 4       0.0000000    eV*Ang^-4 
--------------------------------------------------------------------------------
Ba   c Ba   s Spring (c-s)  Spring k 2       495.20000    eV*Ang^-2 0.000  0.800
                            Spring k 4       0.0000000    eV*Ang^-4 
--------------------------------------------------------------------------------
Na   c Na   c Buckingham    Buckingham A     1788.1900    eV        0.000 12.000
                            Buckingham rho  0.15900000    Ang       
                            Buckingham C     0.0000000    eV*Ang^6  
--------------------------------------------------------------------------------
Na   c O    s Buckingham    Buckingham A     588.38000    eV        0.000 12.000
                            Buckingham rho  0.33800000    Ang       
                            Buckingham C     0.0000000    eV*Ang^6  
--------------------------------------------------------------------------------
Na   c Cl   s Buckingham    Buckingham A     1170.4100    eV        0.000 12.000
                            Buckingham rho  0.31500000    Ang       
                            Buckingham C     0.0000000    eV*Ang^6  
--------------------------------------------------------------------------------
O    s O    s Buckingham    Buckingham A     22764.300    eV        0.000 12.000
                            Buckingham rho  0.14900000    Ang       
                            Buckingham C     13.190000    eV*Ang^6  
--------------------------------------------------------------------------------
O    s Cl   s Buckingham    Buckingham A     8286.9100    eV        0.000 12.000
                            Buckingham rho  0.25900000    Ang       
                            Buckingham C     62.200000    eV*Ang^6  
--------------------------------------------------------------------------------
Cl   s Cl   s Buckingham    Buckingham A     1227.2000    eV        0.000 12.000
                            Buckingham rho  0.32100000    Ang       
                            Buckingham C     14.530000    eV*Ang^6  
--------------------------------------------------------------------------------
O    s Mg   s Buckingham    Buckingham A     1428.5000    eV        0.000 12.000
                            Buckingham rho  0.29450000    Ang       
                            Buckingham C     0.0000000    eV*Ang^6  
--------------------------------------------------------------------------------
Mg   s Cl   s Buckingham    Buckingham A     4914.5400    eV        0.000 12.000
                            Buckingham rho  0.25700000    Ang       
                            Buckingham C     0.0000000    eV*Ang^6  
--------------------------------------------------------------------------------
O    s Ca   s Buckingham    Buckingham A     1090.4000    eV        0.000 12.000
                            Buckingham rho  0.34370000    Ang       
                            Buckingham C     0.0000000    eV*Ang^6  
--------------------------------------------------------------------------------
Cl   s Ca   s Buckingham    Buckingham A     2302.0000    eV        0.000 12.000
                            Buckingham rho  0.34020000    Ang       
                            Buckingham C     0.0000000    eV*Ang^6  
--------------------------------------------------------------------------------
O    s Sr   s Buckingham    Buckingham A     959.10000    eV        0.000 12.000
                            Buckingham rho  0.37210000    Ang       
                            Buckingham C     0.0000000    eV*Ang^6  
--------------------------------------------------------------------------------
Cl   s Sr   s Buckingham    Buckingham A     2191.0900    eV        0.000 12.000
                            Buckingham rho  0.34570000    Ang       
                            Buckingham C     0.0000000    eV*Ang^6  
--------------------------------------------------------------------------------
O    s Ba   s Buckingham    Buckingham A     905.70000    eV        0.000 12.000
                            Buckingham rho  0.39760000    Ang       
                            Buckingham C     0.0000000    eV*Ang^6  
--------------------------------------------------------------------------------
Cl   s Ba   s Buckingham    Buckingham A     2704.5500    eV        0.000 12.000
                            Buckingham rho  0.35280000    Ang       
                            Buckingham C     0.0000000    eV*Ang^6  
--------------------------------------------------------------------------------

********************************************************************************
*  Output for configuration   1                                                *
********************************************************************************


  Components of energy : 

--------------------------------------------------------------------------------
  Interatomic potentials     =           4.94315381 eV    
  Monopole - monopole (real) =         -10.03624526 eV    
  Monopole - monopole (recip)=         -29.53581274 eV    
  Monopole - monopole (total)=         -39.57205800 eV    
--------------------------------------------------------------------------------
  Total lattice energy       =         -34.62890419 eV    
--------------------------------------------------------------------------------
  Total lattice energy       =           -3341.1599 kJ/(mole unit cells)
--------------------------------------------------------------------------------


  Number of variables =        1

  Maximum number of calculations  =          1000
  Maximum Hessian update interval =            10
  Maximum step size               =   1.000000000
  Maximum parameter tolerance     =   0.000010000
  Maximum function  tolerance     =   0.000010000
  Maximum gradient  tolerance     =   0.001000000
  Maximum gradient  component     =   0.010000000

  Symmetry constrained optimisation

  Symmetry used for second derivatives

  Cell parameters to be optimised using strains

  Newton-Raphson optimiser to be used

  BFGS hessian update to be used

  Lower half triangular hessian to be used

  Start of bulk optimisation :

  Cycle:      0 Energy:       -34.628904  Gnorm:      4.328237  CPU:    0.016
  ** Hessian calculated **
  Cycle:      1 Energy:       -34.677667  Gnorm:      0.044008  CPU:    0.020
  Cycle:      2 Energy:       -34.677671  Gnorm:      0.003653  CPU:    0.024


  **** Optimisation achieved ****


  Final energy =     -34.67767136 eV
  Final Gnorm  =       0.00000010

  Components of energy : 

--------------------------------------------------------------------------------
  Interatomic potentials     =           5.77546103 eV    
  Monopole - monopole (real) =         -10.25970290 eV    
  Monopole - monopole (recip)=         -30.19342950 eV    
  Monopole - monopole (total)=         -40.45313239 eV    
--------------------------------------------------------------------------------
  Total lattice energy       =         -34.67767136 eV    
--------------------------------------------------------------------------------
  Total lattice energy       =           -3345.8652 kJ/(mole unit cells)
--------------------------------------------------------------------------------

  Final asymmetric unit coordinates :

--------------------------------------------------------------------------------
   No.  Atomic        x           y           z         Radius
        Label       (Frac)      (Frac)      (Frac)       (Angs) 
--------------------------------------------------------------------------------
     1  Cl    c     0.000000    0.000000    0.000000    0.000000
     2  O     c     0.500000    0.500000    0.500000    0.000000
     3  Na    c     0.500000    0.500000    0.000000    0.000000
     4  Cl    s     0.000000    0.000000    0.000000    0.000000
     5  O     s     0.500000    0.500000    0.500000    0.000000
--------------------------------------------------------------------------------

  Final Cartesian lattice vectors (Angstroms) :

        4.405902    0.000000    0.000000
        0.000000    4.405902    0.000000
        0.000000    0.000000    4.405902


  Final cell parameters and derivatives :

--------------------------------------------------------------------------------
       a            4.405902 Angstrom     dE/de1(xx)     0.000000 eV/strain
       b            4.405902 Angstrom     dE/de2(yy)     0.000000 eV/strain
       c            4.405902 Angstrom     dE/de3(zz)     0.000000 eV/strain
       alpha       90.000000 Degrees      dE/de4(yz)     0.000000 eV/strain
       beta        90.000000 Degrees      dE/de5(xz)     0.000000 eV/strain
       gamma       90.000000 Degrees      dE/de6(xy)     0.000000 eV/strain
--------------------------------------------------------------------------------

  Primitive cell volume =            85.527266 Angs**3

  Density of cell =      2.338030 g/cm**3

  Non-primitive cell volume =            85.527266 Angs**3


  Final internal derivatives :

--------------------------------------------------------------------------------
   No.  Atomic          a             b             c           Radius
        Label          (eV)          (eV)          (eV)        (eV/Angs)
--------------------------------------------------------------------------------
      1 Cl    c       0.000000      0.000000      0.000000      0.000000
      2 O     c       0.000000      0.000000      0.000000      0.000000
      3 Na    c       0.000000      0.000000      0.000000      0.000000
      4 Cl    s       0.000000      0.000000      0.000000      0.000000
      5 O     s       0.000000      0.000000      0.000000      0.000000
--------------------------------------------------------------------------------
  Maximum abs         0.000000      0.000000      0.000000      0.000000
--------------------------------------------------------------------------------

  Comparison of initial and final structures : 

--------------------------------------------------------------------------------
  Parameter   Initial value   Final value   Difference    Units      Percent
--------------------------------------------------------------------------------
    Volume        91.368216     85.527266    -5.840950    Angs**3     -6.39
    a              4.504000      4.405902    -0.098098    Angstroms   -2.18
    b              4.504000      4.405902    -0.098098    Angstroms   -2.18
    c              4.504000      4.405902    -0.098098    Angstroms   -2.18
    alpha         90.000000     90.000000     0.000000    Degrees      0.00
    beta          90.000000     90.000000     0.000000    Degrees      0.00
    gamma         90.000000     90.000000     0.000000    Degrees      0.00
      1 x          0.000000      0.000000     0.000000    Fractional   0.00
      1 y          0.000000      0.000000     0.000000    Fractional   0.00
      1 z          0.000000      0.000000     0.000000    Fractional   0.00
      2 x          0.500000      0.500000     0.000000    Fractional   0.00
      2 y          0.500000      0.500000     0.000000    Fractional   0.00
      2 z          0.500000      0.500000     0.000000    Fractional   0.00
      3 x          0.500000      0.500000     0.000000    Fractional   0.00
      3 y          0.500000      0.500000     0.000000    Fractional   0.00
      3 z          0.000000      0.000000     0.000000    Fractional   0.00
      4 x          0.000000      0.000000     0.000000    Fractional   0.00
      4 y          0.000000      0.000000     0.000000    Fractional   0.00
      4 z          0.000000      0.000000     0.000000    Fractional   0.00
      5 x          0.500000      0.500000     0.000000    Fractional   0.00
      5 y          0.500000      0.500000     0.000000    Fractional   0.00
      5 z          0.500000      0.500000     0.000000    Fractional   0.00
--------------------------------------------------------------------------------


  Born effective charge tensors : 

-------------------------------------------------------------------------------
  Atom             x           y             z
-------------------------------------------------------------------------------
    1 Cl    x      -0.9918     -0.0000     -0.0000
            y      -0.0000     -0.9918     -0.0000
            z      -0.0000     -0.0000     -0.9918
-------------------------------------------------------------------------------
    2 O     x      -2.2939      0.0000      0.0000
            y       0.0000     -2.2939      0.0000
            z       0.0000      0.0000     -2.2939
-------------------------------------------------------------------------------
    3 Na    x       1.2243      0.0000      0.0000
            y       0.0000      1.2243     -0.0000
            z       0.0000      0.0000      0.8372
-------------------------------------------------------------------------------




  Elastic Constant Matrix: (Units=GPa)

-------------------------------------------------------------------------------
  Indices      1         2         3         4         5         6    
-------------------------------------------------------------------------------
       1     82.7680   24.3534   24.3534   -0.0000    0.0000   -0.0000
       2     24.3534   82.7680   24.3534    0.0000   -0.0000   -0.0000
       3     24.3534   24.3534   82.7680    0.0000   -0.0000    0.0000
       4     -0.0000    0.0000    0.0000   24.3534   -0.0000    0.0000
       5      0.0000   -0.0000   -0.0000   -0.0000   24.3534    0.0000
       6     -0.0000   -0.0000    0.0000    0.0000    0.0000   24.3534
-------------------------------------------------------------------------------


  Elastic Compliance Matrix: (Units=1/GPa)

-------------------------------------------------------------------------------
  Indices      1         2         3         4         5         6    
-------------------------------------------------------------------------------
       1    0.013948 -0.003171 -0.003171  0.000000 -0.000000  0.000000
       2   -0.003171  0.013948 -0.003171 -0.000000  0.000000 -0.000000
       3   -0.003171 -0.003171  0.013948 -0.000000  0.000000 -0.000000
       4    0.000000 -0.000000 -0.000000  0.041062  0.000000 -0.000000
       5   -0.000000  0.000000  0.000000  0.000000  0.041062 -0.000000
       6    0.000000 -0.000000 -0.000000 -0.000000 -0.000000  0.041062
-------------------------------------------------------------------------------

  Mechanical properties :

-------------------------------------------------------------------------------
  Convention :                    Reuss         Voigt         Hill
-------------------------------------------------------------------------------
  Bulk  Modulus (GPa)     =      43.82493      43.82493      43.82493
  Shear Modulus (GPa)     =      26.08758      26.29496      26.19127
-------------------------------------------------------------------------------
  Velocity S-wave (km/s)  =       3.34035       3.35360       3.34698
  Velocity P-wave (km/s)  =       5.79842       5.80861       5.80351
-------------------------------------------------------------------------------
  Compressibility (1/GPa) =    0.02281806
-------------------------------------------------------------------------------
  Stress axis :                     x             y             z
-------------------------------------------------------------------------------
  Youngs Moduli (GPa)     =      71.69479      71.69479      71.69479
-------------------------------------------------------------------------------
  Poissons Ratio (x)      =                     0.22734       0.22734
  Poissons Ratio (y)      =       0.22734                     0.22734
  Poissons Ratio (z)      =       0.22734       0.22734
-------------------------------------------------------------------------------


  Piezoelectric Strain Matrix: (Units=C/m**2)

-------------------------------------------------------------------------------
  Indices      1         2         3         4         5         6    
-------------------------------------------------------------------------------
       x    -0.00000  -0.00000  -0.00000  -0.00000   0.00000  -0.00000
       y     0.00000  -0.00000   0.00000   0.00000  -0.00000   0.00000
       z    -0.00000  -0.00000   0.00000  -0.00000   0.00000  -0.00000
-------------------------------------------------------------------------------


  Piezoelectric Stress Matrix: (Units=10**-11 C/N)

-------------------------------------------------------------------------------
  Indices      1         2         3         4         5         6    
-------------------------------------------------------------------------------
       x     0.00000  -0.00000  -0.00000  -0.00000   0.00000  -0.00000
       y     0.00000  -0.00000   0.00000   0.00000  -0.00000   0.00000
       z    -0.00000  -0.00000   0.00000  -0.00000   0.00000  -0.00000
-------------------------------------------------------------------------------


  Static dielectric constant tensor : 

-------------------------------------------------------------------------------
              x         y         z
-------------------------------------------------------------------------------
       x    11.08357   0.00000   0.00000
       y     0.00000  11.08357   0.00000
       z     0.00000   0.00000  11.08357
--------------------------------------------------------------------------------

  High frequency dielectric constant tensor : 

-------------------------------------------------------------------------------
              x         y         z
-------------------------------------------------------------------------------
       x     1.50771   0.00000   0.00000
       y     0.00000   1.50771   0.00000
       z     0.00000   0.00000   1.50771
-------------------------------------------------------------------------------

  Static refractive indices : 

-------------------------------------------------------------------------------
    1 =    3.32920      2 =    3.32920      3 =    3.32920
-------------------------------------------------------------------------------

  High frequency refractive indices : 

-------------------------------------------------------------------------------
    1 =    1.22789      2 =    1.22789      3 =    1.22789
-------------------------------------------------------------------------------


  Time to end of optimisation =       0.0336 seconds

********************************************************************************
*  Defect calculation for configuration   1 :                                  *
********************************************************************************

  Total number of defects =      1

  Total charge on defect  =   1.00

  Defect centre is at   0.5000   0.5000   0.0000  Frac

  Region 1 radius =  16.0000      Number of ions =   1372

  Number of symmetry inequivalent region 1 ions  =    141

  Region 2 radius =  24.0000      Number of ions =   3404

  Number of symmetry inequivalent region 2a ions =    274

  Region 2a mode = 4 : screened electrostatics due to region 1 
                       neglect correction to region 1 forces from 2a
                       region 2a displacements based on defects only

  Region 2a ions will only interact with defects in region 1

  Impurities:

--------------------------------------------------------------------------------
    Specification type     Symbol/Number         x          y          z
--------------------------------------------------------------------------------
    Frac/Symbol             Ca               0.500000   0.500000   0.000000
--------------------------------------------------------------------------------


  Symmetry reduced region 1 (Relative to defect centre) :

--------------------------------------------------------------------------------
   No.   Atomic       x            y             z       Radius  Multiplicity   
         Label      (Angs)       (Angs)        (Angs)    (Angs)     
--------------------------------------------------------------------------------
     1  Ca    c      0.0000       0.0000       0.0000    0.0000     1    Defect
     2  O     c      0.0000       0.0000      -2.2030 *  0.0000     2          
     3  Cl    c      2.2030 *     2.2030       0.0000    0.0000     4          
     4  Na    c      2.2030 *     0.0000      -2.2030 *  0.0000     8          
     5  Na    c      0.0000       0.0000       4.4059 *  0.0000     2          
     6  Na    c      0.0000       4.4059 *     0.0000    0.0000     4          
     7  O     c      0.0000       4.4059 *    -2.2030 *  0.0000     8          
     8  Na    c      2.2030 *     4.4059 *    -2.2030 *  0.0000    16          
     9  Cl    c      2.2030 *     2.2030       4.4059 *  0.0000     8          
    10  Na    c      0.0000       4.4059 *     4.4059 *  0.0000     8          
    11  Na    c      4.4059 *     4.4059       0.0000    0.0000     4          
    12  O     c      0.0000       0.0000       6.6089 *  0.0000     2          
    13  O     c      4.4059 *     4.4059      -2.2030 *  0.0000     8          
    14  Cl    c      2.2030 *     6.6089 *     0.0000    0.0000     8          
    15  Na    c      2.2030 *     0.0000       6.6089 *  0.0000     8          
    16  Na    c      6.6089 *     0.0000      -2.2030 *  0.0000     8          
    17  Na    c      4.4059 *     4.4059       4.4059 *  0.0000     8          
    18  O     c      0.0000       4.4059 *     6.6089 *  0.0000     8          
    19  Cl    c      2.2030 *     6.6089 *     4.4059 *  0.0000    16          
    20  Na    c      2.2030 *     4.4059 *     6.6089 *  0.0000    16          
    21  Na    c      6.6089 *     4.4059 *    -2.2030 *  0.0000    16          
    22  Na    c      0.0000       0.0000       8.8118 *  0.0000     2          
    23  Na    c      0.0000       8.8118 *     0.0000    0.0000     4          
    24  O     c      4.4059 *     4.4059       6.6089 *  0.0000     8          
    25  O     c      0.0000       8.8118 *    -2.2030 *  0.0000     8          
    26  Cl    c      2.2030 *     2.2030       8.8118 *  0.0000     8          
    27  Cl    c      6.6089 *     6.6089       0.0000    0.0000     4          
    28  Na    c      6.6089 *     0.0000       6.6089 *  0.0000     8          
    29  Na    c      2.2030 *     8.8118 *    -2.2030 *  0.0000    16          
    30  Na    c      0.0000       4.4059 *     8.8118 *  0.0000     8          
    31  Na    c      0.0000       8.8118 *     4.4059 *  0.0000     8          
    32  Na    c      4.4059 *     8.8118 *     0.0000    0.0000     8          
    33  O     c      4.4059 *     8.8118 *    -2.2030 *  0.0000    16          
    34  Cl    c      6.6089 *     6.6089       4.4059 *  0.0000     8          
    35  Na    c      6.6089 *     4.4059 *     6.6089 *  0.0000    16          
    36  Na    c      4.4059 *     8.8118 *     4.4059 *  0.0000    16          
    37  Na    c      4.4059 *     4.4059       8.8118 *  0.0000     8          
    38  O     c      0.0000       0.0000      11.0148 *  0.0000     2          
    39  O     c      0.0000       8.8118 *     6.6089 *  0.0000     8          
    40  Cl    c      2.2030 *     6.6089 *     8.8118 *  0.0000    16          
    41  Cl    c      2.2030 *    11.0148 *     0.0000    0.0000     8          
    42  Na    c      2.2030 *     0.0000      11.0148 *  0.0000     8          
    43  Na    c      2.2030 *     8.8118 *     6.6089 *  0.0000    16          
    44  Na    c     11.0148 *     0.0000      -2.2030 *  0.0000     8          
    45  Na    c      6.6089 *     8.8118 *    -2.2030 *  0.0000    16          
    46  O     c      0.0000       4.4059 *    11.0148 *  0.0000     8          
    47  O     c      4.4059 *     8.8118 *     6.6089 *  0.0000    16          
    48  Cl    c      2.2030 *    11.0148 *     4.4059 *  0.0000    16          
    49  Na    c      2.2030 *     4.4059 *    11.0148 *  0.0000    16          
    50  Na    c     11.0148 *     4.4059 *    -2.2030 *  0.0000    16          
    51  Na    c      0.0000       8.8118 *     8.8118 *  0.0000     8          
    52  Na    c      8.8118 *     8.8118       0.0000    0.0000     4          
    53  O     c      4.4059 *     4.4059      11.0148 *  0.0000     8          
    54  O     c      8.8118 *     8.8118      -2.2030 *  0.0000     8          
    55  Cl    c      6.6089 *     6.6089       8.8118 *  0.0000     8          
    56  Cl    c      6.6089 *    11.0148 *     0.0000    0.0000     8          
    57  Na    c      6.6089 *     0.0000      11.0148 *  0.0000     8          
    58  Na    c     11.0148 *     0.0000       6.6089 *  0.0000     8          
    59  Na    c      6.6089 *     8.8118 *     6.6089 *  0.0000    16          
    60  Na    c      0.0000       0.0000      13.2177 *  0.0000     2          
    61  Na    c      0.0000      13.2177 *     0.0000    0.0000     4          
    62  Na    c      4.4059 *     8.8118 *     8.8118 *  0.0000    16          
    63  Na    c      8.8118 *     8.8118       4.4059 *  0.0000     8          
    64  O     c      0.0000      13.2177 *    -2.2030 *  0.0000     8          
    65  Cl    c      6.6089 *    11.0148 *     4.4059 *  0.0000    16          
    66  Na    c      2.2030 *    13.2177 *    -2.2030 *  0.0000    16          
    67  Cl    c      2.2030 *     2.2030      13.2177 *  0.0000     8          
    68  Na    c      6.6089 *     4.4059 *    11.0148 *  0.0000    16          
    69  Na    c     11.0148 *     4.4059 *     6.6089 *  0.0000    16          
    70  Na    c      0.0000       4.4059 *    13.2177 *  0.0000     8          
    71  Na    c      0.0000      13.2177 *     4.4059 *  0.0000     8          
    72  Na    c      4.4059 *    13.2177 *     0.0000    0.0000     8          
    73  O     c      4.4059 *    13.2177 *    -2.2030 *  0.0000    16          
    74  O     c      0.0000       8.8118 *    11.0148 *  0.0000     8          
    75  O     c      8.8118 *     8.8118       6.6089 *  0.0000     8          
    76  Cl    c      2.2030 *    11.0148 *     8.8118 *  0.0000    16          
    77  Na    c      2.2030 *     8.8118 *    11.0148 *  0.0000    16          
    78  Na    c     11.0148 *     8.8118 *    -2.2030 *  0.0000    16          
    79  Na    c      4.4059 *    13.2177 *     4.4059 *  0.0000    16          
    80  Na    c      4.4059 *     4.4059      13.2177 *  0.0000     8          
    81  O     c      4.4059 *     8.8118 *    11.0148 *  0.0000    16          
    82  O     c      0.0000      13.2177 *     6.6089 *  0.0000     8          
    83  Cl    c      2.2030 *     6.6089 *    13.2177 *  0.0000    16          
    84  Na    c      2.2030 *    13.2177 *     6.6089 *  0.0000    16          
    85  Na    c      6.6089 *    13.2177 *    -2.2030 *  0.0000    16          
    86  Na    c      8.8118 *     8.8118       8.8118 *  0.0000     8          
    87  O     c      0.0000       0.0000      15.4207 *  0.0000     2          
    88  O     c      4.4059 *    13.2177 *     6.6089 *  0.0000    16          
    89  Cl    c      2.2030 *    15.4207 *     0.0000    0.0000     8          
    90  Cl    c      6.6089 *    11.0148 *     8.8118 *  0.0000    16          
    91  Cl    c     11.0148 *    11.0148       0.0000    0.0000     4          
    92  Na    c      2.2030 *     0.0000      15.4207 *  0.0000     8          
    93  Na    c     11.0148 *     0.0000      11.0148 *  0.0000     8          
    94  Na    c     15.4207 *     0.0000      -2.2030 *  0.0000     8          
    95  Na    c      6.6089 *     8.8118 *    11.0148 *  0.0000    16          
    96  Na    c     11.0148 *     8.8118 *     6.6089 *  0.0000    16          
    97  Na    c      0.0000       8.8118 *    13.2177 *  0.0000     8          
    98  Na    c      0.0000      13.2177 *     8.8118 *  0.0000     8          
    99  Na    c      8.8118 *    13.2177 *     0.0000    0.0000     8          
   100  Ca    s      0.0000       0.0000       0.0000    0.0000     1    Defect
   101  O     s      0.0000       0.0000      -2.2030 *  0.0000     2          
   102  Cl    s      2.2030 *     2.2030       0.0000    0.0000     4          
   103  O     s      0.0000       4.4059 *    -2.2030 *  0.0000     8          
   104  Cl    s      2.2030 *     2.2030       4.4059 *  0.0000     8          
   105  O     s      0.0000       0.0000       6.6089 *  0.0000     2          
   106  O     s      4.4059 *     4.4059      -2.2030 *  0.0000     8          
   107  Cl    s      2.2030 *     6.6089 *     0.0000    0.0000     8          
   108  O     s      0.0000       4.4059 *     6.6089 *  0.0000     8          
   109  Cl    s      2.2030 *     6.6089 *     4.4059 *  0.0000    16          
   110  O     s      4.4059 *     4.4059       6.6089 *  0.0000     8          
   111  O     s      0.0000       8.8118 *    -2.2030 *  0.0000     8          
   112  Cl    s      2.2030 *     2.2030       8.8118 *  0.0000     8          
   113  Cl    s      6.6089 *     6.6089       0.0000    0.0000     4          
   114  O     s      4.4059 *     8.8118 *    -2.2030 *  0.0000    16          
   115  Cl    s      6.6089 *     6.6089       4.4059 *  0.0000     8          
   116  O     s      0.0000       0.0000      11.0148 *  0.0000     2          
   117  O     s      0.0000       8.8118 *     6.6089 *  0.0000     8          
   118  Cl    s      2.2030 *     6.6089 *     8.8118 *  0.0000    16          
   119  Cl    s      2.2030 *    11.0148 *     0.0000    0.0000     8          
   120  O     s      0.0000       4.4059 *    11.0148 *  0.0000     8          
   121  O     s      4.4059 *     8.8118 *     6.6089 *  0.0000    16          
   122  Cl    s      2.2030 *    11.0148 *     4.4059 *  0.0000    16          
   123  O     s      4.4059 *     4.4059      11.0148 *  0.0000     8          
   124  O     s      8.8118 *     8.8118      -2.2030 *  0.0000     8          
   125  Cl    s      6.6089 *     6.6089       8.8118 *  0.0000     8          
   126  Cl    s      6.6089 *    11.0148 *     0.0000    0.0000     8          
   127  O     s      0.0000      13.2177 *    -2.2030 *  0.0000     8          
   128  Cl    s      6.6089 *    11.0148 *     4.4059 *  0.0000    16          
   129  Cl    s      2.2030 *     2.2030      13.2177 *  0.0000     8          
   130  O     s      4.4059 *    13.2177 *    -2.2030 *  0.0000    16          
   131  O     s      0.0000       8.8118 *    11.0148 *  0.0000     8          
   132  O     s      8.8118 *     8.8118       6.6089 *  0.0000     8          
   133  Cl    s      2.2030 *    11.0148 *     8.8118 *  0.0000    16          
   134  O     s      4.4059 *     8.8118 *    11.0148 *  0.0000    16          
   135  O     s      0.0000      13.2177 *     6.6089 *  0.0000     8          
   136  Cl    s      2.2030 *     6.6089 *    13.2177 *  0.0000    16          
   137  O     s      0.0000       0.0000      15.4207 *  0.0000     2          
   138  O     s      4.4059 *    13.2177 *     6.6089 *  0.0000    16          
   139  Cl    s      2.2030 *    15.4207 *     0.0000    0.0000     8          
   140  Cl    s      6.6089 *    11.0148 *     8.8118 *  0.0000    16          
   141  Cl    s     11.0148 *    11.0148       0.0000    0.0000     4          
--------------------------------------------------------------------------------


  Constraints on symmetry reduced coordinates :

--------------------------------------------------------------------------------
  Constraint no.      Unconstrained     Constrained    Coefficient    
                         Variable         Variable
--------------------------------------------------------------------------------
           1                 3 x             3 y         1.00000
           2                 9 x             9 y         1.00000
           3                11 x            11 y         1.00000
           4                13 x            13 y         1.00000
           5                17 x            17 y         1.00000
           6                24 x            24 y         1.00000
           7                26 x            26 y         1.00000
           8                27 x            27 y         1.00000
           9                34 x            34 y         1.00000
          10                37 x            37 y         1.00000
          11                52 x            52 y         1.00000
          12                53 x            53 y         1.00000
          13                54 x            54 y         1.00000
          14                55 x            55 y         1.00000
          15                63 x            63 y         1.00000
          16                67 x            67 y         1.00000
          17                75 x            75 y         1.00000
          18                80 x            80 y         1.00000
          19                86 x            86 y         1.00000
          20                91 x            91 y         1.00000
          21               102 x           102 y         1.00000
          22               104 x           104 y         1.00000
          23               106 x           106 y         1.00000
          24               110 x           110 y         1.00000
          25               112 x           112 y         1.00000
          26               113 x           113 y         1.00000
          27               115 x           115 y         1.00000
          28               123 x           123 y         1.00000
          29               124 x           124 y         1.00000
          30               125 x           125 y         1.00000
          31               129 x           129 y         1.00000
          32               132 x           132 y         1.00000
          33               141 x           141 y         1.00000
--------------------------------------------------------------------------------


  Components of defect energy : 

--------------------------------------------------------------------------------
  Region 1 - region 1                   =      5.27373690 eV
  Region 1 - region 2a (unrelaxed)      =    -13.23428675 eV
  Region 1 - 2a (relaxed - correction)  =     -0.27991503 eV
  Region 1 (Total)                      =     -8.24046488 eV
  Region 2a                             =      0.13997706 eV
  Region 2b                             =     -0.27216525 eV
--------------------------------------------------------------------------------
  Total defect energy                   =     -8.37265307 eV
--------------------------------------------------------------------------------

  Largest displacement in region 2 =   0.0090 Angstroms


  Number of variables =      302

  Maximum number of calculations  =        1000
  Maximum Hessian update interval =          10
  Maximum step size               =   1.0000000
  Maximum parameter tolerance     =   0.0000100
  Maximum function  tolerance     =   0.0000100
  Maximum gradient  tolerance     =   0.0010000

  Symmetry adapted optimisation

  Symmetry to be used for second derivatives

  Newton-Raphson optimiser to be used

  BFGS hessian update to be used

  Lower half triangular hessian to be used

  Start of defect optimisation :

  Cycle:      0 Defect Energy:  -8.372653  Gnorm:     0.133443  CPU:    6.755
  ** Hessian calculated **
  Cycle:      1 Defect Energy: -11.118058  Gnorm:     0.018880  CPU:   12.464
  Cycle:      2 Defect Energy: -11.183379  Gnorm:     0.001805  CPU:   17.050
  Cycle:      3 Defect Energy: -11.185957  Gnorm:     0.001144  CPU:   18.355
  Cycle:      4 Defect Energy: -11.186796  Gnorm:     0.000788  CPU:   19.539
  Cycle:      5 Defect Energy: -11.187216  Gnorm:     0.000558  CPU:   20.718
  Cycle:      6 Defect Energy: -11.187424  Gnorm:     0.000387  CPU:   21.897
  Cycle:      7 Defect Energy: -11.187527  Gnorm:     0.000274  CPU:   23.072
  Cycle:      8 Defect Energy: -11.187578  Gnorm:     0.000194  CPU:   24.227
  Cycle:      9 Defect Energy: -11.187604  Gnorm:     0.000143  CPU:   25.236
  Cycle:     10 Defect Energy: -11.187617  Gnorm:     0.000102  CPU:   26.742
  ** Hessian calculated **
  Cycle:     11 Defect Energy: -11.187624  Gnorm:     0.000069  CPU:   29.997


  **** Optimisation achieved ****


  Final defect energy  =      -11.18762753
  Final defect Gnorm   =        0.00006159

  Components of defect energy : 

--------------------------------------------------------------------------------
  Region 1 - region 1                   =      1.15232241 eV
  Region 1 - region 2a (unrelaxed)      =    -11.94539430 eV
  Region 1 - 2a (relaxed - correction)  =     -0.24475028 eV
  Region 1 (Total)                      =    -11.03782217 eV
  Region 2a                             =      0.12235989 eV
  Region 2b                             =     -0.27216525 eV
--------------------------------------------------------------------------------
  Total defect energy                   =    -11.18762753 eV
--------------------------------------------------------------------------------

  Largest displacement in region 2 =   0.0090 Angstroms

  Final coordinates of region 1 :

--------------------------------------------------------------------------------
   No.  Atomic        x           y           z          Radius      Charge
        Label       (Angs)      (Angs)      (Angs)       (Angs)       (e) 
--------------------------------------------------------------------------------
     1  Ca    c     2.202951    2.202951    0.000000    0.000000   -1.135000
     2  O     c     2.202951    2.202951   -2.095379    0.000000    0.183000
     3  O     c     2.202951    2.202951    2.095379    0.000000    0.183000
     4  Cl    c     4.377806    4.377806    0.000000    0.000000    1.485000
     5  Cl    c     4.377806    0.028096    0.000000    0.000000    1.485000
     6  Cl    c     0.028096    4.377806    0.000000    0.000000    1.485000
     7  Cl    c     0.028096    0.028096    0.000000    0.000000    1.485000
     8  Na    c     4.479453    2.202951   -2.417467    0.000000    1.000000
     9  Na    c     4.479453    2.202951    2.417467    0.000000    1.000000
    10  Na    c    -0.073550    2.202951   -2.417467    0.000000    1.000000
    11  Na    c    -0.073550    2.202951    2.417467    0.000000    1.000000
    12  Na    c     2.202951    4.479453   -2.417467    0.000000    1.000000
    13  Na    c     2.202951    4.479453    2.417467    0.000000    1.000000
    14  Na    c     2.202951   -0.073550   -2.417467    0.000000    1.000000
    15  Na    c     2.202951   -0.073550    2.417467    0.000000    1.000000
    16  Na    c     2.202951    2.202951    4.427732    0.000000    1.000000
    17  Na    c     2.202951    2.202951   -4.427732    0.000000    1.000000
    18  Na    c     2.202951    6.571185    0.000000    0.000000    1.000000
    19  Na    c     2.202951   -2.165283    0.000000    0.000000    1.000000
    20  Na    c     6.571185    2.202951    0.000000    0.000000    1.000000
    21  Na    c    -2.165283    2.202951    0.000000    0.000000    1.000000
    22  O     c     2.202951    6.631209   -2.210912    0.000000    0.183000
    23  O     c     2.202951    6.631209    2.210912    0.000000    0.183000
    24  O     c     2.202951   -2.225306   -2.210912    0.000000    0.183000
    25  O     c     2.202951   -2.225306    2.210912    0.000000    0.183000
    26  O     c     6.631209    2.202951   -2.210912    0.000000    0.183000
    27  O     c     6.631209    2.202951    2.210912    0.000000    0.183000
    28  O     c    -2.225306    2.202951   -2.210912    0.000000    0.183000
    29  O     c    -2.225306    2.202951    2.210912    0.000000    0.183000
    30  Na    c     4.412372    6.651552   -2.203991    0.000000    1.000000
    31  Na    c     4.412372    6.651552    2.203991    0.000000    1.000000
    32  Na    c     4.412372   -2.245650   -2.203991    0.000000    1.000000
    33  Na    c     4.412372   -2.245650    2.203991    0.000000    1.000000
    34  Na    c    -0.006470    6.651552   -2.203991    0.000000    1.000000
    35  Na    c    -0.006470    6.651552    2.203991    0.000000    1.000000
    36  Na    c    -0.006470   -2.245650   -2.203991    0.000000    1.000000
    37  Na    c    -0.006470   -2.245650    2.203991    0.000000    1.000000
    38  Na    c     6.651552    4.412372   -2.203991    0.000000    1.000000
    39  Na    c     6.651552    4.412372    2.203991    0.000000    1.000000
    40  Na    c     6.651552   -0.006470   -2.203991    0.000000    1.000000
    41  Na    c     6.651552   -0.006470    2.203991    0.000000    1.000000
    42  Na    c    -2.245650    4.412372   -2.203991    0.000000    1.000000
    43  Na    c    -2.245650    4.412372    2.203991    0.000000    1.000000
    44  Na    c    -2.245650   -0.006470   -2.203991    0.000000    1.000000
    45  Na    c    -2.245650   -0.006470    2.203991    0.000000    1.000000
    46  Cl    c     4.351524    4.351524    4.362805    0.000000    1.485000
    47  Cl    c     4.351524    4.351524   -4.362805    0.000000    1.485000
    48  Cl    c     4.351524    0.054379    4.362805    0.000000    1.485000
    49  Cl    c     4.351524    0.054379   -4.362805    0.000000    1.485000
    50  Cl    c     0.054379    4.351524    4.362805    0.000000    1.485000
    51  Cl    c     0.054379    4.351524   -4.362805    0.000000    1.485000
    52  Cl    c     0.054379    0.054379    4.362805    0.000000    1.485000
    53  Cl    c     0.054379    0.054379   -4.362805    0.000000    1.485000
    54  Na    c     2.202951    6.762657    4.424216    0.000000    1.000000
    55  Na    c     2.202951    6.762657   -4.424216    0.000000    1.000000
    56  Na    c     2.202951   -2.356755    4.424216    0.000000    1.000000
    57  Na    c     2.202951   -2.356755   -4.424216    0.000000    1.000000
    58  Na    c     6.762657    2.202951    4.424216    0.000000    1.000000
    59  Na    c     6.762657    2.202951   -4.424216    0.000000    1.000000
    60  Na    c    -2.356755    2.202951    4.424216    0.000000    1.000000
    61  Na    c    -2.356755    2.202951   -4.424216    0.000000    1.000000
    62  Na    c     6.639806    6.639806    0.000000    0.000000    1.000000
    63  Na    c     6.639806   -2.233903    0.000000    0.000000    1.000000
    64  Na    c    -2.233903    6.639806    0.000000    0.000000    1.000000
    65  Na    c    -2.233903   -2.233903    0.000000    0.000000    1.000000
    66  O     c     2.202951    2.202951    6.598622    0.000000    0.183000
    67  O     c     2.202951    2.202951   -6.598622    0.000000    0.183000
    68  O     c     6.609465    6.609465   -2.201865    0.000000    0.183000
    69  O     c     6.609465    6.609465    2.201865    0.000000    0.183000
    70  O     c     6.609465   -2.203563   -2.201865    0.000000    0.183000
    71  O     c     6.609465   -2.203563    2.201865    0.000000    0.183000
    72  O     c    -2.203563    6.609465   -2.201865    0.000000    0.183000
    73  O     c    -2.203563    6.609465    2.201865    0.000000    0.183000
    74  O     c    -2.203563   -2.203563   -2.201865    0.000000    0.183000
    75  O     c    -2.203563   -2.203563    2.201865    0.000000    0.183000
    76  Cl    c     4.403854    8.791600    0.000000    0.000000    1.485000
    77  Cl    c     4.403854   -4.385698    0.000000    0.000000    1.485000
    78  Cl    c     8.791600    4.403854    0.000000    0.000000    1.485000
    79  Cl    c     8.791600    0.002048    0.000000    0.000000    1.485000
    80  Cl    c     0.002048    8.791600    0.000000    0.000000    1.485000
    81  Cl    c     0.002048   -4.385698    0.000000    0.000000    1.485000
    82  Cl    c    -4.385698    4.403854    0.000000    0.000000    1.485000
    83  Cl    c    -4.385698    0.002048    0.000000    0.000000    1.485000
    84  Na    c     4.415278    2.202951    6.604436    0.000000    1.000000
    85  Na    c     4.415278    2.202951   -6.604436    0.000000    1.000000
    86  Na    c    -0.009376    2.202951    6.604436    0.000000    1.000000
    87  Na    c    -0.009376    2.202951   -6.604436    0.000000    1.000000
    88  Na    c     2.202951    4.415278    6.604436    0.000000    1.000000
    89  Na    c     2.202951    4.415278   -6.604436    0.000000    1.000000
    90  Na    c     2.202951   -0.009376    6.604436    0.000000    1.000000
    91  Na    c     2.202951   -0.009376   -6.604436    0.000000    1.000000
    92  Na    c     8.834195    2.202951   -2.125009    0.000000    1.000000
    93  Na    c     8.834195    2.202951    2.125009    0.000000    1.000000
    94  Na    c    -4.428292    2.202951   -2.125009    0.000000    1.000000
    95  Na    c    -4.428292    2.202951    2.125009    0.000000    1.000000
    96  Na    c     2.202951    8.834195   -2.125009    0.000000    1.000000
    97  Na    c     2.202951    8.834195    2.125009    0.000000    1.000000
    98  Na    c     2.202951   -4.428292   -2.125009    0.000000    1.000000
    99  Na    c     2.202951   -4.428292    2.125009    0.000000    1.000000
   100  Na    c     6.627253    6.627253    4.406907    0.000000    1.000000
   101  Na    c     6.627253    6.627253   -4.406907    0.000000    1.000000
   102  Na    c     6.627253   -2.221350    4.406907    0.000000    1.000000
   103  Na    c     6.627253   -2.221350   -4.406907    0.000000    1.000000
   104  Na    c    -2.221350    6.627253    4.406907    0.000000    1.000000
   105  Na    c    -2.221350    6.627253   -4.406907    0.000000    1.000000
   106  Na    c    -2.221350   -2.221350    4.406907    0.000000    1.000000
   107  Na    c    -2.221350   -2.221350   -4.406907    0.000000    1.000000
   108  O     c     2.202951    6.620812    6.614368    0.000000    0.183000
   109  O     c     2.202951    6.620812   -6.614368    0.000000    0.183000
   110  O     c     2.202951   -2.214910    6.614368    0.000000    0.183000
   111  O     c     2.202951   -2.214910   -6.614368    0.000000    0.183000
   112  O     c     6.620812    2.202951    6.614368    0.000000    0.183000
   113  O     c     6.620812    2.202951   -6.614368    0.000000    0.183000
   114  O     c    -2.214910    2.202951    6.614368    0.000000    0.183000
   115  O     c    -2.214910    2.202951   -6.614368    0.000000    0.183000
   116  Cl    c     4.404867    8.800044    4.400382    0.000000    1.485000
   117  Cl    c     4.404867    8.800044   -4.400382    0.000000    1.485000
   118  Cl    c     4.404867   -4.394141    4.400382    0.000000    1.485000
   119  Cl    c     4.404867   -4.394141   -4.400382    0.000000    1.485000
   120  Cl    c     8.800044    4.404867    4.400382    0.000000    1.485000
   121  Cl    c     8.800044    4.404867   -4.400382    0.000000    1.485000
   122  Cl    c     8.800044    0.001035    4.400382    0.000000    1.485000
   123  Cl    c     8.800044    0.001035   -4.400382    0.000000    1.485000
   124  Cl    c     0.001035    8.800044    4.400382    0.000000    1.485000
   125  Cl    c     0.001035    8.800044   -4.400382    0.000000    1.485000
   126  Cl    c     0.001035   -4.394141    4.400382    0.000000    1.485000
   127  Cl    c     0.001035   -4.394141   -4.400382    0.000000    1.485000
   128  Cl    c    -4.394141    4.404867    4.400382    0.000000    1.485000
   129  Cl    c    -4.394141    4.404867   -4.400382    0.000000    1.485000
   130  Cl    c    -4.394141    0.001035    4.400382    0.000000    1.485000
   131  Cl    c    -4.394141    0.001035   -4.400382    0.000000    1.485000
   132  Na    c     4.405657    6.624230    6.631201    0.000000    1.000000
   133  Na    c     4.405657    6.624230   -6.631201    0.000000    1.000000
   134  Na    c     4.405657   -2.218328    6.631201    0.000000    1.000000
   135  Na    c     4.405657   -2.218328   -6.631201    0.000000    1.000000
   136  Na    c     0.000246    6.624230    6.631201    0.000000    1.000000
   137  Na    c     0.000246    6.624230   -6.631201    0.000000    1.000000
   138  Na    c     0.000246   -2.218328    6.631201    0.000000    1.000000
   139  Na    c     0.000246   -2.218328   -6.631201    0.000000    1.000000
   140  Na    c     6.624230    4.405657    6.631201    0.000000    1.000000
   141  Na    c     6.624230    4.405657   -6.631201    0.000000    1.000000
   142  Na    c     6.624230    0.000246    6.631201    0.000000    1.000000
   143  Na    c     6.624230    0.000246   -6.631201    0.000000    1.000000
   144  Na    c    -2.218328    4.405657    6.631201    0.000000    1.000000
   145  Na    c    -2.218328    4.405657   -6.631201    0.000000    1.000000
   146  Na    c    -2.218328    0.000246    6.631201    0.000000    1.000000
   147  Na    c    -2.218328    0.000246   -6.631201    0.000000    1.000000
   148  Na    c     8.820475    6.622512   -2.207476    0.000000    1.000000
   149  Na    c     8.820475    6.622512    2.207476    0.000000    1.000000
   150  Na    c     8.820475   -2.216610   -2.207476    0.000000    1.000000
   151  Na    c     8.820475   -2.216610    2.207476    0.000000    1.000000
   152  Na    c    -4.414573    6.622512   -2.207476    0.000000    1.000000
   153  Na    c    -4.414573    6.622512    2.207476    0.000000    1.000000
   154  Na    c    -4.414573   -2.216610   -2.207476    0.000000    1.000000
   155  Na    c    -4.414573   -2.216610    2.207476    0.000000    1.000000
   156  Na    c     6.622512    8.820475   -2.207476    0.000000    1.000000
   157  Na    c     6.622512    8.820475    2.207476    0.000000    1.000000
   158  Na    c     6.622512   -4.414573   -2.207476    0.000000    1.000000
   159  Na    c     6.622512   -4.414573    2.207476    0.000000    1.000000
   160  Na    c    -2.216610    8.820475   -2.207476    0.000000    1.000000
   161  Na    c    -2.216610    8.820475    2.207476    0.000000    1.000000
   162  Na    c    -2.216610   -4.414573   -2.207476    0.000000    1.000000
   163  Na    c    -2.216610   -4.414573    2.207476    0.000000    1.000000
   164  Na    c     2.202951    2.202951    8.808332    0.000000    1.000000
   165  Na    c     2.202951    2.202951   -8.808332    0.000000    1.000000
   166  Na    c     2.202951   11.111911    0.000000    0.000000    1.000000
   167  Na    c     2.202951   -6.706008    0.000000    0.000000    1.000000
   168  Na    c    11.111911    2.202951    0.000000    0.000000    1.000000
   169  Na    c    -6.706008    2.202951    0.000000    0.000000    1.000000
   170  O     c     6.603746    6.603746    6.603963    0.000000    0.183000
   171  O     c     6.603746    6.603746   -6.603963    0.000000    0.183000
   172  O     c     6.603746   -2.197843    6.603963    0.000000    0.183000
   173  O     c     6.603746   -2.197843   -6.603963    0.000000    0.183000
   174  O     c    -2.197843    6.603746    6.603963    0.000000    0.183000
   175  O     c    -2.197843    6.603746   -6.603963    0.000000    0.183000
   176  O     c    -2.197843   -2.197843    6.603963    0.000000    0.183000
   177  O     c    -2.197843   -2.197843   -6.603963    0.000000    0.183000
   178  O     c     2.202951   11.024130   -2.200679    0.000000    0.183000
   179  O     c     2.202951   11.024130    2.200679    0.000000    0.183000
   180  O     c     2.202951   -6.618227   -2.200679    0.000000    0.183000
   181  O     c     2.202951   -6.618227    2.200679    0.000000    0.183000
   182  O     c    11.024130    2.202951   -2.200679    0.000000    0.183000
   183  O     c    11.024130    2.202951    2.200679    0.000000    0.183000
   184  O     c    -6.618227    2.202951   -2.200679    0.000000    0.183000
   185  O     c    -6.618227    2.202951    2.200679    0.000000    0.183000
   186  Cl    c     4.404375    4.404375    8.791588    0.000000    1.485000
   187  Cl    c     4.404375    4.404375   -8.791588    0.000000    1.485000
   188  Cl    c     4.404375    0.001527    8.791588    0.000000    1.485000
   189  Cl    c     4.404375    0.001527   -8.791588    0.000000    1.485000
   190  Cl    c     0.001527    4.404375    8.791588    0.000000    1.485000
   191  Cl    c     0.001527    4.404375   -8.791588    0.000000    1.485000
   192  Cl    c     0.001527    0.001527    8.791588    0.000000    1.485000
   193  Cl    c     0.001527    0.001527   -8.791588    0.000000    1.485000
   194  Cl    c     8.800259    8.800259    0.000000    0.000000    1.485000
   195  Cl    c     8.800259   -4.394357    0.000000    0.000000    1.485000
   196  Cl    c    -4.394357    8.800259    0.000000    0.000000    1.485000
   197  Cl    c    -4.394357   -4.394357    0.000000    0.000000    1.485000
   198  Na    c     8.826347    2.202951    6.696443    0.000000    1.000000
   199  Na    c     8.826347    2.202951   -6.696443    0.000000    1.000000
   200  Na    c    -4.420445    2.202951    6.696443    0.000000    1.000000
   201  Na    c    -4.420445    2.202951   -6.696443    0.000000    1.000000
   202  Na    c     2.202951    8.826347    6.696443    0.000000    1.000000
   203  Na    c     2.202951    8.826347   -6.696443    0.000000    1.000000
   204  Na    c     2.202951   -4.420445    6.696443    0.000000    1.000000
   205  Na    c     2.202951   -4.420445   -6.696443    0.000000    1.000000
   206  Na    c     4.407817   11.032717   -2.209499    0.000000    1.000000
   207  Na    c     4.407817   11.032717    2.209499    0.000000    1.000000
   208  Na    c     4.407817   -6.626815   -2.209499    0.000000    1.000000
   209  Na    c     4.407817   -6.626815    2.209499    0.000000    1.000000
   210  Na    c    -0.001915   11.032717   -2.209499    0.000000    1.000000
   211  Na    c    -0.001915   11.032717    2.209499    0.000000    1.000000
   212  Na    c    -0.001915   -6.626815   -2.209499    0.000000    1.000000
   213  Na    c    -0.001915   -6.626815    2.209499    0.000000    1.000000
   214  Na    c    11.032717    4.407817   -2.209499    0.000000    1.000000
   215  Na    c    11.032717    4.407817    2.209499    0.000000    1.000000
   216  Na    c    11.032717   -0.001915   -2.209499    0.000000    1.000000
   217  Na    c    11.032717   -0.001915    2.209499    0.000000    1.000000
   218  Na    c    -6.626815    4.407817   -2.209499    0.000000    1.000000
   219  Na    c    -6.626815    4.407817    2.209499    0.000000    1.000000
   220  Na    c    -6.626815   -0.001915   -2.209499    0.000000    1.000000
   221  Na    c    -6.626815   -0.001915    2.209499    0.000000    1.000000
   222  Na    c     2.202951    6.586175    8.821423    0.000000    1.000000
   223  Na    c     2.202951    6.586175   -8.821423    0.000000    1.000000
   224  Na    c     2.202951   -2.180272    8.821423    0.000000    1.000000
   225  Na    c     2.202951   -2.180272   -8.821423    0.000000    1.000000
   226  Na    c     6.586175    2.202951    8.821423    0.000000    1.000000
   227  Na    c     6.586175    2.202951   -8.821423    0.000000    1.000000
   228  Na    c    -2.180272    2.202951    8.821423    0.000000    1.000000
   229  Na    c    -2.180272    2.202951   -8.821423    0.000000    1.000000
   230  Na    c     2.202951   10.976295    4.409114    0.000000    1.000000
   231  Na    c     2.202951   10.976295   -4.409114    0.000000    1.000000
   232  Na    c     2.202951   -6.570393    4.409114    0.000000    1.000000
   233  Na    c     2.202951   -6.570393   -4.409114    0.000000    1.000000
   234  Na    c    10.976295    2.202951    4.409114    0.000000    1.000000
   235  Na    c    10.976295    2.202951   -4.409114    0.000000    1.000000
   236  Na    c    -6.570393    2.202951    4.409114    0.000000    1.000000
   237  Na    c    -6.570393    2.202951   -4.409114    0.000000    1.000000
   238  Na    c     6.611619   11.028217    0.000000    0.000000    1.000000
   239  Na    c     6.611619   -6.622314    0.000000    0.000000    1.000000
   240  Na    c    11.028217    6.611619    0.000000    0.000000    1.000000
   241  Na    c    11.028217   -2.205716    0.000000    0.000000    1.000000
   242  Na    c    -2.205716   11.028217    0.000000    0.000000    1.000000
   243  Na    c    -2.205716   -6.622314    0.000000    0.000000    1.000000
   244  Na    c    -6.622314    6.611619    0.000000    0.000000    1.000000
   245  Na    c    -6.622314   -2.205716    0.000000    0.000000    1.000000
   246  O     c     6.609446   11.016699   -2.203129    0.000000    0.183000
   247  O     c     6.609446   11.016699    2.203129    0.000000    0.183000
   248  O     c     6.609446   -6.610797   -2.203129    0.000000    0.183000
   249  O     c     6.609446   -6.610797    2.203129    0.000000    0.183000
   250  O     c    11.016699    6.609446   -2.203129    0.000000    0.183000
   251  O     c    11.016699    6.609446    2.203129    0.000000    0.183000
   252  O     c    11.016699   -2.203544   -2.203129    0.000000    0.183000
   253  O     c    11.016699   -2.203544    2.203129    0.000000    0.183000
   254  O     c    -2.203544   11.016699   -2.203129    0.000000    0.183000
   255  O     c    -2.203544   11.016699    2.203129    0.000000    0.183000
   256  O     c    -2.203544   -6.610797   -2.203129    0.000000    0.183000
   257  O     c    -2.203544   -6.610797    2.203129    0.000000    0.183000
   258  O     c    -6.610797    6.609446   -2.203129    0.000000    0.183000
   259  O     c    -6.610797    6.609446    2.203129    0.000000    0.183000
   260  O     c    -6.610797   -2.203544   -2.203129    0.000000    0.183000
   261  O     c    -6.610797   -2.203544    2.203129    0.000000    0.183000
   262  Cl    c     8.801150    8.801150    4.399119    0.000000    1.485000
   263  Cl    c     8.801150    8.801150   -4.399119    0.000000    1.485000
   264  Cl    c     8.801150   -4.395247    4.399119    0.000000    1.485000
   265  Cl    c     8.801150   -4.395247   -4.399119    0.000000    1.485000
   266  Cl    c    -4.395247    8.801150    4.399119    0.000000    1.485000
   267  Cl    c    -4.395247    8.801150   -4.399119    0.000000    1.485000
   268  Cl    c    -4.395247   -4.395247    4.399119    0.000000    1.485000
   269  Cl    c    -4.395247   -4.395247   -4.399119    0.000000    1.485000
   270  Na    c     8.813805    6.613103    6.614901    0.000000    1.000000
   271  Na    c     8.813805    6.613103   -6.614901    0.000000    1.000000
   272  Na    c     8.813805   -2.207201    6.614901    0.000000    1.000000
   273  Na    c     8.813805   -2.207201   -6.614901    0.000000    1.000000
   274  Na    c    -4.407903    6.613103    6.614901    0.000000    1.000000
   275  Na    c    -4.407903    6.613103   -6.614901    0.000000    1.000000
   276  Na    c    -4.407903   -2.207201    6.614901    0.000000    1.000000
   277  Na    c    -4.407903   -2.207201   -6.614901    0.000000    1.000000
   278  Na    c     6.613103    8.813805    6.614901    0.000000    1.000000
   279  Na    c     6.613103    8.813805   -6.614901    0.000000    1.000000
   280  Na    c     6.613103   -4.407903    6.614901    0.000000    1.000000
   281  Na    c     6.613103   -4.407903   -6.614901    0.000000    1.000000
   282  Na    c    -2.207201    8.813805    6.614901    0.000000    1.000000
   283  Na    c    -2.207201    8.813805   -6.614901    0.000000    1.000000
   284  Na    c    -2.207201   -4.407903    6.614901    0.000000    1.000000
   285  Na    c    -2.207201   -4.407903   -6.614901    0.000000    1.000000
   286  Na    c     6.616209   11.023794    4.407264    0.000000    1.000000
   287  Na    c     6.616209   11.023794   -4.407264    0.000000    1.000000
   288  Na    c     6.616209   -6.617892    4.407264    0.000000    1.000000
   289  Na    c     6.616209   -6.617892   -4.407264    0.000000    1.000000
   290  Na    c    11.023794    6.616209    4.407264    0.000000    1.000000
   291  Na    c    11.023794    6.616209   -4.407264    0.000000    1.000000
   292  Na    c    11.023794   -2.210307    4.407264    0.000000    1.000000
   293  Na    c    11.023794   -2.210307   -4.407264    0.000000    1.000000
   294  Na    c    -2.210307   11.023794    4.407264    0.000000    1.000000
   295  Na    c    -2.210307   11.023794   -4.407264    0.000000    1.000000
   296  Na    c    -2.210307   -6.617892    4.407264    0.000000    1.000000
   297  Na    c    -2.210307   -6.617892   -4.407264    0.000000    1.000000
   298  Na    c    -6.617892    6.616209    4.407264    0.000000    1.000000
   299  Na    c    -6.617892    6.616209   -4.407264    0.000000    1.000000
   300  Na    c    -6.617892   -2.210307    4.407264    0.000000    1.000000
   301  Na    c    -6.617892   -2.210307   -4.407264    0.000000    1.000000
   302  Na    c     6.611997    6.611997    8.814480    0.000000    1.000000
   303  Na    c     6.611997    6.611997   -8.814480    0.000000    1.000000
   304  Na    c     6.611997   -2.206095    8.814480    0.000000    1.000000
   305  Na    c     6.611997   -2.206095   -8.814480    0.000000    1.000000
   306  Na    c    -2.206095    6.611997    8.814480    0.000000    1.000000
   307  Na    c    -2.206095    6.611997   -8.814480    0.000000    1.000000
   308  Na    c    -2.206095   -2.206095    8.814480    0.000000    1.000000
   309  Na    c    -2.206095   -2.206095   -8.814480    0.000000    1.000000
   310  O     c     2.202951    2.202951   11.015135    0.000000    0.183000
   311  O     c     2.202951    2.202951  -11.015135    0.000000    0.183000
   312  O     c     2.202951   11.017314    6.613270    0.000000    0.183000
   313  O     c     2.202951   11.017314   -6.613270    0.000000    0.183000
   314  O     c     2.202951   -6.611412    6.613270    0.000000    0.183000
   315  O     c     2.202951   -6.611412   -6.613270    0.000000    0.183000
   316  O     c    11.017314    2.202951    6.613270    0.000000    0.183000
   317  O     c    11.017314    2.202951   -6.613270    0.000000    0.183000
   318  O     c    -6.611412    2.202951    6.613270    0.000000    0.183000
   319  O     c    -6.611412    2.202951   -6.613270    0.000000    0.183000
   320  Cl    c     4.403082    8.803896    8.803667    0.000000    1.485000
   321  Cl    c     4.403082    8.803896   -8.803667    0.000000    1.485000
   322  Cl    c     4.403082   -4.397994    8.803667    0.000000    1.485000
   323  Cl    c     4.403082   -4.397994   -8.803667    0.000000    1.485000
   324  Cl    c     8.803896    4.403082    8.803667    0.000000    1.485000
   325  Cl    c     8.803896    4.403082   -8.803667    0.000000    1.485000
   326  Cl    c     8.803896    0.002820    8.803667    0.000000    1.485000
   327  Cl    c     8.803896    0.002820   -8.803667    0.000000    1.485000
   328  Cl    c     0.002820    8.803896    8.803667    0.000000    1.485000
   329  Cl    c     0.002820    8.803896   -8.803667    0.000000    1.485000
   330  Cl    c     0.002820   -4.397994    8.803667    0.000000    1.485000
   331  Cl    c     0.002820   -4.397994   -8.803667    0.000000    1.485000
   332  Cl    c    -4.397994    4.403082    8.803667    0.000000    1.485000
   333  Cl    c    -4.397994    4.403082   -8.803667    0.000000    1.485000
   334  Cl    c    -4.397994    0.002820    8.803667    0.000000    1.485000
   335  Cl    c    -4.397994    0.002820   -8.803667    0.000000    1.485000
   336  Cl    c     4.405574   13.211041    0.000000    0.000000    1.485000
   337  Cl    c     4.405574   -8.805139    0.000000    0.000000    1.485000
   338  Cl    c    13.211041    4.405574    0.000000    0.000000    1.485000
   339  Cl    c    13.211041    0.000328    0.000000    0.000000    1.485000
   340  Cl    c     0.000328   13.211041    0.000000    0.000000    1.485000
   341  Cl    c     0.000328   -8.805139    0.000000    0.000000    1.485000
   342  Cl    c    -8.805139    4.405574    0.000000    0.000000    1.485000
   343  Cl    c    -8.805139    0.000328    0.000000    0.000000    1.485000
   344  Na    c     4.404142    2.202951   11.031516    0.000000    1.000000
   345  Na    c     4.404142    2.202951  -11.031516    0.000000    1.000000
   346  Na    c     0.001761    2.202951   11.031516    0.000000    1.000000
   347  Na    c     0.001761    2.202951  -11.031516    0.000000    1.000000
   348  Na    c     2.202951    4.404142   11.031516    0.000000    1.000000
   349  Na    c     2.202951    4.404142  -11.031516    0.000000    1.000000
   350  Na    c     2.202951    0.001761   11.031516    0.000000    1.000000
   351  Na    c     2.202951    0.001761  -11.031516    0.000000    1.000000
   352  Na    c     4.407286   11.026737    6.612034    0.000000    1.000000
   353  Na    c     4.407286   11.026737   -6.612034    0.000000    1.000000
   354  Na    c     4.407286   -6.620835    6.612034    0.000000    1.000000
   355  Na    c     4.407286   -6.620835   -6.612034    0.000000    1.000000
   356  Na    c    -0.001384   11.026737    6.612034    0.000000    1.000000
   357  Na    c    -0.001384   11.026737   -6.612034    0.000000    1.000000
   358  Na    c    -0.001384   -6.620835    6.612034    0.000000    1.000000
   359  Na    c    -0.001384   -6.620835   -6.612034    0.000000    1.000000
   360  Na    c    11.026737    4.407286    6.612034    0.000000    1.000000
   361  Na    c    11.026737    4.407286   -6.612034    0.000000    1.000000
   362  Na    c    11.026737   -0.001384    6.612034    0.000000    1.000000
   363  Na    c    11.026737   -0.001384   -6.612034    0.000000    1.000000
   364  Na    c    -6.620835    4.407286    6.612034    0.000000    1.000000
   365  Na    c    -6.620835    4.407286   -6.612034    0.000000    1.000000
   366  Na    c    -6.620835   -0.001384    6.612034    0.000000    1.000000
   367  Na    c    -6.620835   -0.001384   -6.612034    0.000000    1.000000
   368  Na    c    13.226774    2.202951   -2.255243    0.000000    1.000000
   369  Na    c    13.226774    2.202951    2.255243    0.000000    1.000000
   370  Na    c    -8.820872    2.202951   -2.255243    0.000000    1.000000
   371  Na    c    -8.820872    2.202951    2.255243    0.000000    1.000000
   372  Na    c     2.202951   13.226774   -2.255243    0.000000    1.000000
   373  Na    c     2.202951   13.226774    2.255243    0.000000    1.000000
   374  Na    c     2.202951   -8.820872   -2.255243    0.000000    1.000000
   375  Na    c     2.202951   -8.820872    2.255243    0.000000    1.000000
   376  Na    c     8.815054   11.026168   -2.203488    0.000000    1.000000
   377  Na    c     8.815054   11.026168    2.203488    0.000000    1.000000
   378  Na    c     8.815054   -6.620265   -2.203488    0.000000    1.000000
   379  Na    c     8.815054   -6.620265    2.203488    0.000000    1.000000
   380  Na    c    -4.409152   11.026168   -2.203488    0.000000    1.000000
   381  Na    c    -4.409152   11.026168    2.203488    0.000000    1.000000
   382  Na    c    -4.409152   -6.620265   -2.203488    0.000000    1.000000
   383  Na    c    -4.409152   -6.620265    2.203488    0.000000    1.000000
   384  Na    c    11.026168    8.815054   -2.203488    0.000000    1.000000
   385  Na    c    11.026168    8.815054    2.203488    0.000000    1.000000
   386  Na    c    11.026168   -4.409152   -2.203488    0.000000    1.000000
   387  Na    c    11.026168   -4.409152    2.203488    0.000000    1.000000
   388  Na    c    -6.620265    8.815054   -2.203488    0.000000    1.000000
   389  Na    c    -6.620265    8.815054    2.203488    0.000000    1.000000
   390  Na    c    -6.620265   -4.409152   -2.203488    0.000000    1.000000
   391  Na    c    -6.620265   -4.409152    2.203488    0.000000    1.000000
   392  O     c     2.202951    6.606031   11.015299    0.000000    0.183000
   393  O     c     2.202951    6.606031  -11.015299    0.000000    0.183000
   394  O     c     2.202951   -2.200129   11.015299    0.000000    0.183000
   395  O     c     2.202951   -2.200129  -11.015299    0.000000    0.183000
   396  O     c     6.606031    2.202951   11.015299    0.000000    0.183000
   397  O     c     6.606031    2.202951  -11.015299    0.000000    0.183000
   398  O     c    -2.200129    2.202951   11.015299    0.000000    0.183000
   399  O     c    -2.200129    2.202951  -11.015299    0.000000    0.183000
   400  O     c     6.609009   11.013750    6.607509    0.000000    0.183000
   401  O     c     6.609009   11.013750   -6.607509    0.000000    0.183000
   402  O     c     6.609009   -6.607848    6.607509    0.000000    0.183000
   403  O     c     6.609009   -6.607848   -6.607509    0.000000    0.183000
   404  O     c    11.013750    6.609009    6.607509    0.000000    0.183000
   405  O     c    11.013750    6.609009   -6.607509    0.000000    0.183000
   406  O     c    11.013750   -2.203106    6.607509    0.000000    0.183000
   407  O     c    11.013750   -2.203106   -6.607509    0.000000    0.183000
   408  O     c    -2.203106   11.013750    6.607509    0.000000    0.183000
   409  O     c    -2.203106   11.013750   -6.607509    0.000000    0.183000
   410  O     c    -2.203106   -6.607848    6.607509    0.000000    0.183000
   411  O     c    -2.203106   -6.607848   -6.607509    0.000000    0.183000
   412  O     c    -6.607848    6.609009    6.607509    0.000000    0.183000
   413  O     c    -6.607848    6.609009   -6.607509    0.000000    0.183000
   414  O     c    -6.607848   -2.203106    6.607509    0.000000    0.183000
   415  O     c    -6.607848   -2.203106   -6.607509    0.000000    0.183000
   416  Cl    c     4.404054   13.209047    4.402875    0.000000    1.485000
   417  Cl    c     4.404054   13.209047   -4.402875    0.000000    1.485000
   418  Cl    c     4.404054   -8.803144    4.402875    0.000000    1.485000
   419  Cl    c     4.404054   -8.803144   -4.402875    0.000000    1.485000
   420  Cl    c    13.209047    4.404054    4.402875    0.000000    1.485000
   421  Cl    c    13.209047    4.404054   -4.402875    0.000000    1.485000
   422  Cl    c    13.209047    0.001848    4.402875    0.000000    1.485000
   423  Cl    c    13.209047    0.001848   -4.402875    0.000000    1.485000
   424  Cl    c     0.001848   13.209047    4.402875    0.000000    1.485000
   425  Cl    c     0.001848   13.209047   -4.402875    0.000000    1.485000
   426  Cl    c     0.001848   -8.803144    4.402875    0.000000    1.485000
   427  Cl    c     0.001848   -8.803144   -4.402875    0.000000    1.485000
   428  Cl    c    -8.803144    4.404054    4.402875    0.000000    1.485000
   429  Cl    c    -8.803144    4.404054   -4.402875    0.000000    1.485000
   430  Cl    c    -8.803144    0.001848    4.402875    0.000000    1.485000
   431  Cl    c    -8.803144    0.001848   -4.402875    0.000000    1.485000
   432  Na    c     4.406941    6.613692   11.026376    0.000000    1.000000
   433  Na    c     4.406941    6.613692  -11.026376    0.000000    1.000000
   434  Na    c     4.406941   -2.207790   11.026376    0.000000    1.000000
   435  Na    c     4.406941   -2.207790  -11.026376    0.000000    1.000000
   436  Na    c    -0.001038    6.613692   11.026376    0.000000    1.000000
   437  Na    c    -0.001038    6.613692  -11.026376    0.000000    1.000000
   438  Na    c    -0.001038   -2.207790   11.026376    0.000000    1.000000
   439  Na    c    -0.001038   -2.207790  -11.026376    0.000000    1.000000
   440  Na    c     6.613692    4.406941   11.026376    0.000000    1.000000
   441  Na    c     6.613692    4.406941  -11.026376    0.000000    1.000000
   442  Na    c     6.613692   -0.001038   11.026376    0.000000    1.000000
   443  Na    c     6.613692   -0.001038  -11.026376    0.000000    1.000000
   444  Na    c    -2.207790    4.406941   11.026376    0.000000    1.000000
   445  Na    c    -2.207790    4.406941  -11.026376    0.000000    1.000000
   446  Na    c    -2.207790   -0.001038   11.026376    0.000000    1.000000
   447  Na    c    -2.207790   -0.001038  -11.026376    0.000000    1.000000
   448  Na    c    13.222122    6.614573   -2.205685    0.000000    1.000000
   449  Na    c    13.222122    6.614573    2.205685    0.000000    1.000000
   450  Na    c    13.222122   -2.208671   -2.205685    0.000000    1.000000
   451  Na    c    13.222122   -2.208671    2.205685    0.000000    1.000000
   452  Na    c    -8.816220    6.614573   -2.205685    0.000000    1.000000
   453  Na    c    -8.816220    6.614573    2.205685    0.000000    1.000000
[...]
     61 y         15.420658     15.403258    -0.017400    Cartesian   -0.11
     61 z          0.000000      0.000000     0.000000    Cartesian    0.00
     62 x          6.608853      6.613479     0.004625    Cartesian    0.07
     62 y         11.014756     11.019538     0.004782    Cartesian    0.04
     62 z          8.811805      8.812472     0.000667    Cartesian    0.01
     63 x         11.014756     11.021504     0.006748    Cartesian    0.06
     63 y         11.014756     11.021504     0.006748    Cartesian    0.06
     63 z          4.405902      4.406562     0.000660    Cartesian    0.01
     64 x          2.202951      2.202951     0.000000    Cartesian    0.00
     64 y         15.420658     15.422930     0.002272    Cartesian    0.01
     64 z         -2.202951     -2.206502    -0.003551    Cartesian    0.16
     65 x          8.811805      8.808659    -0.003145    Cartesian   -0.04
     65 y         13.217707     13.210541    -0.007166    Cartesian   -0.05
     65 z          4.405902      4.402742    -0.003160    Cartesian   -0.07
     66 x          4.405902      4.406576     0.000673    Cartesian    0.02
     66 y         15.420658     15.428316     0.007658    Cartesian    0.05
     66 z         -2.202951     -2.197478     0.005474    Cartesian   -0.25
     67 x          4.405902      4.404840    -0.001062    Cartesian   -0.02
     67 y          4.405902      4.404840    -0.001062    Cartesian   -0.02
     67 z         13.217707     13.208992    -0.008715    Cartesian   -0.07
     68 x          8.811805      8.812975     0.001171    Cartesian    0.01
     68 y          6.608853      6.612222     0.003369    Cartesian    0.05
     68 z         11.014756     11.017306     0.002550    Cartesian    0.02
     69 x         13.217707     13.218573     0.000866    Cartesian    0.01
     69 y          6.608853      6.611799     0.002945    Cartesian    0.04
     69 z          6.608853      6.610524     0.001670    Cartesian    0.03
     70 x          2.202951      2.202951     0.000000    Cartesian    0.00
     70 y          6.608853      6.614098     0.005244    Cartesian    0.08
     70 z         13.217707     13.219800     0.002093    Cartesian    0.02
     71 x          2.202951      2.202951     0.000000    Cartesian    0.00
     71 y         15.420658     15.451864     0.031206    Cartesian    0.20
     71 z          4.405902      4.406922     0.001020    Cartesian    0.02
     72 x          6.608853      6.614664     0.005810    Cartesian    0.09
     72 y         15.420658     15.425143     0.004485    Cartesian    0.03
     72 z          0.000000      0.000000     0.000000    Cartesian    0.00
     73 x          6.608853      6.609556     0.000703    Cartesian    0.01
     73 y         15.420658     15.420849     0.000191    Cartesian    0.00
     73 z         -2.202951     -2.202754     0.000197    Cartesian   -0.01
     74 x          2.202951      2.202951     0.000000    Cartesian    0.00
     74 y         11.014756     11.019205     0.004449    Cartesian    0.04
     74 z         11.014756     11.016210     0.001455    Cartesian    0.01
     75 x         11.014756     11.015587     0.000832    Cartesian    0.01
     75 y         11.014756     11.015587     0.000832    Cartesian    0.01
     75 z          6.608853      6.608658    -0.000195    Cartesian   -0.00
     76 x          4.405902      4.405539    -0.000363    Cartesian   -0.01
     76 y         13.217707     13.211211    -0.006496    Cartesian   -0.05
     76 z          8.811805      8.808387    -0.003418    Cartesian   -0.04
     77 x          4.405902      4.406361     0.000458    Cartesian    0.01
     77 y         11.014756     11.016762     0.002007    Cartesian    0.02
     77 z         11.014756     11.020360     0.005604    Cartesian    0.05
     78 x         13.217707     13.220638     0.002931    Cartesian    0.02
     78 y         11.014756     11.019131     0.004376    Cartesian    0.04
     78 z         -2.202951     -2.200425     0.002526    Cartesian   -0.11
     79 x          6.608853      6.607578    -0.001275    Cartesian   -0.02
     79 y         15.420658     15.427098     0.006440    Cartesian    0.04
     79 z          4.405902      4.406335     0.000432    Cartesian    0.01
     80 x          6.608853      6.613135     0.004282    Cartesian    0.06
     80 y          6.608853      6.613135     0.004282    Cartesian    0.06
     80 z         13.217707     13.219982     0.002275    Cartesian    0.02
     81 x          6.608853      6.608628    -0.000225    Cartesian   -0.00
     81 y         11.014756     11.013114    -0.001641    Cartesian   -0.01
     81 z         11.014756     11.013464    -0.001292    Cartesian   -0.01
     82 x          2.202951      2.202951     0.000000    Cartesian    0.00
     82 y         15.420658     15.421773     0.001115    Cartesian    0.01
     82 z          6.608853      6.606055    -0.002799    Cartesian   -0.04
     83 x          4.405902      4.404975    -0.000927    Cartesian   -0.02
     83 y          8.811805      8.807444    -0.004360    Cartesian   -0.05
     83 z         13.217707     13.207248    -0.010459    Cartesian   -0.08
     84 x          4.405902      4.406099     0.000197    Cartesian    0.00
     84 y         15.420658     15.425412     0.004754    Cartesian    0.03
     84 z          6.608853      6.614782     0.005929    Cartesian    0.09
     85 x          8.811805      8.813711     0.001906    Cartesian    0.02
     85 y         15.420658     15.428952     0.008294    Cartesian    0.05
     85 z         -2.202951     -2.205467    -0.002516    Cartesian    0.11
     86 x         11.014756     11.017842     0.003086    Cartesian    0.03
     86 y         11.014756     11.017842     0.003086    Cartesian    0.03
     86 z          8.811805      8.813619     0.001815    Cartesian    0.02
     87 x          2.202951      2.202951     0.000000    Cartesian    0.00
     87 y          2.202951      2.202951     0.000000    Cartesian    0.00
     87 z         15.420658     15.420851     0.000193    Cartesian    0.00
     88 x          6.608853      6.607279    -0.001574    Cartesian   -0.02
     88 y         15.420658     15.417331    -0.003327    Cartesian   -0.02
     88 z          6.608853      6.607493    -0.001361    Cartesian   -0.02
     89 x          4.405902      4.404181    -0.001721    Cartesian   -0.04
     89 y         17.623609     17.610569    -0.013040    Cartesian   -0.07
     89 z          0.000000      0.000000     0.000000    Cartesian    0.00
     90 x          8.811805      8.807048    -0.004757    Cartesian   -0.05
     90 y         13.217707     13.208076    -0.009631    Cartesian   -0.07
     90 z          8.811805      8.805736    -0.006068    Cartesian   -0.07
     91 x         13.217707     13.209564    -0.008143    Cartesian   -0.06
     91 y         13.217707     13.209564    -0.008143    Cartesian   -0.06
     91 z          0.000000      0.000000     0.000000    Cartesian    0.00
     92 x          4.405902      4.406886     0.000984    Cartesian    0.02
     92 y          2.202951      2.202951     0.000000    Cartesian    0.00
     92 z         15.420658     15.431164     0.010506    Cartesian    0.07
     93 x         13.217707     13.223239     0.005532    Cartesian    0.04
     93 y          2.202951      2.202951     0.000000    Cartesian    0.00
     93 z         11.014756     11.035663     0.020907    Cartesian    0.19
     94 x         17.623609     17.627446     0.003837    Cartesian    0.02
     94 y          2.202951      2.202951     0.000000    Cartesian    0.00
     94 z         -2.202951     -2.193370     0.009581    Cartesian   -0.43
     95 x          8.811805      8.813057     0.001252    Cartesian    0.01
     95 y         11.014756     11.020762     0.006006    Cartesian    0.05
     95 z         11.014756     11.022797     0.008041    Cartesian    0.07
     96 x         13.217707     13.220453     0.002746    Cartesian    0.02
     96 y         11.014756     11.021412     0.006657    Cartesian    0.06
     96 z          6.608853      6.612876     0.004022    Cartesian    0.06
     97 x          2.202951      2.202951     0.000000    Cartesian    0.00
     97 y         11.014756     11.015521     0.000765    Cartesian    0.01
     97 z         13.217707     13.221049     0.003342    Cartesian    0.03
     98 x          2.202951      2.202951     0.000000    Cartesian    0.00
     98 y         15.420658     15.423200     0.002541    Cartesian    0.02
     98 z          8.811805      8.812615     0.000811    Cartesian    0.01
     99 x         11.014756     11.020661     0.005905    Cartesian    0.05
     99 y         15.420658     15.432308     0.011650    Cartesian    0.08
     99 z          0.000000      0.000000     0.000000    Cartesian    0.00
    100 x          2.202951      2.202951     0.000000    Cartesian    0.00
    100 y          2.202951      2.202951     0.000000    Cartesian    0.00
    100 z          0.000000      0.000000     0.000000    Cartesian    0.00
    101 x          2.202951      2.202951     0.000000    Cartesian    0.00
    101 y          2.202951      2.202951     0.000000    Cartesian    0.00
    101 z         -2.202951     -2.094714     0.108237    Cartesian   -4.91
    102 x          4.405902      4.356413    -0.049489    Cartesian   -1.12
    102 y          4.405902      4.356413    -0.049489    Cartesian   -1.12
    102 z          0.000000      0.000000     0.000000    Cartesian    0.00
    103 x          2.202951      2.202951     0.000000    Cartesian    0.00
    103 y          6.608853      6.631176     0.022323    Cartesian    0.34
    103 z         -2.202951     -2.210930    -0.007979    Cartesian    0.36
    104 x          4.405902      4.338770    -0.067132    Cartesian   -1.52
    104 y          4.405902      4.338770    -0.067132    Cartesian   -1.52
    104 z          4.405902      4.349501    -0.056402    Cartesian   -1.28
    105 x          2.202951      2.202951     0.000000    Cartesian    0.00
    105 y          2.202951      2.202951     0.000000    Cartesian    0.00
    105 z          6.608853      6.598578    -0.010275    Cartesian   -0.16
    106 x          6.608853      6.609468     0.000615    Cartesian    0.01
    106 y          6.608853      6.609468     0.000615    Cartesian    0.01
    106 z         -2.202951     -2.201864     0.001087    Cartesian   -0.05
    107 x          4.405902      4.402060    -0.003842    Cartesian   -0.09
    107 y          8.811805      8.786779    -0.025025    Cartesian   -0.28
    107 z          0.000000      0.000000     0.000000    Cartesian    0.00
    108 x          2.202951      2.202951     0.000000    Cartesian    0.00
    108 y          6.608853      6.620831     0.011978    Cartesian    0.18
    108 z          6.608853      6.614373     0.005519    Cartesian    0.08
    109 x          4.405902      4.402893    -0.003010    Cartesian   -0.07
    109 y          8.811805      8.795754    -0.016050    Cartesian   -0.18
    109 z          4.405902      4.398857    -0.007045    Cartesian   -0.16
    110 x          6.608853      6.603743    -0.005110    Cartesian   -0.08
    110 y          6.608853      6.603743    -0.005110    Cartesian   -0.08
    110 z          6.608853      6.603961    -0.004893    Cartesian   -0.07
    111 x          2.202951      2.202951     0.000000    Cartesian    0.00
    111 y         11.014756     11.024126     0.009370    Cartesian    0.09
    111 z         -2.202951     -2.200671     0.002281    Cartesian   -0.10
    112 x          4.405902      4.404345    -0.001557    Cartesian   -0.04
    112 y          4.405902      4.404345    -0.001557    Cartesian   -0.04
    112 z          8.811805      8.788572    -0.023233    Cartesian   -0.26
    113 x          8.811805      8.797153    -0.014651    Cartesian   -0.17
    113 y          8.811805      8.797153    -0.014651    Cartesian   -0.17
    113 z          0.000000      0.000000     0.000000    Cartesian    0.00
    114 x          6.608853      6.609447     0.000593    Cartesian    0.01
    114 y         11.014756     11.016696     0.001941    Cartesian    0.02
    114 z         -2.202951     -2.203130    -0.000179    Cartesian    0.01
    115 x          8.811805      8.798632    -0.013173    Cartesian   -0.15
    115 y          8.811805      8.798632    -0.013173    Cartesian   -0.15
    115 z          4.405902      4.397722    -0.008180    Cartesian   -0.19
    116 x          2.202951      2.202951     0.000000    Cartesian    0.00
    116 y          2.202951      2.202951     0.000000    Cartesian    0.00
    116 z         11.014756     11.015144     0.000389    Cartesian    0.00
    117 x          2.202951      2.202951     0.000000    Cartesian    0.00
    117 y         11.014756     11.017304     0.002549    Cartesian    0.02
    117 z          6.608853      6.613278     0.004424    Cartesian    0.07
    118 x          4.405902      4.401954    -0.003948    Cartesian   -0.09
    118 y          8.811805      8.801778    -0.010026    Cartesian   -0.11
    118 z          8.811805      8.800720    -0.011085    Cartesian   -0.13
    119 x          4.405902      4.404804    -0.001098    Cartesian   -0.02
    119 y         13.217707     13.208427    -0.009280    Cartesian   -0.07
    119 z          0.000000      0.000000     0.000000    Cartesian    0.00
    120 x          2.202951      2.202951     0.000000    Cartesian    0.00
    120 y          6.608853      6.606024    -0.002830    Cartesian   -0.04
    120 z         11.014756     11.015291     0.000536    Cartesian    0.00
    121 x          6.608853      6.609008     0.000155    Cartesian    0.00
    121 y         11.014756     11.013751    -0.001005    Cartesian   -0.01
    121 z          6.608853      6.607507    -0.001346    Cartesian   -0.02
    122 x          4.405902      4.403422    -0.002480    Cartesian   -0.06
    122 y         13.217707     13.207319    -0.010388    Cartesian   -0.08
    122 z          4.405902      4.401905    -0.003997    Cartesian   -0.09
    123 x          6.608853      6.609318     0.000465    Cartesian    0.01
    123 y          6.608853      6.609318     0.000465    Cartesian    0.01
    123 z         11.014756     11.014511    -0.000245    Cartesian   -0.00
    124 x         11.014756     11.015287     0.000532    Cartesian    0.00
    124 y         11.014756     11.015287     0.000532    Cartesian    0.00
    124 z         -2.202951     -2.202639     0.000312    Cartesian   -0.01
    125 x          8.811805      8.801597    -0.010207    Cartesian   -0.12
    125 y          8.811805      8.801597    -0.010207    Cartesian   -0.12
    125 z          8.811805      8.800878    -0.010927    Cartesian   -0.12
    126 x          8.811805      8.806266    -0.005539    Cartesian   -0.06
    126 y         13.217707     13.208038    -0.009669    Cartesian   -0.07
    126 z          0.000000      0.000000     0.000000    Cartesian    0.00
    127 x          2.202951      2.202951     0.000000    Cartesian    0.00
    127 y         15.420658     15.422925     0.002267    Cartesian    0.01
    127 z         -2.202951     -2.206513    -0.003562    Cartesian    0.16
    128 x          8.811805      8.807782    -0.004023    Cartesian   -0.05
    128 y         13.217707     13.209151    -0.008556    Cartesian   -0.06
    128 z          4.405902      4.402176    -0.003726    Cartesian   -0.08
    129 x          4.405902      4.404617    -0.001286    Cartesian   -0.03
    129 y          4.405902      4.404617    -0.001286    Cartesian   -0.03
    129 z         13.217707     13.207102    -0.010605    Cartesian   -0.08
    130 x          6.608853      6.609556     0.000703    Cartesian    0.01
    130 y         15.420658     15.420849     0.000190    Cartesian    0.00
    130 z         -2.202951     -2.202753     0.000198    Cartesian   -0.01
    131 x          2.202951      2.202951     0.000000    Cartesian    0.00
    131 y         11.014756     11.019212     0.004457    Cartesian    0.04
    131 z         11.014756     11.016206     0.001451    Cartesian    0.01
    132 x         11.014756     11.015587     0.000831    Cartesian    0.01
    132 y         11.014756     11.015587     0.000831    Cartesian    0.01
    132 z          6.608853      6.608658    -0.000195    Cartesian   -0.00
    133 x          4.405902      4.405379    -0.000523    Cartesian   -0.01
    133 y         13.217707     13.209555    -0.008152    Cartesian   -0.06
    133 z          8.811805      8.807841    -0.003964    Cartesian   -0.04
    134 x          6.608853      6.608627    -0.000226    Cartesian   -0.00
    134 y         11.014756     11.013113    -0.001643    Cartesian   -0.01
    134 z         11.014756     11.013464    -0.001292    Cartesian   -0.01
    135 x          2.202951      2.202951     0.000000    Cartesian    0.00
    135 y         15.420658     15.421778     0.001120    Cartesian    0.01
    135 z          6.608853      6.606045    -0.002808    Cartesian   -0.04
    136 x          4.405902      4.404952    -0.000950    Cartesian   -0.02
    136 y          8.811805      8.806682    -0.005122    Cartesian   -0.06
    136 z         13.217707     13.205970    -0.011737    Cartesian   -0.09
    137 x          2.202951      2.202951     0.000000    Cartesian    0.00
    137 y          2.202951      2.202951     0.000000    Cartesian    0.00
    137 z         15.420658     15.420852     0.000194    Cartesian    0.00
    138 x          6.608853      6.607277    -0.001576    Cartesian   -0.02
    138 y         15.420658     15.417327    -0.003331    Cartesian   -0.02
    138 z          6.608853      6.607491    -0.001362    Cartesian   -0.02
    139 x          4.405902      4.403960    -0.001943    Cartesian   -0.04
    139 y         17.623609     17.609049    -0.014560    Cartesian   -0.08
    139 z          0.000000      0.000000     0.000000    Cartesian    0.00
    140 x          8.811805      8.806288    -0.005517    Cartesian   -0.06
    140 y         13.217707     13.206758    -0.010949    Cartesian   -0.08
    140 z          8.811805      8.804852    -0.006953    Cartesian   -0.08
    141 x         13.217707     13.208276    -0.009431    Cartesian   -0.07
    141 y         13.217707     13.208276    -0.009431    Cartesian   -0.07
    141 z          0.000000      0.000000     0.000000    Cartesian    0.00
--------------------------------------------------------------------------------


  Time to end of optimisation  =       31.4536 seconds


  Peak dynamic memory used =     319.74 MB 


  Timing analysis for GULP :

--------------------------------------------------------------------------------
  Task / Subroutine                                          Time (Seconds)
--------------------------------------------------------------------------------
  Calculation of reciprocal space energy and derivatives          0.0008
  Calculation of reciprocal space energy using symmetry           0.0012
  Calculation of real space energy and derivatives                0.0041
  Calculation of real space energy using symmetry                 0.0127
  Calculation for region 1 energy and derivatives (2-b)          15.7970
  Calculation for region 2a energy                               14.5154
  Calculation for region 2b energy                                0.0003
  Calculation and manipulation of Hessian matrix                  0.6632
  Calculation of matrix inversion                                 0.0342
  Symmetry generation of equivalent positions                     0.0050
--------------------------------------------------------------------------------
  Total CPU time                                                 31.4537
--------------------------------------------------------------------------------


  Dump file written as Na3OCl.grs


  Job Finished at 17:04.58  4th February   2021                               

