********************************************************************************
*                       GENERAL UTILITY LATTICE PROGRAM                        *
*                                 Julian Gale                                  *
*                       Curtin Institute for Computation                       *
*                    School of Molecular and Life Sciences                     *
*                    Curtin University, Western Australia                      *
********************************************************************************
* Version = 5.2.0 * Last modified =  10th September 2020                       *
********************************************************************************
*  optimise     - perform optimisation run                                     *
*  conp         - constant pressure calculation                                *
*  property     - calculate properties for final geometry                      *
*  defect       - perform defect calculation after bulk run                    *
*  compare      - compare initial and final structures                         *
********************************************************************************

  Job Started  at 12:05.02  3rd January    2021                               

  Number of CPUs =     1


  Total number of configurations input =      1

********************************************************************************
*  Input for Configuration =   1                                               *
********************************************************************************

  Formula = ClONa3                                                      

  Number of irreducible atoms/shells =       5


  Total number atoms/shells =       7

  Dimensionality = 3               :  Bulk   


  Symmetry :

  Crystal family                   :  Cubic       
  Crystal class  (Groth - 1921)    :  Cubic Hexakisoctahedral              

  Space group (centrosymmetric)    :  P M 3 M         

  Patterson group                  :  P m -3 m 

  Cartesian lattice vectors (Angstroms) :

        4.504000    0.000000    0.000000
        0.000000    4.504000    0.000000
        0.000000    0.000000    4.504000

  Cell parameters (Angstroms/Degrees):

  a =       4.5040    alpha =  90.0000
  b =       4.5040    beta  =  90.0000
  c =       4.5040    gamma =  90.0000

  Initial cell volume =          91.368216 Angs**3

  Temperature of configuration =   0.00     K 

  Pressure of configuration =         0.000 GPa 

  Fractional coordinates of asymmetric unit :

--------------------------------------------------------------------------------
   No.  Atomic       x           y          z         Charge      Occupancy
        Label      (Frac)      (Frac)     (Frac)        (e)         (Frac)  
--------------------------------------------------------------------------------
      1 Cl    c    0.000000    0.000000    0.000000     1.48500    1.000000    
      2 O     c    0.500000    0.500000    0.500000     0.18300    1.000000    
      3 Na    c    0.500000    0.500000    0.000000     1.00000    1.000000    
      4 Cl    s    0.000000    0.000000    0.000000    -2.48500    1.000000    
      5 O     s    0.500000    0.500000    0.500000    -2.18300    1.000000    
--------------------------------------------------------------------------------


  Constraints : 

--------------------------------------------------------------------------------
  Constraint no.      Unconstrained     Constrained    Coefficient    Offset
                         Variable         Variable
--------------------------------------------------------------------------------
           1              Strain 1        Strain 2       1.00000      0.0000
           2              Strain 1        Strain 3       1.00000      0.0000
--------------------------------------------------------------------------------


********************************************************************************
*  General input information                                                   *
********************************************************************************

  Species output for all configurations : 

--------------------------------------------------------------------------------
  Species    Type    Atomic    Atomic    Charge       Radii (Angs)     Library
                     Number     Mass       (e)     Cova   Ionic  VDW   Symbol
--------------------------------------------------------------------------------
    Na       Core       11      22.99   1.000000   0.970  0.000  2.300          
    O        Core        8      16.00   0.183000   0.730  0.000  1.360          
    O        Shell       8       0.00  -2.183000   0.730  0.000  1.360          
    Cl       Core       17      35.45   1.485000   0.990  0.000  1.650          
    Cl       Shell      17       0.00  -2.485000   0.990  0.000  1.650          
    Mg       Core       12      24.31   0.415000   1.100  0.000  0.000          
    Mg       Shell      12       0.00   1.585000   1.100  0.000  0.000          
    Ca       Core       20      40.08  -1.135000   0.990  0.000  0.000          
    Ca       Shell      20       0.00   3.135000   0.990  0.000  0.000          
    Sr       Core       38      87.62  -1.251000   1.120  0.000  0.000          
    Sr       Shell      38       0.00   3.251000   1.120  0.000  0.000          
    Ba       Core       56     137.33  -7.203000   1.340  0.000  0.000          
    Ba       Shell      56       0.00   9.203000   1.340  0.000  0.000          
--------------------------------------------------------------------------------


  Lattice summation method               =    Ewald          (3-D)
                                         =    Parry          (2-D)
                                         =    Saunders et al (1-D)
  Accuracy factor for lattice sums       =   12.000


  Analytic derivatives to be used

  Time limit = Infinity

  Maximum range for interatomic potentials =    100000.000000 Angstroms

  General interatomic potentials :

--------------------------------------------------------------------------------
Atom  Types   Potential      Parameter       Value         Units   Cutoffs(Ang)
  1     2                                                            Min /  Max 
--------------------------------------------------------------------------------
O    c O    s Spring (c-s)  Spring k 2       593.71600    eV*Ang^-2 0.000  0.800
                            Spring k 4       0.0000000    eV*Ang^-4 
--------------------------------------------------------------------------------
Cl   c Cl   s Spring (c-s)  Spring k 2       29.380000    eV*Ang^-2 0.000  0.800
                            Spring k 4       0.0000000    eV*Ang^-4 
--------------------------------------------------------------------------------
Mg   c Mg   s Spring (c-s)  Spring k 2       361.60000    eV*Ang^-2 0.000  0.800
                            Spring k 4       0.0000000    eV*Ang^-4 
--------------------------------------------------------------------------------
Ca   c Ca   s Spring (c-s)  Spring k 2       110.20000    eV*Ang^-2 0.000  0.800
                            Spring k 4       0.0000000    eV*Ang^-4 
--------------------------------------------------------------------------------
Sr   c Sr   s Spring (c-s)  Spring k 2       71.700000    eV*Ang^-2 0.000  0.800
                            Spring k 4       0.0000000    eV*Ang^-4 
--------------------------------------------------------------------------------
Ba   c Ba   s Spring (c-s)  Spring k 2       495.20000    eV*Ang^-2 0.000  0.800
                            Spring k 4       0.0000000    eV*Ang^-4 
--------------------------------------------------------------------------------
Na   c Na   c Buckingham    Buckingham A     1788.1900    eV        0.000 12.000
                            Buckingham rho  0.15900000    Ang       
                            Buckingham C     0.0000000    eV*Ang^6  
--------------------------------------------------------------------------------
Na   c O    s Buckingham    Buckingham A     477.56000    eV        0.000 12.000
                            Buckingham rho  0.35400000    Ang       
                            Buckingham C     0.0000000    eV*Ang^6  
--------------------------------------------------------------------------------
Na   c Cl   s Buckingham    Buckingham A     1270.1200    eV        0.000 12.000
                            Buckingham rho  0.30900000    Ang       
                            Buckingham C     0.0000000    eV*Ang^6  
--------------------------------------------------------------------------------
O    s O    s Buckingham    Buckingham A     22764.300    eV        0.000 12.000
                            Buckingham rho  0.14900000    Ang       
                            Buckingham C     13.190000    eV*Ang^6  
--------------------------------------------------------------------------------
O    s Cl   s Buckingham    Buckingham A     8286.9100    eV        0.000 12.000
                            Buckingham rho  0.25900000    Ang       
                            Buckingham C     62.200000    eV*Ang^6  
--------------------------------------------------------------------------------
Cl   s Cl   s Buckingham    Buckingham A     1227.2000    eV        0.000 12.000
                            Buckingham rho  0.32100000    Ang       
                            Buckingham C     14.530000    eV*Ang^6  
--------------------------------------------------------------------------------
O    s Mg   s Buckingham    Buckingham A     1428.5000    eV        0.000 12.000
                            Buckingham rho  0.29450000    Ang       
                            Buckingham C     0.0000000    eV*Ang^6  
--------------------------------------------------------------------------------
Mg   s Cl   s Buckingham    Buckingham A     4914.5400    eV        0.000 12.000
                            Buckingham rho  0.25700000    Ang       
                            Buckingham C     0.0000000    eV*Ang^6  
--------------------------------------------------------------------------------
O    s Ca   s Buckingham    Buckingham A     1090.4000    eV        0.000 12.000
                            Buckingham rho  0.34370000    Ang       
                            Buckingham C     0.0000000    eV*Ang^6  
--------------------------------------------------------------------------------
Cl   s Ca   s Buckingham    Buckingham A     2302.0000    eV        0.000 12.000
                            Buckingham rho  0.34020000    Ang       
                            Buckingham C     0.0000000    eV*Ang^6  
--------------------------------------------------------------------------------
O    s Sr   s Buckingham    Buckingham A     959.10000    eV        0.000 12.000
                            Buckingham rho  0.37210000    Ang       
                            Buckingham C     0.0000000    eV*Ang^6  
--------------------------------------------------------------------------------
Cl   s Sr   s Buckingham    Buckingham A     2191.0900    eV        0.000 12.000
                            Buckingham rho  0.34570000    Ang       
                            Buckingham C     0.0000000    eV*Ang^6  
--------------------------------------------------------------------------------
O    s Ba   s Buckingham    Buckingham A     905.70000    eV        0.000 12.000
                            Buckingham rho  0.39760000    Ang       
                            Buckingham C     0.0000000    eV*Ang^6  
--------------------------------------------------------------------------------
Cl   s Ba   s Buckingham    Buckingham A     2704.5500    eV        0.000 12.000
                            Buckingham rho  0.35280000    Ang       
                            Buckingham C     0.0000000    eV*Ang^6  
--------------------------------------------------------------------------------

********************************************************************************
*  Output for configuration   1                                                *
********************************************************************************


  Components of energy : 

--------------------------------------------------------------------------------
  Interatomic potentials     =           5.32097427 eV    
  Monopole - monopole (real) =         -10.03624526 eV    
  Monopole - monopole (recip)=         -29.53581274 eV    
  Monopole - monopole (total)=         -39.57205800 eV    
--------------------------------------------------------------------------------
  Total lattice energy       =         -34.25108373 eV    
--------------------------------------------------------------------------------
  Total lattice energy       =           -3304.7060 kJ/(mole unit cells)
--------------------------------------------------------------------------------


  Number of variables =        1

  Maximum number of calculations  =          1000
  Maximum Hessian update interval =            10
  Maximum step size               =   1.000000000
  Maximum parameter tolerance     =   0.000010000
  Maximum function  tolerance     =   0.000010000
  Maximum gradient  tolerance     =   0.001000000
  Maximum gradient  component     =   0.010000000

  Symmetry constrained optimisation

  Symmetry used for second derivatives

  Cell parameters to be optimised using strains

  Newton-Raphson optimiser to be used

  BFGS hessian update to be used

  Lower half triangular hessian to be used

  Start of bulk optimisation :

  Cycle:      0 Energy:       -34.251084  Gnorm:      3.396862  CPU:    0.008
  ** Hessian calculated **
  Cycle:      1 Energy:       -34.282244  Gnorm:      0.029239  CPU:    0.011
  Cycle:      2 Energy:       -34.282246  Gnorm:      0.001919  CPU:    0.012


  **** Optimisation achieved ****


  Final energy =     -34.28224565 eV
  Final Gnorm  =       0.00000003

  Components of energy : 

--------------------------------------------------------------------------------
  Interatomic potentials     =           6.00917266 eV    
  Monopole - monopole (real) =         -10.21868906 eV    
  Monopole - monopole (recip)=         -30.07272926 eV    
  Monopole - monopole (total)=         -40.29141832 eV    
--------------------------------------------------------------------------------
  Total lattice energy       =         -34.28224565 eV    
--------------------------------------------------------------------------------
  Total lattice energy       =           -3307.7127 kJ/(mole unit cells)
--------------------------------------------------------------------------------

  Final asymmetric unit coordinates :

--------------------------------------------------------------------------------
   No.  Atomic        x           y           z         Radius
        Label       (Frac)      (Frac)      (Frac)       (Angs) 
--------------------------------------------------------------------------------
     1  Cl    c     0.000000    0.000000    0.000000    0.000000
     2  O     c     0.500000    0.500000    0.500000    0.000000
     3  Na    c     0.500000    0.500000    0.000000    0.000000
     4  Cl    s     0.000000    0.000000    0.000000    0.000000
     5  O     s     0.500000    0.500000    0.500000    0.000000
--------------------------------------------------------------------------------

  Final Cartesian lattice vectors (Angstroms) :

        4.423586    0.000000    0.000000
        0.000000    4.423586    0.000000
        0.000000    0.000000    4.423586


  Final cell parameters and derivatives :

--------------------------------------------------------------------------------
       a            4.423586 Angstrom     dE/de1(xx)     0.000000 eV/strain
       b            4.423586 Angstrom     dE/de2(yy)     0.000000 eV/strain
       c            4.423586 Angstrom     dE/de3(zz)     0.000000 eV/strain
       alpha       90.000000 Degrees      dE/de4(yz)     0.000000 eV/strain
       beta        90.000000 Degrees      dE/de5(xz)     0.000000 eV/strain
       gamma       90.000000 Degrees      dE/de6(xy)     0.000000 eV/strain
--------------------------------------------------------------------------------

  Primitive cell volume =            86.561224 Angs**3

  Density of cell =      2.310102 g/cm**3

  Non-primitive cell volume =            86.561224 Angs**3


  Final internal derivatives :

--------------------------------------------------------------------------------
   No.  Atomic          a             b             c           Radius
        Label          (eV)          (eV)          (eV)        (eV/Angs)
--------------------------------------------------------------------------------
      1 Cl    c       0.000000      0.000000      0.000000      0.000000
      2 O     c       0.000000      0.000000      0.000000      0.000000
      3 Na    c       0.000000      0.000000      0.000000      0.000000
      4 Cl    s       0.000000      0.000000      0.000000      0.000000
      5 O     s       0.000000      0.000000      0.000000      0.000000
--------------------------------------------------------------------------------
  Maximum abs         0.000000      0.000000      0.000000      0.000000
--------------------------------------------------------------------------------

  Comparison of initial and final structures : 

--------------------------------------------------------------------------------
  Parameter   Initial value   Final value   Difference    Units      Percent
--------------------------------------------------------------------------------
    Volume        91.368216     86.561224    -4.806992    Angs**3     -5.26
    a              4.504000      4.423586    -0.080414    Angstroms   -1.79
    b              4.504000      4.423586    -0.080414    Angstroms   -1.79
    c              4.504000      4.423586    -0.080414    Angstroms   -1.79
    alpha         90.000000     90.000000     0.000000    Degrees      0.00
    beta          90.000000     90.000000     0.000000    Degrees      0.00
    gamma         90.000000     90.000000     0.000000    Degrees      0.00
      1 x          0.000000      0.000000     0.000000    Fractional   0.00
      1 y          0.000000      0.000000     0.000000    Fractional   0.00
      1 z          0.000000      0.000000     0.000000    Fractional   0.00
      2 x          0.500000      0.500000     0.000000    Fractional   0.00
      2 y          0.500000      0.500000     0.000000    Fractional   0.00
      2 z          0.500000      0.500000     0.000000    Fractional   0.00
      3 x          0.500000      0.500000     0.000000    Fractional   0.00
      3 y          0.500000      0.500000     0.000000    Fractional   0.00
      3 z          0.000000      0.000000     0.000000    Fractional   0.00
      4 x          0.000000      0.000000     0.000000    Fractional   0.00
      4 y          0.000000      0.000000     0.000000    Fractional   0.00
      4 z          0.000000      0.000000     0.000000    Fractional   0.00
      5 x          0.500000      0.500000     0.000000    Fractional   0.00
      5 y          0.500000      0.500000     0.000000    Fractional   0.00
      5 z          0.500000      0.500000     0.000000    Fractional   0.00
--------------------------------------------------------------------------------


  Born effective charge tensors : 

-------------------------------------------------------------------------------
  Atom             x           y             z
-------------------------------------------------------------------------------
    1 Cl    x      -1.0080     -0.0000     -0.0000
            y      -0.0000     -1.0080     -0.0000
            z      -0.0000     -0.0000     -1.0080
-------------------------------------------------------------------------------
    2 O     x      -2.2935      0.0000      0.0000
            y       0.0000     -2.2935      0.0000
            z       0.0000      0.0000     -2.2935
-------------------------------------------------------------------------------
    3 Na    x       1.2323      0.0000     -0.0000
            y       0.0000      1.2323      0.0000
            z      -0.0000      0.0000      0.8370
-------------------------------------------------------------------------------




  Elastic Constant Matrix: (Units=GPa)

-------------------------------------------------------------------------------
  Indices      1         2         3         4         5         6    
-------------------------------------------------------------------------------
       1     77.1814   22.8408   22.8408    0.0000    0.0000    0.0000
       2     22.8408   77.1814   22.8408    0.0000    0.0000    0.0000
       3     22.8408   22.8408   77.1814   -0.0000   -0.0000    0.0000
       4      0.0000    0.0000   -0.0000   22.8408    0.0000   -0.0000
       5      0.0000    0.0000   -0.0000    0.0000   22.8408   -0.0000
       6      0.0000    0.0000    0.0000   -0.0000   -0.0000   22.8408
-------------------------------------------------------------------------------


  Elastic Compliance Matrix: (Units=1/GPa)

-------------------------------------------------------------------------------
  Indices      1         2         3         4         5         6    
-------------------------------------------------------------------------------
       1    0.014981 -0.003421 -0.003421 -0.000000 -0.000000 -0.000000
       2   -0.003421  0.014981 -0.003421 -0.000000 -0.000000 -0.000000
       3   -0.003421 -0.003421  0.014981  0.000000  0.000000 -0.000000
       4   -0.000000 -0.000000  0.000000  0.043781 -0.000000  0.000000
       5   -0.000000 -0.000000  0.000000 -0.000000  0.043781  0.000000
       6   -0.000000 -0.000000 -0.000000  0.000000  0.000000  0.043781
-------------------------------------------------------------------------------

  Mechanical properties :

-------------------------------------------------------------------------------
  Convention :                    Reuss         Voigt         Hill
-------------------------------------------------------------------------------
  Bulk  Modulus (GPa)     =      40.95434      40.95434      40.95434
  Shear Modulus (GPa)     =      24.39576      24.57261      24.48418
-------------------------------------------------------------------------------
  Velocity S-wave (km/s)  =       3.24969       3.26144       3.25557
  Velocity P-wave (km/s)  =       5.63995       5.64899       5.64447
-------------------------------------------------------------------------------
  Compressibility (1/GPa) =    0.02441743
-------------------------------------------------------------------------------
  Stress axis :                     x             y             z
-------------------------------------------------------------------------------
  Youngs Moduli (GPa)     =      66.74971      66.74971      66.74971
-------------------------------------------------------------------------------
  Poissons Ratio (x)      =                     0.22836       0.22836
  Poissons Ratio (y)      =       0.22836                     0.22836
  Poissons Ratio (z)      =       0.22836       0.22836
-------------------------------------------------------------------------------


  Piezoelectric Strain Matrix: (Units=C/m**2)

-------------------------------------------------------------------------------
  Indices      1         2         3         4         5         6    
-------------------------------------------------------------------------------
       x     0.00000   0.00000   0.00000  -0.00000   0.00000   0.00000
       y     0.00000   0.00000   0.00000   0.00000  -0.00000   0.00000
       z    -0.00000  -0.00000  -0.00000   0.00000   0.00000  -0.00000
-------------------------------------------------------------------------------


  Piezoelectric Stress Matrix: (Units=10**-11 C/N)

-------------------------------------------------------------------------------
  Indices      1         2         3         4         5         6    
-------------------------------------------------------------------------------
       x     0.00000  -0.00000  -0.00000  -0.00000   0.00000   0.00000
       y     0.00000  -0.00000   0.00000   0.00000  -0.00000   0.00000
       z     0.00000   0.00000  -0.00000   0.00000   0.00000  -0.00000
-------------------------------------------------------------------------------


  Static dielectric constant tensor : 

-------------------------------------------------------------------------------
              x         y         z
-------------------------------------------------------------------------------
       x    16.24863   0.00000   0.00000
       y     0.00000  16.24863   0.00000
       z     0.00000   0.00000  16.24863
--------------------------------------------------------------------------------

  High frequency dielectric constant tensor : 

-------------------------------------------------------------------------------
              x         y         z
-------------------------------------------------------------------------------
       x     1.50419   0.00000  -0.00000
       y     0.00000   1.50419   0.00000
       z    -0.00000   0.00000   1.50419
-------------------------------------------------------------------------------

  Static refractive indices : 

-------------------------------------------------------------------------------
    1 =    4.03096      2 =    4.03096      3 =    4.03096
-------------------------------------------------------------------------------

  High frequency refractive indices : 

-------------------------------------------------------------------------------
    1 =    1.22646      2 =    1.22646      3 =    1.22646
-------------------------------------------------------------------------------


  Time to end of optimisation =       0.0175 seconds

********************************************************************************
*  Defect calculation for configuration   1 :                                  *
********************************************************************************

  Total number of defects =      1

  Total charge on defect  =  -1.00

  Defect centre is at   0.5000   0.5000   0.0000  Frac

  Region 1 radius =  11.0000      Number of ions =    424

  Number of symmetry inequivalent region 1 ions  =     51

  Region 2 radius =  24.0000      Number of ions =   4254

  Number of symmetry inequivalent region 2a ions =    355

  Region 2a mode = 4 : screened electrostatics due to region 1 
                       neglect correction to region 1 forces from 2a
                       region 2a displacements based on defects only

  Region 2a ions will only interact with defects in region 1

  Vacancies:

--------------------------------------------------------------------------------
    Specification type     Symbol/Number         x          y          z
--------------------------------------------------------------------------------
    Fractional                               0.500000   0.500000   0.000000
--------------------------------------------------------------------------------


  Symmetry reduced region 1 (Relative to defect centre) :

--------------------------------------------------------------------------------
   No.   Atomic       x            y             z       Radius  Multiplicity   
         Label      (Angs)       (Angs)        (Angs)    (Angs)     
--------------------------------------------------------------------------------
     1  O     c      0.0000       0.0000      -2.2118 *  0.0000     2          
     2  Cl    c      2.2118 *     2.2118       0.0000    0.0000     4          
     3  Na    c      2.2118 *     0.0000      -2.2118 *  0.0000     8          
     4  Na    c      0.0000       0.0000       4.4236 *  0.0000     2          
     5  Na    c      0.0000       4.4236 *     0.0000    0.0000     4          
     6  O     c      0.0000       4.4236 *    -2.2118 *  0.0000     8          
     7  Na    c      2.2118 *     4.4236 *    -2.2118 *  0.0000    16          
     8  Cl    c      2.2118 *     2.2118       4.4236 *  0.0000     8          
     9  Na    c      0.0000       4.4236 *     4.4236 *  0.0000     8          
    10  Na    c      4.4236 *     4.4236       0.0000    0.0000     4          
    11  O     c      4.4236 *     4.4236      -2.2118 *  0.0000     8          
    12  O     c      0.0000       0.0000       6.6354 *  0.0000     2          
    13  Cl    c      2.2118 *     6.6354 *     0.0000    0.0000     8          
    14  Na    c      2.2118 *     0.0000       6.6354 *  0.0000     8          
    15  Na    c      6.6354 *     0.0000      -2.2118 *  0.0000     8          
    16  Na    c      4.4236 *     4.4236       4.4236 *  0.0000     8          
    17  O     c      0.0000       4.4236 *     6.6354 *  0.0000     8          
    18  Cl    c      2.2118 *     6.6354 *     4.4236 *  0.0000    16          
    19  Na    c      2.2118 *     4.4236 *     6.6354 *  0.0000    16          
    20  Na    c      6.6354 *     4.4236 *    -2.2118 *  0.0000    16          
    21  Na    c      0.0000       0.0000       8.8472 *  0.0000     2          
    22  Na    c      0.0000       8.8472 *     0.0000    0.0000     4          
    23  O     c      0.0000       8.8472 *    -2.2118 *  0.0000     8          
    24  O     c      4.4236 *     4.4236       6.6354 *  0.0000     8          
    25  Cl    c      2.2118 *     2.2118       8.8472 *  0.0000     8          
    26  Na    c      2.2118 *     8.8472 *    -2.2118 *  0.0000    16          
    27  Cl    c      6.6354 *     6.6354       0.0000    0.0000     4          
    28  Na    c      6.6354 *     0.0000       6.6354 *  0.0000     8          
    29  Na    c      0.0000       4.4236 *     8.8472 *  0.0000     8          
    30  Na    c      0.0000       8.8472 *     4.4236 *  0.0000     8          
    31  Na    c      4.4236 *     8.8472 *     0.0000    0.0000     8          
    32  O     c      4.4236 *     8.8472 *    -2.2118 *  0.0000    16          
    33  Cl    c      6.6354 *     6.6354       4.4236 *  0.0000     8          
    34  Na    c      6.6354 *     4.4236 *     6.6354 *  0.0000    16          
    35  Na    c      4.4236 *     8.8472 *     4.4236 *  0.0000    16          
    36  Na    c      4.4236 *     4.4236       8.8472 *  0.0000     8          
    37  O     s      0.0000       0.0000      -2.2118 *  0.0000     2          
    38  Cl    s      2.2118 *     2.2118       0.0000    0.0000     4          
    39  O     s      0.0000       4.4236 *    -2.2118 *  0.0000     8          
    40  Cl    s      2.2118 *     2.2118       4.4236 *  0.0000     8          
    41  O     s      4.4236 *     4.4236      -2.2118 *  0.0000     8          
    42  O     s      0.0000       0.0000       6.6354 *  0.0000     2          
    43  Cl    s      2.2118 *     6.6354 *     0.0000    0.0000     8          
    44  O     s      0.0000       4.4236 *     6.6354 *  0.0000     8          
    45  Cl    s      2.2118 *     6.6354 *     4.4236 *  0.0000    16          
    46  O     s      0.0000       8.8472 *    -2.2118 *  0.0000     8          
    47  O     s      4.4236 *     4.4236       6.6354 *  0.0000     8          
    48  Cl    s      2.2118 *     2.2118       8.8472 *  0.0000     8          
    49  Cl    s      6.6354 *     6.6354       0.0000    0.0000     4          
    50  O     s      4.4236 *     8.8472 *    -2.2118 *  0.0000    16          
    51  Cl    s      6.6354 *     6.6354       4.4236 *  0.0000     8          
--------------------------------------------------------------------------------


  Constraints on symmetry reduced coordinates :

--------------------------------------------------------------------------------
  Constraint no.      Unconstrained     Constrained    Coefficient    
                         Variable         Variable
--------------------------------------------------------------------------------
           1                 2 x             2 y         1.00000
           2                 8 x             8 y         1.00000
           3                10 x            10 y         1.00000
           4                11 x            11 y         1.00000
           5                16 x            16 y         1.00000
           6                24 x            24 y         1.00000
           7                25 x            25 y         1.00000
           8                27 x            27 y         1.00000
           9                33 x            33 y         1.00000
          10                36 x            36 y         1.00000
          11                38 x            38 y         1.00000
          12                40 x            40 y         1.00000
          13                41 x            41 y         1.00000
          14                47 x            47 y         1.00000
          15                48 x            48 y         1.00000
          16                49 x            49 y         1.00000
          17                51 x            51 y         1.00000
--------------------------------------------------------------------------------


  Components of defect energy : 

--------------------------------------------------------------------------------
  Region 1 - region 1                   =    -13.43688027 eV
  Region 1 - region 2a (unrelaxed)      =     21.88949720 eV
  Region 1 - 2a (relaxed - correction)  =     -0.69281881 eV
  Region 1 (Total)                      =      7.75979813 eV
  Region 2a                             =      0.34626907 eV
  Region 2b                             =     -0.28227902 eV
--------------------------------------------------------------------------------
  Total defect energy                   =      7.82378819 eV
--------------------------------------------------------------------------------

  Largest displacement in region 2 =   0.0204 Angstroms


  Number of variables =       99

  Maximum number of calculations  =        1000
  Maximum Hessian update interval =          10
  Maximum step size               =   1.0000000
  Maximum parameter tolerance     =   0.0000100
  Maximum function  tolerance     =   0.0000100
  Maximum gradient  tolerance     =   0.0010000

  Symmetry adapted optimisation

  Symmetry to be used for second derivatives

  Newton-Raphson optimiser to be used

  BFGS hessian update to be used

  Lower half triangular hessian to be used

  Start of defect optimisation :

  Cycle:      0 Defect Energy:   7.823788  Gnorm:     0.388177  CPU:    0.753
  ** Hessian calculated **
  Cycle:      1 Defect Energy:   5.611315  Gnorm:     0.148149  CPU:    2.003
  Cycle:      2 Defect Energy:   5.260062  Gnorm:     0.108913  CPU:    3.228
  Cycle:      3 Defect Energy:   5.077512  Gnorm:     0.066405  CPU:    4.782
  Cycle:      4 Defect Energy:   4.960098  Gnorm:     0.059571  CPU:    6.416
  Cycle:      5 Defect Energy:   4.893363  Gnorm:     0.046209  CPU:    7.604
  Cycle:      6 Defect Energy:   4.824540  Gnorm:     0.050624  CPU:    9.077
  Cycle:      7 Defect Energy:   4.773877  Gnorm:     0.051344  CPU:   10.557
  Cycle:      8 Defect Energy:   4.731192  Gnorm:     0.032310  CPU:   11.868
  Cycle:      9 Defect Energy:   4.721226  Gnorm:     0.027472  CPU:   12.058
  Cycle:     10 Defect Energy:   4.707427  Gnorm:     0.025160  CPU:   12.392
  ** Hessian calculated **
  Cycle:     11 Defect Energy:   4.674229  Gnorm:     0.022636  CPU:   12.999
  Cycle:     12 Defect Energy:   4.631206  Gnorm:     0.018856  CPU:   13.304
  Cycle:     13 Defect Energy:   4.582013  Gnorm:     0.013202  CPU:   13.610
  Cycle:     14 Defect Energy:   4.558314  Gnorm:     0.009241  CPU:   13.862
  Cycle:     15 Defect Energy:   4.546873  Gnorm:     0.006466  CPU:   14.020
  Cycle:     16 Defect Energy:   4.541335  Gnorm:     0.004524  CPU:   14.180
  Cycle:     17 Defect Energy:   4.538659  Gnorm:     0.003166  CPU:   14.333
  Cycle:     18 Defect Energy:   4.537374  Gnorm:     0.002215  CPU:   14.618
  Cycle:     19 Defect Energy:   4.536762  Gnorm:     0.001550  CPU:   14.892
  Cycle:     20 Defect Energy:   4.536476  Gnorm:     0.001085  CPU:   15.180
  ** Hessian calculated **
  Cycle:     21 Defect Energy:   4.536345  Gnorm:     0.000759  CPU:   15.785
  Cycle:     22 Defect Energy:   4.536288  Gnorm:     0.000532  CPU:   16.077
  Cycle:     23 Defect Energy:   4.536264  Gnorm:     0.000372  CPU:   16.364


  **** Optimisation achieved ****


  Final defect energy  =        4.53625625
  Final defect Gnorm   =        0.00026057

  Components of defect energy : 

--------------------------------------------------------------------------------
  Region 1 - region 1                   =    -15.24482523 eV
  Region 1 - region 2a (unrelaxed)      =     20.37533032 eV
  Region 1 - 2a (relaxed - correction)  =     -0.62408927 eV
  Region 1 (Total)                      =      4.50641582 eV
  Region 2a                             =      0.31211945 eV
  Region 2b                             =     -0.28227902 eV
--------------------------------------------------------------------------------
  Total defect energy                   =      4.53625625 eV
--------------------------------------------------------------------------------

  Largest displacement in region 2 =   0.0204 Angstroms

  Final coordinates of region 1 :

--------------------------------------------------------------------------------
   No.  Atomic        x           y           z          Radius      Charge
        Label       (Angs)      (Angs)      (Angs)       (Angs)       (e) 
--------------------------------------------------------------------------------
     1  O     c     2.211793    2.211793   -2.319080    0.000000    0.183000
     2  O     c     2.211793    2.211793    2.319080    0.000000    0.183000
     3  Cl    c     4.531846    4.531846    0.000000    0.000000    1.485000
     4  Cl    c     4.531846   -0.108260    0.000000    0.000000    1.485000
     5  Cl    c    -0.108260    4.531846    0.000000    0.000000    1.485000
     6  Cl    c    -0.108260   -0.108260    0.000000    0.000000    1.485000
     7  Na    c     4.328606    2.211793   -1.874711    0.000000    1.000000
     8  Na    c     4.328606    2.211793    1.874711    0.000000    1.000000
     9  Na    c     0.094980    2.211793   -1.874711    0.000000    1.000000
    10  Na    c     0.094980    2.211793    1.874711    0.000000    1.000000
    11  Na    c     2.211793    4.328606   -1.874711    0.000000    1.000000
    12  Na    c     2.211793    4.328606    1.874711    0.000000    1.000000
    13  Na    c     2.211793    0.094980   -1.874711    0.000000    1.000000
    14  Na    c     2.211793    0.094980    1.874711    0.000000    1.000000
    15  Na    c     2.211793    2.211793    4.424051    0.000000    1.000000
    16  Na    c     2.211793    2.211793   -4.424051    0.000000    1.000000
    17  Na    c     2.211793    6.846743    0.000000    0.000000    1.000000
    18  Na    c     2.211793   -2.423157    0.000000    0.000000    1.000000
    19  Na    c     6.846743    2.211793    0.000000    0.000000    1.000000
    20  Na    c    -2.423157    2.211793    0.000000    0.000000    1.000000
    21  O     c     2.211793    6.605801   -2.191562    0.000000    0.183000
    22  O     c     2.211793    6.605801    2.191562    0.000000    0.183000
    23  O     c     2.211793   -2.182215   -2.191562    0.000000    0.183000
    24  O     c     2.211793   -2.182215    2.191562    0.000000    0.183000
    25  O     c     6.605801    2.211793   -2.191562    0.000000    0.183000
    26  O     c     6.605801    2.211793    2.191562    0.000000    0.183000
    27  O     c    -2.182215    2.211793   -2.191562    0.000000    0.183000
    28  O     c    -2.182215    2.211793    2.191562    0.000000    0.183000
    29  Na    c     4.417929    6.593391   -2.210500    0.000000    1.000000
    30  Na    c     4.417929    6.593391    2.210500    0.000000    1.000000
    31  Na    c     4.417929   -2.169805   -2.210500    0.000000    1.000000
    32  Na    c     4.417929   -2.169805    2.210500    0.000000    1.000000
    33  Na    c     0.005657    6.593391   -2.210500    0.000000    1.000000
    34  Na    c     0.005657    6.593391    2.210500    0.000000    1.000000
    35  Na    c     0.005657   -2.169805   -2.210500    0.000000    1.000000
    36  Na    c     0.005657   -2.169805    2.210500    0.000000    1.000000
    37  Na    c     6.593391    4.417929   -2.210500    0.000000    1.000000
    38  Na    c     6.593391    4.417929    2.210500    0.000000    1.000000
    39  Na    c     6.593391    0.005657   -2.210500    0.000000    1.000000
    40  Na    c     6.593391    0.005657    2.210500    0.000000    1.000000
    41  Na    c    -2.169805    4.417929   -2.210500    0.000000    1.000000
    42  Na    c    -2.169805    4.417929    2.210500    0.000000    1.000000
    43  Na    c    -2.169805    0.005657   -2.210500    0.000000    1.000000
    44  Na    c    -2.169805    0.005657    2.210500    0.000000    1.000000
    45  Cl    c     4.503724    4.503724    4.512539    0.000000    1.485000
    46  Cl    c     4.503724    4.503724   -4.512539    0.000000    1.485000
    47  Cl    c     4.503724   -0.080138    4.512539    0.000000    1.485000
    48  Cl    c     4.503724   -0.080138   -4.512539    0.000000    1.485000
    49  Cl    c    -0.080138    4.503724    4.512539    0.000000    1.485000
    50  Cl    c    -0.080138    4.503724   -4.512539    0.000000    1.485000
    51  Cl    c    -0.080138   -0.080138    4.512539    0.000000    1.485000
    52  Cl    c    -0.080138   -0.080138   -4.512539    0.000000    1.485000
    53  Na    c     2.211793    6.387545    4.393303    0.000000    1.000000
    54  Na    c     2.211793    6.387545   -4.393303    0.000000    1.000000
    55  Na    c     2.211793   -1.963959    4.393303    0.000000    1.000000
    56  Na    c     2.211793   -1.963959   -4.393303    0.000000    1.000000
    57  Na    c     6.387545    2.211793    4.393303    0.000000    1.000000
    58  Na    c     6.387545    2.211793   -4.393303    0.000000    1.000000
    59  Na    c    -1.963959    2.211793    4.393303    0.000000    1.000000
    60  Na    c    -1.963959    2.211793   -4.393303    0.000000    1.000000
    61  Na    c     6.613816    6.613816    0.000000    0.000000    1.000000
    62  Na    c     6.613816   -2.190230    0.000000    0.000000    1.000000
    63  Na    c    -2.190230    6.613816    0.000000    0.000000    1.000000
    64  Na    c    -2.190230   -2.190230    0.000000    0.000000    1.000000
    65  O     c     6.639905    6.639905   -2.215936    0.000000    0.183000
    66  O     c     6.639905    6.639905    2.215936    0.000000    0.183000
    67  O     c     6.639905   -2.216319   -2.215936    0.000000    0.183000
    68  O     c     6.639905   -2.216319    2.215936    0.000000    0.183000
    69  O     c    -2.216319    6.639905   -2.215936    0.000000    0.183000
    70  O     c    -2.216319    6.639905    2.215936    0.000000    0.183000
    71  O     c    -2.216319   -2.216319   -2.215936    0.000000    0.183000
    72  O     c    -2.216319   -2.216319    2.215936    0.000000    0.183000
    73  O     c     2.211793    2.211793    6.672641    0.000000    0.183000
    74  O     c     2.211793    2.211793   -6.672641    0.000000    0.183000
    75  Cl    c     4.431631    8.873001    0.000000    0.000000    1.485000
    76  Cl    c     4.431631   -4.449415    0.000000    0.000000    1.485000
    77  Cl    c     8.873001    4.431631    0.000000    0.000000    1.485000
    78  Cl    c     8.873001   -0.008045    0.000000    0.000000    1.485000
    79  Cl    c    -0.008045    8.873001    0.000000    0.000000    1.485000
    80  Cl    c    -0.008045   -4.449415    0.000000    0.000000    1.485000
    81  Cl    c    -4.449415    4.431631    0.000000    0.000000    1.485000
    82  Cl    c    -4.449415   -0.008045    0.000000    0.000000    1.485000
    83  Na    c     4.413365    2.211793    6.697166    0.000000    1.000000
    84  Na    c     4.413365    2.211793   -6.697166    0.000000    1.000000
    85  Na    c     0.010221    2.211793    6.697166    0.000000    1.000000
    86  Na    c     0.010221    2.211793   -6.697166    0.000000    1.000000
    87  Na    c     2.211793    4.413365    6.697166    0.000000    1.000000
    88  Na    c     2.211793    4.413365   -6.697166    0.000000    1.000000
    89  Na    c     2.211793    0.010221    6.697166    0.000000    1.000000
    90  Na    c     2.211793    0.010221   -6.697166    0.000000    1.000000
    91  Na    c     8.825031    2.211793   -2.373246    0.000000    1.000000
    92  Na    c     8.825031    2.211793    2.373246    0.000000    1.000000
    93  Na    c    -4.401446    2.211793   -2.373246    0.000000    1.000000
    94  Na    c    -4.401446    2.211793    2.373246    0.000000    1.000000
    95  Na    c     2.211793    8.825031   -2.373246    0.000000    1.000000
    96  Na    c     2.211793    8.825031    2.373246    0.000000    1.000000
    97  Na    c     2.211793   -4.401446   -2.373246    0.000000    1.000000
    98  Na    c     2.211793   -4.401446    2.373246    0.000000    1.000000
    99  Na    c     6.627238    6.627238    4.422298    0.000000    1.000000
   100  Na    c     6.627238    6.627238   -4.422298    0.000000    1.000000
   101  Na    c     6.627238   -2.203653    4.422298    0.000000    1.000000
   102  Na    c     6.627238   -2.203653   -4.422298    0.000000    1.000000
   103  Na    c    -2.203653    6.627238    4.422298    0.000000    1.000000
   104  Na    c    -2.203653    6.627238   -4.422298    0.000000    1.000000
   105  Na    c    -2.203653   -2.203653    4.422298    0.000000    1.000000
   106  Na    c    -2.203653   -2.203653   -4.422298    0.000000    1.000000
   107  O     c     2.211793    6.616350    6.620400    0.000000    0.183000
   108  O     c     2.211793    6.616350   -6.620400    0.000000    0.183000
   109  O     c     2.211793   -2.192764    6.620400    0.000000    0.183000
   110  O     c     2.211793   -2.192764   -6.620400    0.000000    0.183000
   111  O     c     6.616350    2.211793    6.620400    0.000000    0.183000
   112  O     c     6.616350    2.211793   -6.620400    0.000000    0.183000
   113  O     c    -2.192764    2.211793    6.620400    0.000000    0.183000
   114  O     c    -2.192764    2.211793   -6.620400    0.000000    0.183000
   115  Cl    c     4.433029    8.881623    4.420371    0.000000    1.485000
   116  Cl    c     4.433029    8.881623   -4.420371    0.000000    1.485000
   117  Cl    c     4.433029   -4.458037    4.420371    0.000000    1.485000
   118  Cl    c     4.433029   -4.458037   -4.420371    0.000000    1.485000
   119  Cl    c     8.881623    4.433029    4.420371    0.000000    1.485000
   120  Cl    c     8.881623    4.433029   -4.420371    0.000000    1.485000
   121  Cl    c     8.881623   -0.009443    4.420371    0.000000    1.485000
   122  Cl    c     8.881623   -0.009443   -4.420371    0.000000    1.485000
   123  Cl    c    -0.009443    8.881623    4.420371    0.000000    1.485000
   124  Cl    c    -0.009443    8.881623   -4.420371    0.000000    1.485000
   125  Cl    c    -0.009443   -4.458037    4.420371    0.000000    1.485000
   126  Cl    c    -0.009443   -4.458037   -4.420371    0.000000    1.485000
   127  Cl    c    -4.458037    4.433029    4.420371    0.000000    1.485000
   128  Cl    c    -4.458037    4.433029   -4.420371    0.000000    1.485000
   129  Cl    c    -4.458037   -0.009443    4.420371    0.000000    1.485000
   130  Cl    c    -4.458037   -0.009443   -4.420371    0.000000    1.485000
   131  Na    c     4.424281    6.624484    6.591675    0.000000    1.000000
   132  Na    c     4.424281    6.624484   -6.591675    0.000000    1.000000
   133  Na    c     4.424281   -2.200898    6.591675    0.000000    1.000000
   134  Na    c     4.424281   -2.200898   -6.591675    0.000000    1.000000
   135  Na    c    -0.000695    6.624484    6.591675    0.000000    1.000000
   136  Na    c    -0.000695    6.624484   -6.591675    0.000000    1.000000
   137  Na    c    -0.000695   -2.200898    6.591675    0.000000    1.000000
   138  Na    c    -0.000695   -2.200898   -6.591675    0.000000    1.000000
   139  Na    c     6.624484    4.424281    6.591675    0.000000    1.000000
   140  Na    c     6.624484    4.424281   -6.591675    0.000000    1.000000
   141  Na    c     6.624484   -0.000695    6.591675    0.000000    1.000000
   142  Na    c     6.624484   -0.000695   -6.591675    0.000000    1.000000
   143  Na    c    -2.200898    4.424281    6.591675    0.000000    1.000000
   144  Na    c    -2.200898    4.424281   -6.591675    0.000000    1.000000
   145  Na    c    -2.200898   -0.000695    6.591675    0.000000    1.000000
   146  Na    c    -2.200898   -0.000695   -6.591675    0.000000    1.000000
   147  Na    c     8.843204    6.625093   -2.202097    0.000000    1.000000
   148  Na    c     8.843204    6.625093    2.202097    0.000000    1.000000
   149  Na    c     8.843204   -2.201507   -2.202097    0.000000    1.000000
   150  Na    c     8.843204   -2.201507    2.202097    0.000000    1.000000
   151  Na    c    -4.419618    6.625093   -2.202097    0.000000    1.000000
   152  Na    c    -4.419618    6.625093    2.202097    0.000000    1.000000
   153  Na    c    -4.419618   -2.201507   -2.202097    0.000000    1.000000
   154  Na    c    -4.419618   -2.201507    2.202097    0.000000    1.000000
   155  Na    c     6.625093    8.843204   -2.202097    0.000000    1.000000
   156  Na    c     6.625093    8.843204    2.202097    0.000000    1.000000
   157  Na    c     6.625093   -4.419618   -2.202097    0.000000    1.000000
   158  Na    c     6.625093   -4.419618    2.202097    0.000000    1.000000
   159  Na    c    -2.201507    8.843204   -2.202097    0.000000    1.000000
   160  Na    c    -2.201507    8.843204    2.202097    0.000000    1.000000
   161  Na    c    -2.201507   -4.419618   -2.202097    0.000000    1.000000
   162  Na    c    -2.201507   -4.419618    2.202097    0.000000    1.000000
   163  Na    c     2.211793    2.211793    8.872424    0.000000    1.000000
   164  Na    c     2.211793    2.211793   -8.872424    0.000000    1.000000
   165  Na    c     2.211793   10.965058    0.000000    0.000000    1.000000
   166  Na    c     2.211793   -6.541472    0.000000    0.000000    1.000000
   167  Na    c    10.965058    2.211793    0.000000    0.000000    1.000000
   168  Na    c    -6.541472    2.211793    0.000000    0.000000    1.000000
   169  O     c     2.211793   11.049967   -2.224782    0.000000    0.183000
   170  O     c     2.211793   11.049967    2.224782    0.000000    0.183000
   171  O     c     2.211793   -6.626381   -2.224782    0.000000    0.183000
   172  O     c     2.211793   -6.626381    2.224782    0.000000    0.183000
   173  O     c    11.049967    2.211793   -2.224782    0.000000    0.183000
   174  O     c    11.049967    2.211793    2.224782    0.000000    0.183000
   175  O     c    -6.626381    2.211793   -2.224782    0.000000    0.183000
   176  O     c    -6.626381    2.211793    2.224782    0.000000    0.183000
   177  O     c     6.644757    6.644757    6.638220    0.000000    0.183000
   178  O     c     6.644757    6.644757   -6.638220    0.000000    0.183000
   179  O     c     6.644757   -2.221171    6.638220    0.000000    0.183000
   180  O     c     6.644757   -2.221171   -6.638220    0.000000    0.183000
   181  O     c    -2.221171    6.644757    6.638220    0.000000    0.183000
   182  O     c    -2.221171    6.644757   -6.638220    0.000000    0.183000
   183  O     c    -2.221171   -2.221171    6.638220    0.000000    0.183000
   184  O     c    -2.221171   -2.221171   -6.638220    0.000000    0.183000
   185  Cl    c     4.420925    4.420925    8.879329    0.000000    1.485000
   186  Cl    c     4.420925    4.420925   -8.879329    0.000000    1.485000
   187  Cl    c     4.420925    0.002661    8.879329    0.000000    1.485000
   188  Cl    c     4.420925    0.002661   -8.879329    0.000000    1.485000
   189  Cl    c     0.002661    4.420925    8.879329    0.000000    1.485000
   190  Cl    c     0.002661    4.420925   -8.879329    0.000000    1.485000
   191  Cl    c     0.002661    0.002661    8.879329    0.000000    1.485000
   192  Cl    c     0.002661    0.002661   -8.879329    0.000000    1.485000
   193  Na    c     4.421058   11.044230   -2.191546    0.000000    1.000000
   194  Na    c     4.421058   11.044230    2.191546    0.000000    1.000000
   195  Na    c     4.421058   -6.620644   -2.191546    0.000000    1.000000
   196  Na    c     4.421058   -6.620644    2.191546    0.000000    1.000000
   197  Na    c     0.002528   11.044230   -2.191546    0.000000    1.000000
   198  Na    c     0.002528   11.044230    2.191546    0.000000    1.000000
   199  Na    c     0.002528   -6.620644   -2.191546    0.000000    1.000000
   200  Na    c     0.002528   -6.620644    2.191546    0.000000    1.000000
   201  Na    c    11.044230    4.421058   -2.191546    0.000000    1.000000
   202  Na    c    11.044230    4.421058    2.191546    0.000000    1.000000
   203  Na    c    11.044230    0.002528   -2.191546    0.000000    1.000000
   204  Na    c    11.044230    0.002528    2.191546    0.000000    1.000000
   205  Na    c    -6.620644    4.421058   -2.191546    0.000000    1.000000
   206  Na    c    -6.620644    4.421058    2.191546    0.000000    1.000000
   207  Na    c    -6.620644    0.002528   -2.191546    0.000000    1.000000
   208  Na    c    -6.620644    0.002528    2.191546    0.000000    1.000000
   209  Cl    c     8.862622    8.862622    0.000000    0.000000    1.485000
   210  Cl    c     8.862622   -4.439037    0.000000    0.000000    1.485000
   211  Cl    c    -4.439037    8.862622    0.000000    0.000000    1.485000
   212  Cl    c    -4.439037   -4.439037    0.000000    0.000000    1.485000
   213  Na    c     8.827941    2.211793    6.550326    0.000000    1.000000
   214  Na    c     8.827941    2.211793   -6.550326    0.000000    1.000000
   215  Na    c    -4.404355    2.211793    6.550326    0.000000    1.000000
   216  Na    c    -4.404355    2.211793   -6.550326    0.000000    1.000000
   217  Na    c     2.211793    8.827941    6.550326    0.000000    1.000000
   218  Na    c     2.211793    8.827941   -6.550326    0.000000    1.000000
   219  Na    c     2.211793   -4.404355    6.550326    0.000000    1.000000
   220  Na    c     2.211793   -4.404355   -6.550326    0.000000    1.000000
   221  Na    c     2.211793    6.665653    8.833062    0.000000    1.000000
   222  Na    c     2.211793    6.665653   -8.833062    0.000000    1.000000
   223  Na    c     2.211793   -2.242067    8.833062    0.000000    1.000000
   224  Na    c     2.211793   -2.242067   -8.833062    0.000000    1.000000
   225  Na    c     6.665653    2.211793    8.833062    0.000000    1.000000
   226  Na    c     6.665653    2.211793   -8.833062    0.000000    1.000000
   227  Na    c    -2.242067    2.211793    8.833062    0.000000    1.000000
   228  Na    c    -2.242067    2.211793   -8.833062    0.000000    1.000000
   229  Na    c     2.211793   11.090891    4.426234    0.000000    1.000000
   230  Na    c     2.211793   11.090891   -4.426234    0.000000    1.000000
   231  Na    c     2.211793   -6.667305    4.426234    0.000000    1.000000
   232  Na    c     2.211793   -6.667305   -4.426234    0.000000    1.000000
   233  Na    c    11.090891    2.211793    4.426234    0.000000    1.000000
   234  Na    c    11.090891    2.211793   -4.426234    0.000000    1.000000
   235  Na    c    -6.667305    2.211793    4.426234    0.000000    1.000000
   236  Na    c    -6.667305    2.211793   -4.426234    0.000000    1.000000
   237  Na    c     6.640511   11.051798    0.000000    0.000000    1.000000
   238  Na    c     6.640511   -6.628212    0.000000    0.000000    1.000000
   239  Na    c    11.051798    6.640511    0.000000    0.000000    1.000000
   240  Na    c    11.051798   -2.216925    0.000000    0.000000    1.000000
   241  Na    c    -2.216925   11.051798    0.000000    0.000000    1.000000
   242  Na    c    -2.216925   -6.628212    0.000000    0.000000    1.000000
   243  Na    c    -6.628212    6.640511    0.000000    0.000000    1.000000
   244  Na    c    -6.628212   -2.216925    0.000000    0.000000    1.000000
   245  O     c     6.638955   11.063005   -2.208348    0.000000    0.183000
   246  O     c     6.638955   11.063005    2.208348    0.000000    0.183000
   247  O     c     6.638955   -6.639419   -2.208348    0.000000    0.183000
   248  O     c     6.638955   -6.639419    2.208348    0.000000    0.183000
   249  O     c    11.063005    6.638955   -2.208348    0.000000    0.183000
   250  O     c    11.063005    6.638955    2.208348    0.000000    0.183000
   251  O     c    11.063005   -2.215369   -2.208348    0.000000    0.183000
   252  O     c    11.063005   -2.215369    2.208348    0.000000    0.183000
   253  O     c    -2.215369   11.063005   -2.208348    0.000000    0.183000
   254  O     c    -2.215369   11.063005    2.208348    0.000000    0.183000
   255  O     c    -2.215369   -6.639419   -2.208348    0.000000    0.183000
   256  O     c    -2.215369   -6.639419    2.208348    0.000000    0.183000
   257  O     c    -6.639419    6.638955   -2.208348    0.000000    0.183000
   258  O     c    -6.639419    6.638955    2.208348    0.000000    0.183000
   259  O     c    -6.639419   -2.215369   -2.208348    0.000000    0.183000
   260  O     c    -6.639419   -2.215369    2.208348    0.000000    0.183000
   261  Cl    c     8.866705    8.866705    4.433472    0.000000    1.485000
   262  Cl    c     8.866705    8.866705   -4.433472    0.000000    1.485000
   263  Cl    c     8.866705   -4.443119    4.433472    0.000000    1.485000
   264  Cl    c     8.866705   -4.443119   -4.433472    0.000000    1.485000
   265  Cl    c    -4.443119    8.866705    4.433472    0.000000    1.485000
   266  Cl    c    -4.443119    8.866705   -4.433472    0.000000    1.485000
   267  Cl    c    -4.443119   -4.443119    4.433472    0.000000    1.485000
   268  Cl    c    -4.443119   -4.443119   -4.433472    0.000000    1.485000
   269  Na    c     8.844767    6.632797    6.637211    0.000000    1.000000
   270  Na    c     8.844767    6.632797   -6.637211    0.000000    1.000000
   271  Na    c     8.844767   -2.209211    6.637211    0.000000    1.000000
   272  Na    c     8.844767   -2.209211   -6.637211    0.000000    1.000000
   273  Na    c    -4.421182    6.632797    6.637211    0.000000    1.000000
   274  Na    c    -4.421182    6.632797   -6.637211    0.000000    1.000000
   275  Na    c    -4.421182   -2.209211    6.637211    0.000000    1.000000
   276  Na    c    -4.421182   -2.209211   -6.637211    0.000000    1.000000
   277  Na    c     6.632797    8.844767    6.637211    0.000000    1.000000
   278  Na    c     6.632797    8.844767   -6.637211    0.000000    1.000000
   279  Na    c     6.632797   -4.421182    6.637211    0.000000    1.000000
   280  Na    c     6.632797   -4.421182   -6.637211    0.000000    1.000000
   281  Na    c    -2.209211    8.844767    6.637211    0.000000    1.000000
   282  Na    c    -2.209211    8.844767   -6.637211    0.000000    1.000000
   283  Na    c    -2.209211   -4.421182    6.637211    0.000000    1.000000
   284  Na    c    -2.209211   -4.421182   -6.637211    0.000000    1.000000
   285  Na    c     6.620313   11.032674    4.418618    0.000000    1.000000
   286  Na    c     6.620313   11.032674   -4.418618    0.000000    1.000000
   287  Na    c     6.620313   -6.609088    4.418618    0.000000    1.000000
   288  Na    c     6.620313   -6.609088   -4.418618    0.000000    1.000000
   289  Na    c    11.032674    6.620313    4.418618    0.000000    1.000000
   290  Na    c    11.032674    6.620313   -4.418618    0.000000    1.000000
   291  Na    c    11.032674   -2.196727    4.418618    0.000000    1.000000
   292  Na    c    11.032674   -2.196727   -4.418618    0.000000    1.000000
   293  Na    c    -2.196727   11.032674    4.418618    0.000000    1.000000
   294  Na    c    -2.196727   11.032674   -4.418618    0.000000    1.000000
   295  Na    c    -2.196727   -6.609088    4.418618    0.000000    1.000000
   296  Na    c    -2.196727   -6.609088   -4.418618    0.000000    1.000000
   297  Na    c    -6.609088    6.620313    4.418618    0.000000    1.000000
   298  Na    c    -6.609088    6.620313   -4.418618    0.000000    1.000000
   299  Na    c    -6.609088   -2.196727    4.418618    0.000000    1.000000
   300  Na    c    -6.609088   -2.196727   -4.418618    0.000000    1.000000
   301  Na    c     6.617266    6.617266    8.838335    0.000000    1.000000
   302  Na    c     6.617266    6.617266   -8.838335    0.000000    1.000000
   303  Na    c     6.617266   -2.193680    8.838335    0.000000    1.000000
   304  Na    c     6.617266   -2.193680   -8.838335    0.000000    1.000000
   305  Na    c    -2.193680    6.617266    8.838335    0.000000    1.000000
   306  Na    c    -2.193680    6.617266   -8.838335    0.000000    1.000000
   307  Na    c    -2.193680   -2.193680    8.838335    0.000000    1.000000
   308  Na    c    -2.193680   -2.193680   -8.838335    0.000000    1.000000
   309  O     s     2.211793    2.211793   -2.319246    0.000000   -2.183000
   310  O     s     2.211793    2.211793    2.319246    0.000000   -2.183000
   311  Cl    s     4.536161    4.536161    0.000000    0.000000   -2.485000
   312  Cl    s     4.536161   -0.112575    0.000000    0.000000   -2.485000
   313  Cl    s    -0.112575    4.536161    0.000000    0.000000   -2.485000
   314  Cl    s    -0.112575   -0.112575    0.000000    0.000000   -2.485000
   315  O     s     2.211793    6.605873   -2.191547    0.000000   -2.183000
   316  O     s     2.211793    6.605873    2.191547    0.000000   -2.183000
   317  O     s     2.211793   -2.182287   -2.191547    0.000000   -2.183000
   318  O     s     2.211793   -2.182287    2.191547    0.000000   -2.183000
   319  O     s     6.605873    2.211793   -2.191547    0.000000   -2.183000
   320  O     s     6.605873    2.211793    2.191547    0.000000   -2.183000
   321  O     s    -2.182287    2.211793   -2.191547    0.000000   -2.183000
   322  O     s    -2.182287    2.211793    2.191547    0.000000   -2.183000
   323  Cl    s     4.516119    4.516119    4.525317    0.000000   -2.485000
   324  Cl    s     4.516119    4.516119   -4.525317    0.000000   -2.485000
   325  Cl    s     4.516119   -0.092533    4.525317    0.000000   -2.485000
   326  Cl    s     4.516119   -0.092533   -4.525317    0.000000   -2.485000
   327  Cl    s    -0.092533    4.516119    4.525317    0.000000   -2.485000
   328  Cl    s    -0.092533    4.516119   -4.525317    0.000000   -2.485000
   329  Cl    s    -0.092533   -0.092533    4.525317    0.000000   -2.485000
   330  Cl    s    -0.092533   -0.092533   -4.525317    0.000000   -2.485000
   331  O     s     6.639908    6.639908   -2.215941    0.000000   -2.183000
   332  O     s     6.639908    6.639908    2.215941    0.000000   -2.183000
   333  O     s     6.639908   -2.216323   -2.215941    0.000000   -2.183000
   334  O     s     6.639908   -2.216323    2.215941    0.000000   -2.183000
   335  O     s    -2.216323    6.639908   -2.215941    0.000000   -2.183000
   336  O     s    -2.216323    6.639908    2.215941    0.000000   -2.183000
   337  O     s    -2.216323   -2.216323   -2.215941    0.000000   -2.183000
   338  O     s    -2.216323   -2.216323    2.215941    0.000000   -2.183000
   339  O     s     2.211793    2.211793    6.672714    0.000000   -2.183000
   340  O     s     2.211793    2.211793   -6.672714    0.000000   -2.183000
   341  Cl    s     4.431411    8.875740    0.000000    0.000000   -2.485000
   342  Cl    s     4.431411   -4.452155    0.000000    0.000000   -2.485000
   343  Cl    s     8.875740    4.431411    0.000000    0.000000   -2.485000
   344  Cl    s     8.875740   -0.007825    0.000000    0.000000   -2.485000
   345  Cl    s    -0.007825    8.875740    0.000000    0.000000   -2.485000
   346  Cl    s    -0.007825   -4.452155    0.000000    0.000000   -2.485000
   347  Cl    s    -4.452155    4.431411    0.000000    0.000000   -2.485000
   348  Cl    s    -4.452155   -0.007825    0.000000    0.000000   -2.485000
   349  O     s     2.211793    6.616313    6.620420    0.000000   -2.183000
   350  O     s     2.211793    6.616313   -6.620420    0.000000   -2.183000
   351  O     s     2.211793   -2.192727    6.620420    0.000000   -2.183000
   352  O     s     2.211793   -2.192727   -6.620420    0.000000   -2.183000
   353  O     s     6.616313    2.211793    6.620420    0.000000   -2.183000
   354  O     s     6.616313    2.211793   -6.620420    0.000000   -2.183000
   355  O     s    -2.192727    2.211793    6.620420    0.000000   -2.183000
   356  O     s    -2.192727    2.211793   -6.620420    0.000000   -2.183000
   357  Cl    s     4.433306    8.887214    4.419775    0.000000   -2.485000
   358  Cl    s     4.433306    8.887214   -4.419775    0.000000   -2.485000
   359  Cl    s     4.433306   -4.463628    4.419775    0.000000   -2.485000
   360  Cl    s     4.433306   -4.463628   -4.419775    0.000000   -2.485000
   361  Cl    s     8.887214    4.433306    4.419775    0.000000   -2.485000
   362  Cl    s     8.887214    4.433306   -4.419775    0.000000   -2.485000
   363  Cl    s     8.887214   -0.009720    4.419775    0.000000   -2.485000
   364  Cl    s     8.887214   -0.009720   -4.419775    0.000000   -2.485000
   365  Cl    s    -0.009720    8.887214    4.419775    0.000000   -2.485000
   366  Cl    s    -0.009720    8.887214   -4.419775    0.000000   -2.485000
   367  Cl    s    -0.009720   -4.463628    4.419775    0.000000   -2.485000
   368  Cl    s    -0.009720   -4.463628   -4.419775    0.000000   -2.485000
   369  Cl    s    -4.463628    4.433306    4.419775    0.000000   -2.485000
   370  Cl    s    -4.463628    4.433306   -4.419775    0.000000   -2.485000
   371  Cl    s    -4.463628   -0.009720    4.419775    0.000000   -2.485000
   372  Cl    s    -4.463628   -0.009720   -4.419775    0.000000   -2.485000
   373  O     s     2.211793   11.049968   -2.224822    0.000000   -2.183000
   374  O     s     2.211793   11.049968    2.224822    0.000000   -2.183000
   375  O     s     2.211793   -6.626382   -2.224822    0.000000   -2.183000
   376  O     s     2.211793   -6.626382    2.224822    0.000000   -2.183000
   377  O     s    11.049968    2.211793   -2.224822    0.000000   -2.183000
   378  O     s    11.049968    2.211793    2.224822    0.000000   -2.183000
   379  O     s    -6.626382    2.211793   -2.224822    0.000000   -2.183000
   380  O     s    -6.626382    2.211793    2.224822    0.000000   -2.183000
   381  O     s     6.644767    6.644767    6.638220    0.000000   -2.183000
   382  O     s     6.644767    6.644767   -6.638220    0.000000   -2.183000
   383  O     s     6.644767   -2.221182    6.638220    0.000000   -2.183000
   384  O     s     6.644767   -2.221182   -6.638220    0.000000   -2.183000
   385  O     s    -2.221182    6.644767    6.638220    0.000000   -2.183000
   386  O     s    -2.221182    6.644767   -6.638220    0.000000   -2.183000
   387  O     s    -2.221182   -2.221182    6.638220    0.000000   -2.183000
   388  O     s    -2.221182   -2.221182   -6.638220    0.000000   -2.183000
   389  Cl    s     4.419758    4.419758    8.881469    0.000000   -2.485000
   390  Cl    s     4.419758    4.419758   -8.881469    0.000000   -2.485000
   391  Cl    s     4.419758    0.003828    8.881469    0.000000   -2.485000
   392  Cl    s     4.419758    0.003828   -8.881469    0.000000   -2.485000
   393  Cl    s     0.003828    4.419758    8.881469    0.000000   -2.485000
   394  Cl    s     0.003828    4.419758   -8.881469    0.000000   -2.485000
   395  Cl    s     0.003828    0.003828    8.881469    0.000000   -2.485000
   396  Cl    s     0.003828    0.003828   -8.881469    0.000000   -2.485000
   397  Cl    s     8.864615    8.864615    0.000000    0.000000   -2.485000
   398  Cl    s     8.864615   -4.441029    0.000000    0.000000   -2.485000
   399  Cl    s    -4.441029    8.864615    0.000000    0.000000   -2.485000
   400  Cl    s    -4.441029   -4.441029    0.000000    0.000000   -2.485000
   401  O     s     6.638960   11.063007   -2.208342    0.000000   -2.183000
   402  O     s     6.638960   11.063007    2.208342    0.000000   -2.183000
   403  O     s     6.638960   -6.639421   -2.208342    0.000000   -2.183000
   404  O     s     6.638960   -6.639421    2.208342    0.000000   -2.183000
   405  O     s    11.063007    6.638960   -2.208342    0.000000   -2.183000
   406  O     s    11.063007    6.638960    2.208342    0.000000   -2.183000
   407  O     s    11.063007   -2.215374   -2.208342    0.000000   -2.183000
   408  O     s    11.063007   -2.215374    2.208342    0.000000   -2.183000
   409  O     s    -2.215374   11.063007   -2.208342    0.000000   -2.183000
   410  O     s    -2.215374   11.063007    2.208342    0.000000   -2.183000
   411  O     s    -2.215374   -6.639421   -2.208342    0.000000   -2.183000
   412  O     s    -2.215374   -6.639421    2.208342    0.000000   -2.183000
   413  O     s    -6.639421    6.638960   -2.208342    0.000000   -2.183000
   414  O     s    -6.639421    6.638960    2.208342    0.000000   -2.183000
   415  O     s    -6.639421   -2.215374   -2.208342    0.000000   -2.183000
   416  O     s    -6.639421   -2.215374    2.208342    0.000000   -2.183000
   417  Cl    s     8.868996    8.868996    4.434806    0.000000   -2.485000
   418  Cl    s     8.868996    8.868996   -4.434806    0.000000   -2.485000
   419  Cl    s     8.868996   -4.445410    4.434806    0.000000   -2.485000
   420  Cl    s     8.868996   -4.445410   -4.434806    0.000000   -2.485000
   421  Cl    s    -4.445410    8.868996    4.434806    0.000000   -2.485000
   422  Cl    s    -4.445410    8.868996   -4.434806    0.000000   -2.485000
   423  Cl    s    -4.445410   -4.445410    4.434806    0.000000   -2.485000
   424  Cl    s    -4.445410   -4.445410   -4.434806    0.000000   -2.485000
--------------------------------------------------------------------------------

  Final coordinates of symmetry reduced region 1 (relative to defect centre):

--------------------------------------------------------------------------------
   No.  Atomic        x           y           z          Charge
        Label       (Angs)      (Angs)      (Angs)         (e) 
--------------------------------------------------------------------------------
     1  O     c     0.000000    0.000000   -2.319080    0.183000
     2  Cl    c     2.320053    2.320053    0.000000    1.485000
     3  Na    c     2.116813    0.000000   -1.874711    1.000000
     4  Na    c     0.000000    0.000000    4.424051    1.000000
     5  Na    c     0.000000    4.634950    0.000000    1.000000
     6  O     c     0.000000    4.394008   -2.191562    0.183000
     7  Na    c     2.206136    4.381598   -2.210500    1.000000
     8  Cl    c     2.291931    2.291931    4.512539    1.485000
     9  Na    c     0.000000    4.175752    4.393303    1.000000
    10  Na    c     4.402023    4.402023    0.000000    1.000000
    11  O     c     4.428112    4.428112   -2.215936    0.183000
    12  O     c     0.000000    0.000000    6.672641    0.183000
    13  Cl    c     2.219838    6.661208    0.000000    1.485000
    14  Na    c     2.201572    0.000000    6.697166    1.000000
    15  Na    c     6.613238    0.000000   -2.373246    1.000000
    16  Na    c     4.415446    4.415446    4.422298    1.000000
    17  O     c     0.000000    4.404557    6.620400    0.183000
    18  Cl    c     2.221236    6.669830    4.420371    1.485000
    19  Na    c     2.212488    4.412691    6.591675    1.000000
    20  Na    c     6.631411    4.413300   -2.202097    1.000000
    21  Na    c     0.000000    0.000000    8.872424    1.000000
    22  Na    c     0.000000    8.753265    0.000000    1.000000
    23  O     c     0.000000    8.838174   -2.224782    0.183000
    24  O     c     4.432964    4.432964    6.638220    0.183000
    25  Cl    c     2.209132    2.209132    8.879329    1.485000
    26  Na    c     2.209265    8.832437   -2.191546    1.000000
    27  Cl    c     6.650829    6.650829    0.000000    1.485000
    28  Na    c     6.616148    0.000000    6.550326    1.000000
    29  Na    c     0.000000    4.453860    8.833062    1.000000
    30  Na    c     0.000000    8.879098    4.426234    1.000000
    31  Na    c     4.428718    8.840005    0.000000    1.000000
    32  O     c     4.427162    8.851212   -2.208348    0.183000
    33  Cl    c     6.654912    6.654912    4.433472    1.485000
    34  Na    c     6.632974    4.421004    6.637211    1.000000
    35  Na    c     4.408520    8.820881    4.418618    1.000000
    36  Na    c     4.405473    4.405473    8.838335    1.000000
    37  O     s     0.000000    0.000000   -2.319246   -2.183000
    38  Cl    s     2.324368    2.324368    0.000000   -2.485000
    39  O     s     0.000000    4.394080   -2.191547   -2.183000
    40  Cl    s     2.304326    2.304326    4.525317   -2.485000
    41  O     s     4.428116    4.428116   -2.215941   -2.183000
    42  O     s     0.000000    0.000000    6.672714   -2.183000
    43  Cl    s     2.219618    6.663947    0.000000   -2.485000
    44  O     s     0.000000    4.404520    6.620420   -2.183000
    45  Cl    s     2.221513    6.675421    4.419775   -2.485000
    46  O     s     0.000000    8.838175   -2.224822   -2.183000
    47  O     s     4.432974    4.432974    6.638220   -2.183000
    48  Cl    s     2.207965    2.207965    8.881469   -2.485000
    49  Cl    s     6.652822    6.652822    0.000000   -2.485000
    50  O     s     4.427167    8.851214   -2.208342   -2.183000
    51  Cl    s     6.657203    6.657203    4.434806   -2.485000
--------------------------------------------------------------------------------


  Final derivatives for region 1 :

--------------------------------------------------------------------------------
   No.  Atomic          x             y             z            Radius
        Label       (eV/Angs)     (eV/Angs)     (eV/Angs)       (eV/Angs)
--------------------------------------------------------------------------------
     1  O     c       0.000000      0.000000      0.002316      0.000000
     2  Cl    c      -0.004059      0.000000      0.000000      0.000000
     3  Na    c      -0.000064      0.000000      0.000770      0.000000
     4  Na    c       0.000000      0.000000      0.000244      0.000000
     5  Na    c       0.000000      0.000571      0.000000      0.000000
     6  O     c       0.000000      0.004537     -0.005546      0.000000
     7  Na    c      -0.000993     -0.001071     -0.000099      0.000000
     8  Cl    c      -0.002764      0.000000     -0.001286      0.000000
     9  Na    c       0.000000     -0.000644      0.000582      0.000000
    10  Na    c      -0.000878      0.000000      0.000000      0.000000
    11  O     c       0.003817      0.000000      0.000608      0.000000
    12  O     c       0.000000      0.000000     -0.001217      0.000000
    13  Cl    c      -0.000833     -0.001733      0.000000      0.000000
    14  Na    c      -0.001001      0.000000     -0.000210      0.000000
    15  Na    c      -0.001386      0.000000     -0.003302      0.000000
    16  Na    c       0.000469      0.000000     -0.000401      0.000000
    17  O     c       0.000000      0.006296      0.005379      0.000000
    18  Cl    c      -0.000159     -0.002340      0.001927      0.000000
    19  Na    c       0.000018     -0.000797     -0.000646      0.000000
    20  Na    c      -0.001533      0.000175      0.002511      0.000000
    21  Na    c       0.000000      0.000000     -0.000012      0.000000
    22  Na    c       0.000000     -0.000351      0.000000      0.000000
    23  O     c       0.000000      0.003727      0.005823      0.000000
    24  O     c      -0.003280      0.000000      0.000894      0.000000
    25  Cl    c       0.000737      0.000000     -0.001525      0.000000
    26  Na    c      -0.000100      0.000674      0.000266      0.000000
    27  Cl    c      -0.000848      0.000000      0.000000      0.000000
    28  Na    c      -0.000223      0.000000     -0.000367      0.000000
    29  Na    c       0.000000     -0.000066     -0.000819      0.000000
    30  Na    c       0.000000      0.001097      0.000251      0.000000
    31  Na    c       0.000299     -0.000050      0.000000      0.000000
    32  O     c      -0.000215      0.000024     -0.006150      0.000000
    33  Cl    c      -0.000096      0.000000     -0.000497      0.000000
    34  Na    c       0.000292     -0.000596      0.000523      0.000000
    35  Na    c       0.000112     -0.000167     -0.000925      0.000000
    36  Na    c      -0.000430      0.000000     -0.000383      0.000000
    37  O     s       0.000000      0.000000      0.003712      0.000000
    38  Cl    s      -0.004813      0.000000      0.000000      0.000000
    39  O     s       0.000000      0.002082     -0.002797      0.000000
    40  Cl    s      -0.007739      0.000000     -0.005284      0.000000
    41  O     s       0.001776      0.000000     -0.000638      0.000000
    42  O     s       0.000000      0.000000     -0.001843      0.000000
    43  Cl    s      -0.002927     -0.001198      0.000000      0.000000
    44  O     s       0.000000      0.006696      0.004677      0.000000
    45  Cl    s      -0.000211     -0.003215     -0.002691      0.000000
    46  O     s       0.000000      0.000203      0.007047      0.000000
    47  O     s      -0.000926      0.000000     -0.000305      0.000000
    48  Cl    s       0.001591      0.000000     -0.000155      0.000000
    49  Cl    s      -0.000805      0.000000      0.000000      0.000000
    50  O     s      -0.002876     -0.002153     -0.006370      0.000000
    51  Cl    s      -0.002157      0.000000     -0.000588      0.000000
--------------------------------------------------------------------------------

  Comparison of initial and final region 1 : 

--------------------------------------------------------------------------------
  Parameter   Initial value   Final value   Difference    Units      Percent
--------------------------------------------------------------------------------
      1 x          2.211793      2.211793     0.000000    Cartesian    0.00
      1 y          2.211793      2.211793     0.000000    Cartesian    0.00
      1 z         -2.211793     -2.319080    -0.107287    Cartesian    4.85
      2 x          4.423586      4.531846     0.108260    Cartesian    2.45
      2 y          4.423586      4.531846     0.108260    Cartesian    2.45
      2 z          0.000000      0.000000     0.000000    Cartesian    0.00
      3 x          4.423586      4.328606    -0.094980    Cartesian   -2.15
      3 y          2.211793      2.211793     0.000000    Cartesian    0.00
      3 z         -2.211793     -1.874711     0.337082    Cartesian  -15.24
      4 x          2.211793      2.211793     0.000000    Cartesian    0.00
      4 y          2.211793      2.211793     0.000000    Cartesian    0.00
      4 z          4.423586      4.424051     0.000465    Cartesian    0.01
      5 x          2.211793      2.211793     0.000000    Cartesian    0.00
      5 y          6.635379      6.846743     0.211364    Cartesian    3.19
      5 z          0.000000      0.000000     0.000000    Cartesian    0.00
      6 x          2.211793      2.211793     0.000000    Cartesian    0.00
      6 y          6.635379      6.605801    -0.029578    Cartesian   -0.45
      6 z         -2.211793     -2.191562     0.020231    Cartesian   -0.91
      7 x          4.423586      4.417929    -0.005657    Cartesian   -0.13
      7 y          6.635379      6.593391    -0.041988    Cartesian   -0.63
      7 z         -2.211793     -2.210500     0.001293    Cartesian   -0.06
      8 x          4.423586      4.503724     0.080138    Cartesian    1.81
      8 y          4.423586      4.503724     0.080138    Cartesian    1.81
      8 z          4.423586      4.512539     0.088953    Cartesian    2.01
      9 x          2.211793      2.211793     0.000000    Cartesian    0.00
      9 y          6.635379      6.387545    -0.247834    Cartesian   -3.74
      9 z          4.423586      4.393303    -0.030283    Cartesian   -0.68
     10 x          6.635379      6.613816    -0.021562    Cartesian   -0.32
     10 y          6.635379      6.613816    -0.021562    Cartesian   -0.32
     10 z          0.000000      0.000000     0.000000    Cartesian    0.00
     11 x          6.635379      6.639905     0.004526    Cartesian    0.07
     11 y          6.635379      6.639905     0.004526    Cartesian    0.07
     11 z         -2.211793     -2.215936    -0.004143    Cartesian    0.19
     12 x          2.211793      2.211793     0.000000    Cartesian    0.00
     12 y          2.211793      2.211793     0.000000    Cartesian    0.00
     12 z          6.635379      6.672641     0.037262    Cartesian    0.56
     13 x          4.423586      4.431631     0.008045    Cartesian    0.18
     13 y          8.847172      8.873001     0.025829    Cartesian    0.29
     13 z          0.000000      0.000000     0.000000    Cartesian    0.00
     14 x          4.423586      4.413365    -0.010221    Cartesian   -0.23
     14 y          2.211793      2.211793     0.000000    Cartesian    0.00
     14 z          6.635379      6.697166     0.061788    Cartesian    0.93
     15 x          8.847172      8.825031    -0.022140    Cartesian   -0.25
     15 y          2.211793      2.211793     0.000000    Cartesian    0.00
     15 z         -2.211793     -2.373246    -0.161453    Cartesian    7.30
     16 x          6.635379      6.627238    -0.008140    Cartesian   -0.12
     16 y          6.635379      6.627238    -0.008140    Cartesian   -0.12
     16 z          4.423586      4.422298    -0.001287    Cartesian   -0.03
     17 x          2.211793      2.211793     0.000000    Cartesian    0.00
     17 y          6.635379      6.616350    -0.019029    Cartesian   -0.29
     17 z          6.635379      6.620400    -0.014979    Cartesian   -0.23
     18 x          4.423586      4.433029     0.009443    Cartesian    0.21
     18 y          8.847172      8.881623     0.034451    Cartesian    0.39
     18 z          4.423586      4.420371    -0.003215    Cartesian   -0.07
     19 x          4.423586      4.424281     0.000695    Cartesian    0.02
     19 y          6.635379      6.624484    -0.010895    Cartesian   -0.16
     19 z          6.635379      6.591675    -0.043704    Cartesian   -0.66
     20 x          8.847172      8.843204    -0.003968    Cartesian   -0.04
     20 y          6.635379      6.625093    -0.010286    Cartesian   -0.16
     20 z         -2.211793     -2.202097     0.009696    Cartesian   -0.44
     21 x          2.211793      2.211793     0.000000    Cartesian    0.00
     21 y          2.211793      2.211793     0.000000    Cartesian    0.00
     21 z          8.847172      8.872424     0.025252    Cartesian    0.29
     22 x          2.211793      2.211793     0.000000    Cartesian    0.00
     22 y         11.058965     10.965058    -0.093907    Cartesian   -0.85
     22 z          0.000000      0.000000     0.000000    Cartesian    0.00
     23 x          2.211793      2.211793     0.000000    Cartesian    0.00
     23 y         11.058965     11.049967    -0.008998    Cartesian   -0.08
     23 z         -2.211793     -2.224782    -0.012989    Cartesian    0.59
     24 x          6.635379      6.644757     0.009378    Cartesian    0.14
     24 y          6.635379      6.644757     0.009378    Cartesian    0.14
     24 z          6.635379      6.638220     0.002841    Cartesian    0.04
     25 x          4.423586      4.420925    -0.002661    Cartesian   -0.06
     25 y          4.423586      4.420925    -0.002661    Cartesian   -0.06
     25 z          8.847172      8.879329     0.032157    Cartesian    0.36
     26 x          4.423586      4.421058    -0.002528    Cartesian   -0.06
     26 y         11.058965     11.044230    -0.014735    Cartesian   -0.13
     26 z         -2.211793     -2.191546     0.020247    Cartesian   -0.92
     27 x          8.847172      8.862622     0.015451    Cartesian    0.17
     27 y          8.847172      8.862622     0.015451    Cartesian    0.17
     27 z          0.000000      0.000000     0.000000    Cartesian    0.00
     28 x          8.847172      8.827941    -0.019231    Cartesian   -0.22
     28 y          2.211793      2.211793     0.000000    Cartesian    0.00
     28 z          6.635379      6.550326    -0.085052    Cartesian   -1.28
     29 x          2.211793      2.211793     0.000000    Cartesian    0.00
     29 y          6.635379      6.665653     0.030274    Cartesian    0.46
     29 z          8.847172      8.833062    -0.014110    Cartesian   -0.16
     30 x          2.211793      2.211793     0.000000    Cartesian    0.00
     30 y         11.058965     11.090891     0.031926    Cartesian    0.29
     30 z          4.423586      4.426234     0.002648    Cartesian    0.06
     31 x          6.635379      6.640511     0.005132    Cartesian    0.08
     31 y         11.058965     11.051798    -0.007166    Cartesian   -0.06
     31 z          0.000000      0.000000     0.000000    Cartesian    0.00
     32 x          6.635379      6.638955     0.003576    Cartesian    0.05
     32 y         11.058965     11.063005     0.004040    Cartesian    0.04
     32 z         -2.211793     -2.208348     0.003444    Cartesian   -0.16
     33 x          8.847172      8.866705     0.019534    Cartesian    0.22
     33 y          8.847172      8.866705     0.019534    Cartesian    0.22
     33 z          4.423586      4.433472     0.009886    Cartesian    0.22
     34 x          8.847172      8.844767    -0.002404    Cartesian   -0.03
     34 y          6.635379      6.632797    -0.002582    Cartesian   -0.04
     34 z          6.635379      6.637211     0.001832    Cartesian    0.03
     35 x          6.635379      6.620313    -0.015066    Cartesian   -0.23
     35 y         11.058965     11.032674    -0.026291    Cartesian   -0.24
     35 z          4.423586      4.418618    -0.004968    Cartesian   -0.11
     36 x          6.635379      6.617266    -0.018113    Cartesian   -0.27
     36 y          6.635379      6.617266    -0.018113    Cartesian   -0.27
     36 z          8.847172      8.838335    -0.008837    Cartesian   -0.10
     37 x          2.211793      2.211793     0.000000    Cartesian    0.00
     37 y          2.211793      2.211793     0.000000    Cartesian    0.00
     37 z         -2.211793     -2.319246    -0.107453    Cartesian    4.86
     38 x          4.423586      4.536161     0.112575    Cartesian    2.54
     38 y          4.423586      4.536161     0.112575    Cartesian    2.54
     38 z          0.000000      0.000000     0.000000    Cartesian    0.00
     39 x          2.211793      2.211793     0.000000    Cartesian    0.00
     39 y          6.635379      6.605873    -0.029506    Cartesian   -0.44
     39 z         -2.211793     -2.191547     0.020246    Cartesian   -0.92
     40 x          4.423586      4.516119     0.092533    Cartesian    2.09
     40 y          4.423586      4.516119     0.092533    Cartesian    2.09
     40 z          4.423586      4.525317     0.101731    Cartesian    2.30
     41 x          6.635379      6.639908     0.004530    Cartesian    0.07
     41 y          6.635379      6.639908     0.004530    Cartesian    0.07
     41 z         -2.211793     -2.215941    -0.004148    Cartesian    0.19
     42 x          2.211793      2.211793     0.000000    Cartesian    0.00
     42 y          2.211793      2.211793     0.000000    Cartesian    0.00
     42 z          6.635379      6.672714     0.037335    Cartesian    0.56
     43 x          4.423586      4.431411     0.007825    Cartesian    0.18
     43 y          8.847172      8.875740     0.028569    Cartesian    0.32
     43 z          0.000000      0.000000     0.000000    Cartesian    0.00
     44 x          2.211793      2.211793     0.000000    Cartesian    0.00
     44 y          6.635379      6.616313    -0.019066    Cartesian   -0.29
     44 z          6.635379      6.620420    -0.014959    Cartesian   -0.23
     45 x          4.423586      4.433306     0.009720    Cartesian    0.22
     45 y          8.847172      8.887214     0.040042    Cartesian    0.45
     45 z          4.423586      4.419775    -0.003811    Cartesian   -0.09
     46 x          2.211793      2.211793     0.000000    Cartesian    0.00
     46 y         11.058965     11.049968    -0.008997    Cartesian   -0.08
     46 z         -2.211793     -2.224822    -0.013029    Cartesian    0.59
     47 x          6.635379      6.644767     0.009389    Cartesian    0.14
     47 y          6.635379      6.644767     0.009389    Cartesian    0.14
     47 z          6.635379      6.638220     0.002842    Cartesian    0.04
     48 x          4.423586      4.419758    -0.003828    Cartesian   -0.09
     48 y          4.423586      4.419758    -0.003828    Cartesian   -0.09
     48 z          8.847172      8.881469     0.034297    Cartesian    0.39
     49 x          8.847172      8.864615     0.017443    Cartesian    0.20
     49 y          8.847172      8.864615     0.017443    Cartesian    0.20
     49 z          0.000000      0.000000     0.000000    Cartesian    0.00
     50 x          6.635379      6.638960     0.003581    Cartesian    0.05
     50 y         11.058965     11.063007     0.004042    Cartesian    0.04
     50 z         -2.211793     -2.208342     0.003451    Cartesian   -0.16
     51 x          8.847172      8.868996     0.021824    Cartesian    0.25
     51 y          8.847172      8.868996     0.021824    Cartesian    0.25
     51 z          4.423586      4.434806     0.011220    Cartesian    0.25
--------------------------------------------------------------------------------


  Time to end of optimisation  =       16.6603 seconds


  Peak dynamic memory used =      34.85 MB 


  Timing analysis for GULP :

--------------------------------------------------------------------------------
  Task / Subroutine                                          Time (Seconds)
--------------------------------------------------------------------------------
  Calculation of reciprocal space energy and derivatives          0.0004
  Calculation of reciprocal space energy using symmetry           0.0007
  Calculation of real space energy and derivatives                0.0022
  Calculation of real space energy using symmetry                 0.0067
  Calculation for region 1 energy and derivatives (2-b)           3.3277
  Calculation for region 2a energy                               13.1777
  Calculation for region 2b energy                                0.0003
  Calculation and manipulation of Hessian matrix                  0.0353
  Calculation of matrix inversion                                 0.0015
  Symmetry generation of equivalent positions                     0.0025
--------------------------------------------------------------------------------
  Total CPU time                                                 16.6604
--------------------------------------------------------------------------------


  Dump file written as Na3OCl.grs


  Job Finished at 12:05.20  3rd January    2021                               

